INSANE! Membrane UpperLeaflet>loPI:POPI:DPPI:PYPI:ERGO=180.0:5.0:3.0:2.0:10.0 LowerLeaflet>PSPI:POPI:POPS:YOPS:POPE:YOPE:POPC:YOPC:ERGO=6.0:14.0:21.0:9.0:9.0:21.0:12.0:48.0:60.0
49428
    1loPI    C1    1   2.959  15.743  10.974  0.1377 -0.2677 -0.0723
    1loPI    C2    2   2.896  15.737  11.369 -0.1070 -0.1936 -0.1082
    1loPI    C3    3   3.227  15.906  11.221 -0.1762  0.0833  0.0462
    1loPI   PO4    4   2.719  15.852  10.787  0.1531 -0.0095  0.1627
    1loPI   GL1    5   2.745  16.137  10.383  0.2304 -0.1019 -0.1179
    1loPI   GL2    6   3.020  16.152  10.262 -0.4740 -0.0366 -0.1590
    1loPI   C1A    7   2.643  16.356   9.956  0.0911  0.1814  0.0247
    1loPI   C2A    8   2.625  16.384   9.468  0.0080  0.2134  0.0478
    1loPI   C3A    9   2.795  16.402   9.109 -0.1853  0.2634 -0.0161
    1loPI   C4A   10   2.736  16.421   8.680  0.4446  0.0222 -0.2286
    1loPI   C5A   11   2.711  16.105   8.317  0.2304 -0.2162 -0.0899
    1loPI   C6A   12   2.866  15.785   8.272 -0.0154  0.2301  0.3549
    1loPI   C1B   13   3.191  16.158   9.832  0.2928  0.1650  0.2939
    1loPI   C2B   14   3.251  16.099   9.350 -0.1076 -0.2342  0.0264
    1loPI   C3B   15   3.254  16.123   8.916  0.0699  0.1140 -0.2503
    1loPI   C4B   16   3.183  16.165   8.568  0.4830  0.0224 -0.0471
    2loPI    C1   17  14.407   8.274  10.876  0.0695  0.0809  0.0683
    2loPI    C2   18  14.706   8.277  11.141  0.1276  0.2083  0.0024
    2loPI    C3   19  14.400   8.532  11.182 -0.0647 -0.0450  0.1725
    2loPI   PO4   20  14.487   8.212  10.643 -0.0753 -0.3140  0.1457
    2loPI   GL1   21  14.766   8.241  10.318 -0.1818  0.0954 -0.0471
    2loPI   GL2   22  14.953   8.405  10.346 -0.0587  0.2490 -0.1745
    2loPI   C1A   23  14.524   8.139   9.848 -0.1117 -0.4459 -0.2728
    2loPI   C2A   24  14.591   8.137   9.371  0.3959  0.0291  0.1163
    2loPI   C3A   25  14.495   8.039   9.040  0.2557  0.2317 -0.1012
    2loPI   C4A   26  14.578   8.195   8.551 -0.1430 -0.5002 -0.0761
    2loPI   C5A   27  14.778   8.220   8.211 -0.0939 -0.1786 -0.1085
    2loPI   C6A   28  15.094   8.607   8.193  0.2325 -0.2432  0.1199
    2loPI   C1B   29  14.949   8.405   9.888  0.2145  0.2204 -0.1910
    2loPI   C2B   30  15.036   8.481   9.488  0.2490  0.1472 -0.1363
    2loPI   C3B   31  14.928   8.342   9.013 -0.0363 -0.2450 -0.1525
    2loPI   C4B   32  14.902   8.512   8.634 -0.2377 -0.3504 -0.1837
    3loPI    C1   33   1.587   8.776  11.074  0.0510  0.1807  0.1142
    3loPI    C2   34   1.908   8.865  11.296  0.2230  0.0189 -0.0661
    3loPI    C3   35   1.715   8.519  11.353  0.2147  0.0164 -0.1086
    3loPI   PO4   36   1.695   8.731  10.832 -0.2301 -0.3606 -0.1486
    3loPI   GL1   37   1.717   8.578  10.513  0.0480 -0.2504  0.0553
    3loPI   GL2   38   1.558   8.334  10.403  0.0907 -0.1723 -0.2502
    3loPI   C1A   39   1.988   8.700  10.144 -0.0443  0.1010  0.0744
    3loPI   C2A   40   2.063   8.689   9.732  0.0660  0.1256 -0.0623
    3loPI   C3A   41   2.081   8.705   9.291  0.2822  0.2105 -0.2179
    3loPI   C4A   42   2.115   8.549   8.901  0.4157  0.0916 -0.1683
    3loPI   C5A   43   2.054   8.688   8.577 -0.1706 -0.0239  0.0260
    3loPI   C6A   44   1.730   8.646   8.270  0.2776 -0.0939  0.1399
    3loPI   C1B   45   1.579   8.388   9.987  0.2956 -0.1164 -0.1239
    3loPI   C2B   46   1.705   8.343   9.594 -0.1626  0.0122 -0.2438
    3loPI   C3B   47   1.589   8.407   9.170 -0.0019  0.1867 -0.2432
    3loPI   C4B   48   1.589   8.337   8.755 -0.1184 -0.1445 -0.0172
    4loPI    C1   49  10.032   0.215  10.834  0.1507 -0.1185  0.1200
    4loPI    C2   50   9.890  -0.092  10.620  0.3670 -0.0703 -0.0971
    4loPI    C3   51   9.643   0.124  10.849  0.1459 -0.1718 -0.2366
    4loPI   PO4   52  10.125   0.432  10.717 -0.1174 -0.2486  0.0215
    4loPI   GL1   53  10.311   0.576  10.406  0.0336 -0.0541  0.2089
    4loPI   GL2   54  10.154   0.645  10.186  0.3070 -0.2722 -0.3614
    4loPI   C1A   55  10.500   0.919   9.996 -0.0926 -0.3109 -0.0549
    4loPI   C2A   56  10.518   1.086   9.535  0.1494 -0.3396  0.1153
    4loPI   C3A   57  10.426   1.032   9.087 -0.0886 -0.0070 -0.2021
    4loPI   C4A   58  10.526   1.026   8.632  0.2105 -0.1781 -0.2773
    4loPI   C5A   59  10.868   0.963   8.274  0.0108 -0.0411  0.2563
    4loPI   C6A   60  11.164   1.148   8.047 -0.4368  0.0954  0.0436
    4loPI   C1B   61  10.078   0.712   9.774 -0.0239  0.0230 -0.0291
    4loPI   C2B   62  10.093   0.730   9.316  0.0659 -0.0067 -0.1560
    4loPI   C3B   63  10.104   0.702   8.874 -0.3250  0.2521  0.0298
    4loPI   C4B   64  10.134   0.537   8.541  0.1145 -0.1272 -0.2171
    5loPI    C1   65   3.197  13.834  10.770 -0.1234  0.1495 -0.0292
    5loPI    C2   66   3.326  14.087  11.052 -0.0628 -0.1845  0.2499
    5loPI    C3   67   3.088  13.781  11.151 -0.0446 -0.3042 -0.0639
    5loPI   PO4   68   3.159  14.069  10.568 -0.0854 -0.1148 -0.0508
    5loPI   GL1   69   3.276  13.860  10.232 -0.0928  0.1345  0.3369
    5loPI   GL2   70   3.223  13.621  10.093  0.0483 -0.0915  0.1443
    5loPI   C1A   71   3.129  14.012   9.817  0.4378  0.5182  0.0374
    5loPI   C2A   72   3.080  13.916   9.461  0.0078  0.1494  0.1459
    5loPI   C3A   73   2.952  13.847   8.960  0.1183  0.1547  0.0636
    5loPI   C4A   74   2.873  13.701   8.580  0.0493  0.0911 -0.0237
    5loPI   C5A   75   2.973  13.560   8.160 -0.2185  0.2817  0.2048
    5loPI   C6A   76   3.183  13.192   7.991 -0.0735  0.1965 -0.0824
    5loPI   C1B   77   3.441  13.577   9.700  0.1726  0.2621  0.4829
    5loPI   C2B   78   3.353  13.537   9.265 -0.3251 -0.1177 -0.0029
    5loPI   C3B   79   3.384  13.381   8.830 -0.1132 -0.0252  0.0999
    5loPI   C4B   80   3.312  13.398   8.525 -0.0467 -0.2924  0.0390
    6loPI    C1   81  11.965  14.464  11.236  0.0045  0.2978 -0.1478
    6loPI    C2   82  11.670  14.728  11.291  0.0162  0.2151  0.3634
    6loPI    C3   83  11.597  14.337  11.327  0.0165  0.1407 -0.3143
    6loPI   PO4   84  12.062  14.514  10.984  0.2666  0.0650 -0.2843
    6loPI   GL1   85  12.053  14.440  10.506 -0.0266  0.0880  0.0402
    6loPI   GL2   86  12.326  14.536  10.547 -0.1361 -0.0489 -0.1319
    6loPI   C1A   87  11.919  14.664  10.121  0.1071 -0.0035 -0.2356
    6loPI   C2A   88  12.057  14.664   9.731  0.1491  0.0961 -0.0384
    6loPI   C3A   89  12.039  14.663   9.283 -0.1929 -0.1653 -0.3683
    6loPI   C4A   90  12.150  14.689   8.945  0.0768 -0.0637 -0.1463
    6loPI   C5A   91  12.126  14.779   8.526  0.1467  0.1849 -0.1411
    6loPI   C6A   92  12.399  14.627   8.279 -0.1339  0.0081 -0.0063
    6loPI   C1B   93  12.369  14.509  10.136  0.0275  0.0305  0.4448
    6loPI   C2B   94  12.531  14.504   9.585 -0.0754  0.3981  0.0116
    6loPI   C3B   95  12.526  14.402   9.195 -0.0893  0.1063 -0.0203
    6loPI   C4B   96  12.620  14.486   8.726  0.1050  0.0066  0.1841
    7loPI    C1   97   9.931   6.541  10.893 -0.0862 -0.0647 -0.0399
    7loPI    C2   98   9.955   6.416  11.272 -0.0989  0.0588  0.0021
    7loPI    C3   99  10.132   6.206  10.981 -0.2243 -0.1235  0.0553
    7loPI   PO4  100   9.985   6.815  10.881 -0.1184 -0.0475 -0.0297
    7loPI   GL1  101   9.902   6.974  10.628  0.1517 -0.0953  0.0201
    7loPI   GL2  102   9.801   6.854  10.410 -0.0049 -0.1017  0.0897
    7loPI   C1A  103  10.140   7.088  10.156  0.2479 -0.0630 -0.0879
    7loPI   C2A  104  10.067   7.048   9.728 -0.0772 -0.1367 -0.2973
    7loPI   C3A  105  10.108   7.011   9.323 -0.2837 -0.1729 -0.1828
    7loPI   C4A  106  10.099   7.080   8.912 -0.0389  0.0036 -0.2137
    7loPI   C5A  107  10.086   7.245   8.537  0.4294  0.4222  0.0470
    7loPI   C6A  108  10.310   7.359   8.323 -0.1079 -0.1173 -0.0063
    7loPI   C1B  109   9.768   6.714  10.018 -0.3295  0.0326 -0.2477
    7loPI   C2B  110   9.729   6.673   9.552 -0.2299 -0.3772 -0.2390
    7loPI   C3B  111   9.741   6.739   9.127  0.0921 -0.1588  0.0804
    7loPI   C4B  112   9.777   6.849   8.683 -0.0309  0.0482 -0.0305
    8loPI    C1  113   3.861  15.911  11.069  0.1170 -0.0399 -0.0076
    8loPI    C2  114   3.727  15.813  11.433 -0.0539 -0.0249 -0.0655
    8loPI    C3  115   4.020  15.600  11.264 -0.0116 -0.0654  0.0577
    8loPI   PO4  116   3.575  15.951  10.867  0.0867  0.3405 -0.0959
    8loPI   GL1  117   3.545  15.998  10.419  0.3470  0.0682  0.2929
    8loPI   GL2  118   3.536  16.299  10.401 -0.1375  0.0458 -0.0005
    8loPI   C1A  119   3.681  15.997   9.967  0.0978  0.1099 -0.0360
    8loPI   C2A  120   3.798  15.919   9.557 -0.1549 -0.0922 -0.0582
    8loPI   C3A  121   3.698  15.978   9.048 -0.1533 -0.2106  0.3822
    8loPI   C4A  122   3.640  15.831   8.609 -0.0101 -0.2318 -0.1687
    8loPI   C5A  123   3.387  15.556   8.344 -0.0411 -0.3053 -0.0914
    8loPI   C6A  124   3.136  15.171   8.252  0.0696 -0.0967  0.0248
    8loPI   C1B  125   3.584  16.445  10.033  0.0779 -0.2861  0.1585
    8loPI   C2B  126   3.651  16.482   9.566  0.0958 -0.1419 -0.0229
    8loPI   C3B  127   3.645  16.452   9.138 -0.0396 -0.1196  0.0022
    8loPI   C4B  128   3.638  16.409   8.675 -0.0536  0.1053  0.1747
    9loPI    C1  129   8.497  10.156  11.078  0.0547 -0.1113  0.3450
    9loPI    C2  130   8.225  10.443  11.135 -0.0392 -0.2100  0.3987
    9loPI    C3  131   8.275  10.158  11.411  0.0263 -0.2673  0.3278
    9loPI   PO4  132   8.699  10.213  10.889 -0.0523  0.1694 -0.2102
    9loPI   GL1  133   8.814  10.361  10.425  0.0419 -0.0755 -0.0238
    9loPI   GL2  134   8.833  10.669  10.359  0.0273 -0.1974 -0.0883
    9loPI   C1A  135   8.798  10.136  10.114 -0.1452  0.1924  0.1759
    9loPI   C2A  136   8.789  10.081   9.638 -0.2426  0.0143  0.2009
    9loPI   C3A  137   8.915  10.109   9.223  0.2107 -0.1551  0.0007
    9loPI   C4A  138   8.927  10.170   8.808 -0.2976 -0.2393  0.2088
    9loPI   C5A  139   8.933  10.319   8.305  0.1726  0.2176 -0.2179
    9loPI   C6A  140   9.118  10.642   8.039 -0.0793  0.0380  0.0276
    9loPI   C1B  141   8.808  10.564   9.896 -0.2317 -0.0882 -0.1437
    9loPI   C2B  142   8.651  10.545   9.500  0.0062  0.1278  0.0124
    9loPI   C3B  143   8.849  10.626   9.140 -0.0322 -0.0914 -0.0580
    9loPI   C4B  144   8.729  10.617   8.728 -0.0545  0.0800  0.0631
   10loPI    C1  145  16.400  13.643  11.442  0.1507 -0.1196  0.1806
   10loPI    C2  146  16.419  13.572  11.835  0.2425 -0.1976  0.1626
   10loPI    C3  147  16.301  13.283  11.585  0.2243 -0.1608  0.1285
   10loPI   PO4  148  16.686  13.676  11.385 -0.0917  0.0634  0.3389
   10loPI   GL1  149  16.776  13.831  10.954  0.2433 -0.0304 -0.0555
   10loPI   GL2  150  17.021  13.790  10.786 -0.0170  0.0570  0.0268
   10loPI   C1A  151  16.553  14.100  10.575 -0.4440  0.2176  0.3549
   10loPI   C2A  152  16.680  14.051  10.203  0.2610  0.1900 -0.1673
   10loPI   C3A  153  16.674  14.071   9.875 -0.0051  0.1233  0.0754
   10loPI   C4A  154  16.650  14.087   9.457 -0.1115 -0.2858 -0.0859
   10loPI   C5A  155  16.651  14.054   8.961  0.0011 -0.0127  0.1368
   10loPI   C6A  156  17.075  14.143   8.694  0.0796  0.2054  0.1452
   10loPI   C1B  157  17.156  13.867  10.356 -0.5600 -0.1284 -0.2003
   10loPI   C2B  158  17.186  13.958  10.014  0.0729 -0.0265  0.0277
   10loPI   C3B  159  17.108  13.891   9.572 -0.1111 -0.0246 -0.1933
   10loPI   C4B  160  17.102  13.901   9.188  0.2709 -0.1335  0.1548
   11loPI    C1  161   1.417  16.552  11.211  0.0464  0.2868  0.2031
   11loPI    C2  162   1.366  16.263  11.483 -0.0019  0.0815 -0.0209
   11loPI    C3  163   1.718  16.452  11.455  0.1166 -0.1403 -0.0492
   11loPI   PO4  164   1.242  16.476  11.025  0.0799 -0.0938  0.2470
   11loPI   GL1  165   1.157  16.586  10.620 -0.1796 -0.1707 -0.2181
   11loPI   GL2  166   1.406  16.617  10.470 -0.0546  0.0412  0.2159
   11loPI   C1A  167   0.974  16.727  10.203  0.0294 -0.1764  0.0270
   11loPI   C2A  168   0.910  16.749   9.719  0.3265 -0.0549  0.3491
   11loPI   C3A  169   0.855  16.726   9.328  0.1305  0.1929  0.3567
   11loPI   C4A  170   0.753  16.654   8.842 -0.3012  0.1653  0.1584
   11loPI   C5A  171   0.828  16.662   8.375 -0.0092 -0.0810 -0.0789
   11loPI   C6A  172   1.222  16.409   8.208  0.4007  0.1589 -0.2197
   11loPI   C1B  173   1.405  16.518  10.020  0.2892  0.0474 -0.3551
   11loPI   C2B  174   1.400  16.491   9.618 -0.0224  0.0405 -0.0906
   11loPI   C3B  175   1.354  16.462   9.183  0.0278 -0.0367 -0.1283
   11loPI   C4B  176   1.290  16.531   8.712 -0.2133 -0.0043  0.2232
   12loPI    C1  177  16.544   5.272  11.476  0.2943 -0.1067 -0.1001
   12loPI    C2  178  16.578   5.616  11.677  0.3425 -0.0730 -0.1654
   12loPI    C3  179  16.590   5.267  11.873 -0.1212 -0.0292 -0.0467
   12loPI   PO4  180  16.489   5.405  11.176 -0.0871  0.0590  0.0278
   12loPI   GL1  181  16.384   5.281  10.848  0.0925  0.0624 -0.0256
   12loPI   GL2  182  16.298   5.028  10.658  0.0574 -0.2424 -0.1803
   12loPI   C1A  183  16.655   5.370  10.489  0.1123 -0.0413 -0.1296
   12loPI   C2A  184  16.651   5.198  10.128 -0.3218 -0.2892  0.4238
   12loPI   C3A  185  16.735   5.222   9.739 -0.4043  0.0293  0.2378
   12loPI   C4A  186  16.645   5.270   9.196  0.0471  0.0699  0.3222
   12loPI   C5A  187  16.641   5.184   8.673  0.0111 -0.1050  0.2597
   12loPI   C6A  188  16.492   5.120   8.256 -0.0646 -0.0145  0.2119
   12loPI   C1B  189  16.240   4.896  10.287 -0.2281  0.0668  0.2394
   12loPI   C2B  190  16.254   4.922   9.856  0.0449  0.0387  0.1359
   12loPI   C3B  191  16.343   4.941   9.418 -0.2698  0.1435 -0.2085
   12loPI   C4B  192  16.337   4.934   9.001  0.0361  0.1829  0.0280
   13loPI    C1  193   4.811  11.405  10.917 -0.1486 -0.0549 -0.1669
   13loPI    C2  194   4.599  11.581  11.207  0.0018  0.1263 -0.1651
   13loPI    C3  195   4.798  11.242  11.282  0.2282  0.2954  0.0100
   13loPI   PO4  196   4.661  11.453  10.744 -0.0372  0.0014 -0.3428
   13loPI   GL1  197   4.540  11.311  10.438  0.0903 -0.2077 -0.2035
   13loPI   GL2  198   4.515  11.003  10.454  0.3119  0.0020 -0.1738
   13loPI   C1A  199   4.482  11.241   9.948  0.0564  0.0818 -0.1208
   13loPI   C2A  200   4.506  11.116   9.522 -0.2307  0.3319  0.0940
   13loPI   C3A  201   4.530  11.020   9.063 -0.3414 -0.2192 -0.0225
   13loPI   C4A  202   4.616  10.926   8.584 -0.1851 -0.0091 -0.0706
   13loPI   C5A  203   4.470  10.688   8.208 -0.1723  0.1516 -0.0132
   13loPI   C6A  204   4.138  10.461   8.062  0.2824 -0.0088 -0.0996
   13loPI   C1B  205   4.792  10.898  10.176  0.0122 -0.2721 -0.1262
   13loPI   C2B  206   4.982  10.909   9.742 -0.1297 -0.1229  0.2417
   13loPI   C3B  207   5.003  10.774   9.264  0.2205  0.0927  0.2099
   13loPI   C4B  208   5.019  10.738   8.829  0.0011 -0.3497 -0.1146
   14loPI    C1  209  11.437  11.625  10.818  0.1901 -0.0412 -0.1056
   14loPI    C2  210  11.423  11.829  11.162 -0.0434  0.0736 -0.1810
   14loPI    C3  211  11.726  11.578  11.091  0.0818  0.1568  0.0465
   14loPI   PO4  212  11.349  11.760  10.663 -0.1270 -0.0974  0.0061
   14loPI   GL1  213  11.226  11.917  10.345 -0.0674  0.3435  0.1297
   14loPI   GL2  214  11.561  12.074  10.302 -0.2090 -0.1533  0.0016
   14loPI   C1A  215  11.274  11.959   9.910  0.2493 -0.0758  0.0662
   14loPI   C2A  216  11.296  12.032   9.555  0.2418  0.0547  0.0334
   14loPI   C3A  217  11.399  11.973   9.140 -0.1944 -0.0593  0.0797
   14loPI   C4A  218  11.430  12.120   8.714  0.0234  0.3362  0.0489
   14loPI   C5A  219  11.494  12.409   8.382  0.1214 -0.0765  0.3483
   14loPI   C6A  220  11.805  12.562   8.158 -0.3687 -0.3051 -0.0213
   14loPI   C1B  221  11.739  12.201   9.843  0.1832  0.1654 -0.1454
   14loPI   C2B  222  11.803  12.233   9.475 -0.1965 -0.2295 -0.1583
   14loPI   C3B  223  11.847  12.314   9.030  0.1090  0.1941  0.2283
   14loPI   C4B  224  11.945  12.457   8.655  0.0105 -0.2760  0.2787
   15loPI    C1  225   5.536  16.230  10.964 -0.1312 -0.0486  0.1487
   15loPI    C2  226   5.614  15.976  11.263  0.0564  0.0365  0.1735
   15loPI    C3  227   5.464  16.339  11.342  0.1456  0.0747  0.1681
   15loPI   PO4  228   5.553  16.041  10.724  0.0380 -0.0361  0.2216
   15loPI   GL1  229   5.308  16.143  10.349  0.0110 -0.1134  0.3243
   15loPI   GL2  230   5.005  16.331  10.234  0.0944 -0.3075  0.1114
   15loPI   C1A  231   5.456  16.049   9.964 -0.1436  0.2526 -0.3024
   15loPI   C2A  232   5.487  16.107   9.572 -0.0620  0.0233 -0.0165
   15loPI   C3A  233   5.455  16.054   9.136  0.2583  0.1164 -0.0950
   15loPI   C4A  234   5.488  16.088   8.645  0.1260  0.0138 -0.0280
   15loPI   C5A  235   5.353  16.354   8.341  0.0012 -0.3951  0.0890
   15loPI   C6A  236   5.327  16.714   8.271  0.0355 -0.0201 -0.0236
   15loPI   C1B  237   4.995  16.337   9.727  0.3501 -0.0026 -0.1040
   15loPI   C2B  238   5.024  16.219   9.401 -0.5470  0.0540  0.0645
   15loPI   C3B  239   4.990  16.278   8.930  0.2181 -0.1244  0.2909
   15loPI   C4B  240   4.871  16.338   8.421  0.0049 -0.1600 -0.1230
   16loPI    C1  241   2.780  10.895  10.894 -0.0422 -0.1165  0.1280
   16loPI    C2  242   2.674  10.630  10.614 -0.1667 -0.0360  0.0982
   16loPI    C3  243   2.436  10.694  10.930 -0.0898 -0.0309  0.1553
   16loPI   PO4  244   2.998  11.077  10.668  0.1235 -0.0706 -0.2479
   16loPI   GL1  245   3.063  10.985  10.370 -0.0836  0.1072 -0.0370
   16loPI   GL2  246   3.363  10.913  10.340  0.0691 -0.0346 -0.1102
   16loPI   C1A  247   2.769  10.933  10.017 -0.0077  0.2197 -0.1174
   16loPI   C2A  248   2.652  10.911   9.666  0.1676  0.1918  0.1022
   16loPI   C3A  249   2.800  10.775   9.241 -0.3006 -0.2184  0.0696
   16loPI   C4A  250   2.874  10.756   8.819  0.0566  0.0486 -0.1577
   16loPI   C5A  251   2.794  10.806   8.408 -0.1442 -0.0850  0.0422
   16loPI   C6A  252   2.708  10.676   7.990  0.2526 -0.0354 -0.3168
   16loPI   C1B  253   3.753  10.587  10.186  0.1515  0.2123 -0.1713
   16loPI   C2B  254   3.793  10.504   9.744  0.4020 -0.1003 -0.0083
   16loPI   C3B  255   3.715  10.385   9.256 -0.0281  0.0941  0.2434
   16loPI   C4B  256   3.722  10.352   8.828 -0.0861 -0.0602  0.1366
   17loPI    C1  257   2.814   3.691  11.127  0.1562 -0.3888 -0.0986
   17loPI    C2  258   2.788   3.943  11.437  0.0376 -0.2291 -0.2368
   17loPI    C3  259   3.029   3.625  11.458  0.1040 -0.1660 -0.0184
   17loPI   PO4  260   2.805   3.863  10.918 -0.1853 -0.0403  0.1469
   17loPI   GL1  261   2.945   3.933  10.535  0.1282  0.2165  0.1148
   17loPI   GL2  262   2.913   4.218  10.579 -0.2301 -0.0978  0.1443
   17loPI   C1A  263   3.013   3.835  10.080 -0.2739  0.1264 -0.0674
   17loPI   C2A  264   3.028   3.763   9.649 -0.1543  0.2185  0.0495
   17loPI   C3A  265   2.963   3.886   9.208  0.1216 -0.1648  0.1440
   17loPI   C4A  266   2.950   3.801   8.822 -0.0783  0.1478  0.0520
   17loPI   C5A  267   2.634   3.435   8.605 -0.1381 -0.0753 -0.0037
   17loPI   C6A  268   2.679   2.891   8.465  0.0500  0.1002  0.2410
   17loPI   C1B  269   2.943   4.332  10.133  0.2780  0.5015  0.0761
   17loPI   C2B  270   2.935   4.303   9.691  0.3221  0.0736 -0.0693
   17loPI   C3B  271   2.899   4.414   9.261  0.2750  0.1369  0.0587
   17loPI   C4B  272   2.844   4.307   8.788  0.1773  0.1375  0.0992
   18loPI    C1  273  12.367   6.679  11.283  0.0645 -0.2378  0.1561
   18loPI    C2  274  12.097   6.399  11.377 -0.0279 -0.1226  0.2372
   18loPI    C3  275  12.065   6.767  11.530 -0.0273 -0.0076 -0.0342
   18loPI   PO4  276  12.543   6.492  11.005 -0.1357  0.1120  0.0721
   18loPI   GL1  277  12.599   6.243  10.673 -0.1780  0.0469  0.1912
   18loPI   GL2  278  12.665   6.545  10.516  0.0624 -0.1100 -0.1191
   18loPI   C1A  279  12.470   6.064  10.287  0.0629  0.0520 -0.2207
   18loPI   C2A  280  12.473   6.039   9.857 -0.0860 -0.1885  0.3494
   18loPI   C3A  281  12.580   5.998   9.456  0.2283  0.0262  0.0250
   18loPI   C4A  282  12.523   6.115   9.047 -0.1730 -0.0086 -0.2014
   18loPI   C5A  283  12.558   6.041   8.617  0.3249  0.2620 -0.0983
   18loPI   C6A  284  12.271   6.005   8.179 -0.1435 -0.1983 -0.0265
   18loPI   C1B  285  12.925   6.353  10.204  0.2752  0.2237 -0.3054
   18loPI   C2B  286  12.880   6.322   9.775  0.1451 -0.0217  0.2329
   18loPI   C3B  287  12.968   6.414   9.399  0.1088  0.2163  0.0717
   18loPI   C4B  288  12.963   6.438   8.965 -0.1620  0.0845 -0.2113
   19loPI    C1  289   1.143   1.832  11.306  0.0292  0.1659  0.0634
   19loPI    C2  290   1.194   1.704  11.682 -0.2869  0.0807  0.0802
   19loPI    C3  291   0.958   2.018  11.608 -0.0848  0.2084 -0.0317
   19loPI   PO4  292   1.116   1.672  11.141  0.3763  0.2605 -0.0113
   19loPI   GL1  293   1.106   1.699  10.712  0.0119 -0.2478 -0.3111
   19loPI   GL2  294   0.926   1.979  10.598 -0.1704 -0.2391  0.0679
   19loPI   C1A  295   1.392   2.000  10.465  0.0747 -0.0167  0.1357
   19loPI   C2A  296   1.382   2.013  10.033 -0.1272  0.0090  0.1608
   19loPI   C3A  297   1.342   2.039   9.607  0.2188 -0.1871 -0.0449
   19loPI   C4A  298   1.403   2.248   9.218 -0.1226  0.0424 -0.0065
   19loPI   C5A  299   1.359   2.050   8.799 -0.0403 -0.3360 -0.0346
   19loPI   C6A  300   1.147   1.870   8.424 -0.2443 -0.0355  0.0274
   19loPI   C1B  301   0.987   1.719  10.241  0.1135 -0.3894 -0.1012
   19loPI   C2B  302   0.974   1.697   9.830  0.0346 -0.2228 -0.1450
   19loPI   C3B  303   0.935   1.704   9.431  0.1216  0.0906 -0.0567
   19loPI   C4B  304   0.998   1.768   8.950 -0.0243  0.2121  0.0199
   20loPI    C1  305  10.764  15.587  10.889 -0.1782 -0.0035 -0.0619
   20loPI    C2  306  10.603  15.272  11.075  0.1031 -0.0691  0.0762
   20loPI    C3  307  10.620  15.627  11.260  0.2036 -0.0862  0.1002
   20loPI   PO4  308  10.786  15.485  10.595 -0.1811  0.1218  0.2286
   20loPI   GL1  309  10.654  15.521  10.247 -0.0629  0.2537 -0.0016
   20loPI   GL2  310  10.993  15.659  10.107 -0.3187  0.0611 -0.2523
   20loPI   C1A  311  10.604  15.346   9.793  0.1245 -0.1267 -0.3188
   20loPI   C2A  312  10.624  15.315   9.264 -0.0758  0.1821 -0.2639
   20loPI   C3A  313  10.669  15.327   8.874 -0.2037 -0.0211  0.0691
   20loPI   C4A  314  10.787  15.276   8.414  0.2051  0.3028 -0.1919
   20loPI   C5A  315  10.508  15.276   8.081 -0.1250 -0.0280  0.2697
   20loPI   C6A  316  10.138  15.389   8.156 -0.0322  0.1784 -0.2041
   20loPI   C1B  317  11.087  15.673   9.649 -0.0534  0.2733  0.3047
   20loPI   C2B  318  11.178  15.669   9.227 -0.0368  0.0038  0.0701
   20loPI   C3B  319  11.096  15.634   8.748  0.1598  0.2583 -0.0922
   20loPI   C4B  320  11.206  15.580   8.389 -0.3964  0.0338 -0.1209
   21loPI    C1  321  10.933  17.710  10.718 -0.2559  0.0725  0.0845
   21loPI    C2  322  11.056  17.632  11.091 -0.1073 -0.1405 -0.0071
   21loPI    C3  323  10.764  17.414  10.927 -0.0678 -0.1472 -0.0692
   21loPI   PO4  324  11.071  17.956  10.628  0.0474 -0.1028 -0.1190
   21loPI   GL1  325  11.040  18.139  10.225 -0.1528  0.0774 -0.1899
   21loPI   GL2  326  10.778  18.241  10.296  0.0744 -0.0183  0.0650
   21loPI   C1A  327  11.075  18.274   9.825 -0.2134  0.5006  0.0432
   21loPI   C2A  328  11.037  18.263   9.492  0.2235 -0.2527  0.0579
   21loPI   C3A  329  10.906  18.121   9.108  0.1682  0.1075 -0.2122
   21loPI   C4A  330  10.835  17.856   8.818  0.0774 -0.0417  0.1188
   21loPI   C5A  331  10.725  17.566   8.501 -0.0107  0.1769 -0.3054
   21loPI   C6A  332  10.420  17.318   8.248 -0.0429  0.0199  0.0543
   21loPI   C1B  333  10.632  18.140   9.887 -0.2595 -0.0634  0.1825
   21loPI   C2B  334  10.524  18.413   9.609 -0.0792 -0.0605 -0.0433
   21loPI   C3B  335  10.532  18.409   9.194 -0.0974  0.0145  0.1129
   21loPI   C4B  336  10.679  18.396   8.712  0.0560  0.0914 -0.2250
   22loPI    C1  337  10.671   5.185  11.224 -0.1019 -0.0709  0.0223
   22loPI    C2  338  10.974   5.240  11.480 -0.1227  0.3044 -0.0269
   22loPI    C3  339  10.600   5.333  11.589 -0.1533  0.3123 -0.1378
   22loPI   PO4  340  10.733   5.250  11.015  0.1995  0.1636  0.0144
   22loPI   GL1  341  10.546   5.130  10.643  0.1230 -0.0359 -0.2915
   22loPI   GL2  342  10.414   4.987  10.576 -0.0040  0.2590  0.0075
   22loPI   C1A  343  10.846   5.290  10.350 -0.2153 -0.0825  0.1474
   22loPI   C2A  344  10.845   5.259   9.926  0.0822  0.0558  0.0707
   22loPI   C3A  345  10.875   5.310   9.502  0.0758 -0.1265 -0.0837
   22loPI   C4A  346  10.950   5.339   9.075  0.0342  0.2908  0.1893
   22loPI   C5A  347  11.088   5.191   8.700 -0.1526 -0.0146 -0.0467
   22loPI   C6A  348  11.285   4.975   8.303 -0.1350  0.0446  0.1949
   22loPI   C1B  349  10.432   4.999  10.156  0.0766 -0.3720  0.2306
   22loPI   C2B  350  10.477   4.937   9.670 -0.1151  0.0659 -0.1683
   22loPI   C3B  351  10.448   4.962   9.268 -0.0505 -0.0261  0.0372
   22loPI   C4B  352  10.578   5.074   8.836  0.0405 -0.0976  0.4672
   23loPI    C1  353   9.045   8.203  10.701  0.0733 -0.1464  0.1470
   23loPI    C2  354   9.399   8.050  10.806  0.0941  0.0111  0.3126
   23loPI    C3  355   9.233   8.338  11.028 -0.1242 -0.0406  0.2187
   23loPI   PO4  356   8.961   8.109  10.604 -0.0669  0.0295  0.0738
   23loPI   GL1  357   8.884   8.180  10.220 -0.1564  0.1664 -0.0166
   23loPI   GL2  358   8.831   8.475  10.309  0.3842 -0.1617  0.0421
   23loPI   C1A  359   9.087   7.947   9.895  0.0462 -0.2194  0.1501
   23loPI   C2A  360   9.036   7.890   9.480  0.1061  0.0774  0.3396
   23loPI   C3A  361   9.106   7.985   9.107  0.0227 -0.3432 -0.0228
   23loPI   C4A  362   9.029   7.968   8.761 -0.1349  0.0176 -0.1581
   23loPI   C5A  363   8.881   7.972   8.386  0.6540  0.4179  0.0005
   23loPI   C6A  364   8.856   8.056   7.930  0.1606  0.1635  0.1452
   23loPI   C1B  365   8.901   8.574   9.852 -0.0060  0.1160 -0.0414
   23loPI   C2B  366   8.891   8.579   9.422  0.0700  0.1879  0.1071
   23loPI   C3B  367   8.923   8.488   8.941 -0.3033 -0.0797  0.2774
   23loPI   C4B  368   8.875   8.532   8.515 -0.4294 -0.0291 -0.0991
   24loPI    C1  369   6.679   1.814  10.983  0.1575 -0.1122 -0.1098
   24loPI    C2  370   6.295   1.748  10.895  0.0624  0.3027 -0.0266
   24loPI    C3  371   6.424   1.706  11.271  0.1251  0.0606 -0.0729
   24loPI   PO4  372   6.799   1.768  10.729  0.2286  0.0897 -0.1602
   24loPI   GL1  373   6.453   1.862  10.435  0.1829 -0.1903  0.3997
   24loPI   GL2  374   6.404   2.095  10.517 -0.3622 -0.1906  0.3740
   24loPI   C1A  375   6.401   1.927   9.973 -0.1745  0.0079  0.0540
   24loPI   C2A  376   6.339   1.787   9.551  0.0510  0.0522 -0.2706
   24loPI   C3A  377   6.327   1.701   9.170  0.3233 -0.2188 -0.1162
   24loPI   C4A  378   6.401   1.829   8.716  0.2087  0.1508  0.3200
   24loPI   C5A  379   6.136   2.161   8.334  0.2463 -0.2668  0.1282
   24loPI   C6A  380   5.920   2.308   7.978 -0.0250  0.0165 -0.1773
   24loPI   C1B  381   6.400   2.344  10.208 -0.1151 -0.0401  0.1740
   24loPI   C2B  382   6.332   2.402   9.753  0.2778  0.2448 -0.2927
   24loPI   C3B  383   6.343   2.310   9.292 -0.1337  0.2453  0.1322
   24loPI   C4B  384   6.295   2.301   8.806  0.0427  0.4129  0.0768
   25loPI    C1  385  12.702   4.081  11.027 -0.0202  0.0073 -0.0133
   25loPI    C2  386  12.594   3.901  11.368 -0.0330 -0.0403 -0.0425
   25loPI    C3  387  12.759   4.265  11.378 -0.0337 -0.0415  0.0146
   25loPI   PO4  388  12.489   4.110  10.857 -0.0176  0.4179  0.2269
   25loPI   GL1  389  12.297   4.005  10.515 -0.1513 -0.1416 -0.2731
   25loPI   GL2  390  12.285   4.278  10.358 -0.0952 -0.1165 -0.1930
   25loPI   C1A  391  12.368   3.710  10.227  0.1858 -0.1217  0.0520
   25loPI   C2A  392  12.373   3.704   9.783 -0.0513 -0.2850 -0.1682
   25loPI   C3A  393  12.406   3.714   9.400  0.0587  0.2269 -0.0540
   25loPI   C4A  394  12.394   3.510   8.996  0.0032  0.1362 -0.1367
   25loPI   C5A  395  12.247   3.554   8.586 -0.1780 -0.0352 -0.2809
   25loPI   C6A  396  12.506   3.768   8.291  0.1405  0.1000  0.1391
   25loPI   C1B  397  12.325   4.202   9.947 -0.0147  0.2637 -0.2320
   25loPI   C2B  398  12.328   4.239   9.497  0.2245 -0.1175 -0.1560
   25loPI   C3B  399  12.274   4.198   9.074  0.1562  0.0735 -0.2970
   25loPI   C4B  400  12.184   4.148   8.657 -0.1926  0.1317  0.2234
   26loPI    C1  401  13.651   8.814  10.975 -0.0922  0.3512  0.0311
   26loPI    C2  402  13.962   8.883  11.217  0.0089 -0.2431  0.0861
   26loPI    C3  403  13.588   8.936  11.351  0.0747  0.1238  0.1352
   26loPI   PO4  404  13.704   8.986  10.758  0.2119 -0.1050  0.0714
   26loPI   GL1  405  13.718   8.864  10.395  0.1448  0.0236  0.1261
   26loPI   GL2  406  14.026   8.834  10.307  0.0801  0.1811 -0.2555
   26loPI   C1A  407  13.547   8.645  10.061  0.0873  0.0965  0.1003
   26loPI   C2A  408  13.575   8.565   9.678  0.0260  0.1151  0.1842
   26loPI   C3A  409  13.704   8.478   9.141 -0.1748  0.0097 -0.2159
   26loPI   C4A  410  13.552   8.514   8.751  0.2184 -0.1538  0.0511
   26loPI   C5A  411  13.511   8.419   8.326  0.2026  0.0791 -0.0088
   26loPI   C6A  412  13.503   7.962   8.317 -0.0642 -0.2742 -0.2774
   26loPI   C1B  413  14.055   8.819   9.823 -0.0667  0.0757  0.3892
   26loPI   C2B  414  13.950   8.771   9.391 -0.1440  0.2331 -0.2325
   26loPI   C3B  415  14.079   8.821   8.952 -0.0930  0.1167  0.2454
   26loPI   C4B  416  13.928   8.743   8.522  0.1113  0.0900  0.0786
   27loPI    C1  417   0.212  11.298  11.110 -0.1181  0.2016 -0.1510
   27loPI    C2  418   0.387  11.639  11.224 -0.1111  0.2300 -0.2468
   27loPI    C3  419   0.143  11.447  11.475  0.2599  0.0521 -0.0137
   27loPI   PO4  420   0.419  11.198  10.899  0.0923  0.2263  0.0176
   27loPI   GL1  421   0.423  11.285  10.442  0.1201 -0.0285 -0.0682
   27loPI   GL2  422   0.352  11.462  10.252 -0.1968 -0.1808  0.0640
   27loPI   C1A  423   0.545  10.993  10.045  0.2576  0.2293  0.0238
   27loPI   C2A  424   0.479  10.971   9.587 -0.0012  0.3677  0.4123
   27loPI   C3A  425   0.467  10.882   9.133  0.2301  0.1688 -0.0872
   27loPI   C4A  426   0.472  10.921   8.682  0.1135  0.0983  0.0519
   27loPI   C5A  427   0.537  10.836   8.213  0.5796  0.1429 -0.0445
   27loPI   C6A  428   0.578  10.397   7.968 -0.0038 -0.1335  0.4046
   27loPI   C1B  429   0.479  11.414   9.805  0.2734  0.1681 -0.0167
   27loPI   C2B  430   0.372  11.367   9.342  0.1046  0.0222 -0.2895
   27loPI   C3B  431   0.453  11.331   8.935 -0.1431 -0.3716  0.4669
   27loPI   C4B  432   0.335  11.479   8.536  0.2246  0.0126  0.1152
   28loPI    C1  433   8.493   7.612  11.001  0.0863 -0.1923 -0.2221
   28loPI    C2  434   8.823   7.470  11.177  0.0818  0.1379  0.0630
   28loPI    C3  435   8.494   7.244  11.157  0.2880 -0.1525 -0.1256
   28loPI   PO4  436   8.611   7.736  10.723  0.0451  0.0437  0.0624
   28loPI   GL1  437   8.520   7.552  10.318  0.0609 -0.1078  0.0208
   28loPI   GL2  438   8.756   7.717  10.267  0.0788  0.4289  0.0527
   28loPI   C1A  439   8.099   7.456   9.902  0.0280  0.1797 -0.0095
   28loPI   C2A  440   8.053   7.385   9.422  0.0462  0.0705  0.0603
   28loPI   C3A  441   8.066   7.346   8.995 -0.2373 -0.0190  0.0808
   28loPI   C4A  442   8.244   7.211   8.610 -0.1856 -0.1284  0.0162
   28loPI   C5A  443   8.345   7.436   8.197  0.0111  0.1183  0.1826
   28loPI   C6A  444   8.351   7.571   7.802 -0.0208 -0.0662  0.0358
   28loPI   C1B  445   8.584   7.734   9.864 -0.0757 -0.1633 -0.0297
   28loPI   C2B  446   8.499   7.670   9.358  0.1472  0.0180  0.1393
   28loPI   C3B  447   8.638   7.714   9.036 -0.3831 -0.0849 -0.1003
   28loPI   C4B  448   8.687   7.530   8.658  0.1298  0.1146  0.0291
   29loPI    C1  449   6.694  14.049  10.781 -0.0927 -0.1509  0.1912
   29loPI    C2  450   6.876  14.073  11.136  0.0738 -0.0907  0.1027
   29loPI    C3  451   6.790  13.715  10.980  0.2022 -0.1214  0.1018
   29loPI   PO4  452   6.802  14.258  10.658 -0.0616  0.0710 -0.2071
   29loPI   GL1  453   6.695  14.422  10.297  0.1351  0.1716 -0.0398
   29loPI   GL2  454   6.618  14.697  10.180 -0.0346  0.0297 -0.1917
   29loPI   C1A  455   6.857  14.285   9.928 -0.0266 -0.0536  0.1352
   29loPI   C2A  456   6.674  14.162   9.519  0.1840  0.2070 -0.0338
   29loPI   C3A  457   6.604  14.160   9.107  0.0434  0.0243  0.0490
   29loPI   C4A  458   6.612  14.067   8.674  0.1105 -0.1934  0.1359
   29loPI   C5A  459   6.672  14.009   8.253  0.1691 -0.1952 -0.0752
   29loPI   C6A  460   6.851  14.247   7.870 -0.1665 -0.2921  0.5592
   29loPI   C1B  461   6.586  14.718   9.699  0.1186  0.3454 -0.2710
   29loPI   C2B  462   6.598  14.676   9.204  0.2577 -0.1533  0.1981
   29loPI   C3B  463   6.562  14.588   8.785  0.1794  0.0310  0.1138
   29loPI   C4B  464   6.589  14.510   8.371 -0.0487  0.4282  0.0426
   30loPI    C1  465   4.377  13.481  10.889 -0.2581  0.1004  0.1028
   30loPI    C2  466   4.678  13.582  11.132  0.1634  0.1543 -0.4232
   30loPI    C3  467   4.452  13.263  11.216  0.1951  0.2644  0.1150
   30loPI   PO4  468   4.501  13.456  10.657  0.1062  0.1484  0.1291
   30loPI   GL1  469   4.740  13.439  10.290 -0.1268 -0.0910  0.0690
   30loPI   GL2  470   4.956  13.248  10.419 -0.0443  0.0102  0.2457
   30loPI   C1A  471   5.009  13.498   9.937  0.2039 -0.1079  0.0563
   30loPI   C2A  472   4.912  13.467   9.459  0.1340 -0.0177  0.0853
   30loPI   C3A  473   4.923  13.387   8.967  0.3498 -0.3513  0.0908
   30loPI   C4A  474   4.814  13.323   8.489 -0.0384  0.0969 -0.1672
   30loPI   C5A  475   4.828  13.047   8.216 -0.1550 -0.1174  0.0526
   30loPI   C6A  476   4.880  13.144   7.794 -0.2743 -0.0783 -0.1232
   30loPI   C1B  477   4.995  13.026  10.014  0.0101 -0.0408  0.1594
   30loPI   C2B  478   4.918  12.932   9.586  0.0104  0.1037 -0.1323
   30loPI   C3B  479   4.957  12.916   9.126 -0.0700 -0.2612 -0.0686
   30loPI   C4B  480   4.774  12.814   8.741 -0.0232  0.2705  0.2107
   31loPI    C1  481  12.866  10.210  10.976  0.1609 -0.0842  0.0108
   31loPI    C2  482  13.005  10.569  11.082  0.1001 -0.0605  0.0102
   31loPI    C3  483  13.238  10.246  11.119  0.3194  0.0419 -0.4204
   31loPI   PO4  484  12.829  10.235  10.731  0.0287  0.0480  0.0458
   31loPI   GL1  485  12.579  10.178  10.356  0.0460 -0.3112  0.1300
   31loPI   GL2  486  12.365   9.900  10.409 -0.0990 -0.0304  0.0774
   31loPI   C1A  487  12.695  10.352   9.921 -0.1420 -0.0450 -0.0114
   31loPI   C2A  488  12.857  10.369   9.416  0.1391 -0.0757 -0.1382
   31loPI   C3A  489  12.860  10.303   8.950  0.2345 -0.1710 -0.0661
   31loPI   C4A  490  12.878  10.217   8.534 -0.3453  0.1886 -0.1148
   31loPI   C5A  491  12.857   9.973   8.184 -0.3504  0.1198 -0.0185
   31loPI   C6A  492  13.033   9.667   7.846 -0.0692 -0.1925 -0.3034
   31loPI   C1B  493  12.306   9.977  10.036  0.1428  0.2057 -0.1790
   31loPI   C2B  494  12.345   9.999   9.661  0.1048  0.0787 -0.3153
   31loPI   C3B  495  12.463   9.981   9.308 -0.3187 -0.3058 -0.0194
   31loPI   C4B  496  12.389  10.128   8.895 -0.0338 -0.3892 -0.0969
   32loPI    C1  497   4.530  16.057  11.043 -0.0204  0.0285  0.0185
   32loPI    C2  498   4.614  15.667  11.068  0.0286  0.0251 -0.1811
   32loPI    C3  499   4.544  15.878  11.401  0.2696 -0.0946 -0.0511
   32loPI   PO4  500   4.242  16.105  10.838 -0.2082  0.2872 -0.0983
   32loPI   GL1  501   4.112  16.071  10.458 -0.0067  0.0527  0.0622
   32loPI   GL2  502   4.031  15.792  10.316 -0.1006 -0.0480 -0.3460
   32loPI   C1A  503   4.178  16.208  10.117 -0.1432 -0.1646  0.1014
   32loPI   C2A  504   4.128  16.325   9.667 -0.3560  0.0966  0.0760
   32loPI   C3A  505   4.152  16.196   9.176 -0.0774 -0.0518  0.0716
   32loPI   C4A  506   4.086  16.138   8.745  0.0308  0.1313  0.1503
   32loPI   C5A  507   3.995  16.178   8.330  0.0500 -0.0486  0.2868
   32loPI   C6A  508   3.989  16.061   7.845  0.2509  0.1241 -0.1134
   32loPI   C1B  509   4.155  15.795   9.866 -0.1435  0.3507 -0.2583
   32loPI   C2B  510   4.203  15.785   9.402  0.2128  0.2989 -0.0189
   32loPI   C3B  511   4.163  15.721   8.974 -0.2282  0.2881  0.0207
   32loPI   C4B  512   4.092  15.696   8.504 -0.0868 -0.1323  0.0702
   33loPI    C1  513  12.731   2.283  11.505  0.1998  0.0835  0.0747
   33loPI    C2  514  12.527   2.627  11.480 -0.2472 -0.1707  0.1136
   33loPI    C3  515  12.580   2.451  11.836  0.0244 -0.1200  0.1005
   33loPI   PO4  516  12.937   2.382  11.285 -0.3750  0.0833 -0.1385
   33loPI   GL1  517  12.996   2.653  10.849 -0.0475  0.2380  0.2978
   33loPI   GL2  518  13.335   2.533  10.765 -0.0737 -0.1834  0.0239
   33loPI   C1A  519  12.836   2.801  10.478  0.2842  0.0236 -0.0064
   33loPI   C2A  520  12.896   2.861  10.006 -0.1348 -0.0779  0.0375
   33loPI   C3A  521  12.944   2.921   9.615  0.1918 -0.1545 -0.0651
   33loPI   C4A  522  12.925   2.914   9.273  0.0811 -0.0588 -0.1252
   33loPI   C5A  523  12.850   2.909   8.805 -0.0864  0.2086 -0.2732
   33loPI   C6A  524  12.858   3.032   8.341  0.0144 -0.2635 -0.2284
   33loPI   C1B  525  13.328   2.745  10.319 -0.1086  0.3161  0.0412
   33loPI   C2B  526  13.441   2.751   9.935 -0.1743 -0.1539 -0.0256
   33loPI   C3B  527  13.466   2.784   9.534  0.1617 -0.2064 -0.0675
   33loPI   C4B  528  13.410   2.646   9.196  0.1044 -0.2576  0.2346
   34loPI    C1  529   1.330  11.286  11.064 -0.0533 -0.0934  0.0970
   34loPI    C2  530   1.665  11.134  11.220  0.1119  0.1672  0.0016
   34loPI    C3  531   1.442  11.388  11.434  0.0580  0.1158  0.0067
   34loPI   PO4  532   1.366  11.250  10.858  0.0182  0.2938  0.0230
   34loPI   GL1  533   1.542  11.015  10.556  0.1429 -0.0535 -0.1244
   34loPI   GL2  534   1.218  11.000  10.436  0.0961  0.1013 -0.0229
   34loPI   C1A  535   1.739  11.269  10.200 -0.0712  0.0259 -0.1779
   34loPI   C2A  536   1.723  11.259   9.813 -0.1129 -0.0388 -0.1549
   34loPI   C3A  537   1.703  11.169   9.408 -0.2025 -0.1378 -0.1745
   34loPI   C4A  538   1.888  11.194   9.000  0.0307  0.0727 -0.1686
   34loPI   C5A  539   1.914  11.139   8.591 -0.1206 -0.0427 -0.1860
   34loPI   C6A  540   1.670  11.105   8.305 -0.2113 -0.1781 -0.0259
   34loPI   C1B  541   1.363  10.926   9.975  0.2810 -0.1106  0.0410
   34loPI   C2B  542   1.306  10.907   9.562 -0.0523 -0.0219  0.0155
   34loPI   C3B  543   1.377  10.943   9.112 -0.0560  0.1384  0.2372
   34loPI   C4B  544   1.512  10.972   8.741  0.0111  0.0189 -0.0625
   35loPI    C1  545  15.878   6.073  11.144 -0.1668  0.1799 -0.1419
   35loPI    C2  546  15.509   6.157  11.272 -0.1067  0.1563  0.0502
   35loPI    C3  547  15.814   6.154  11.530 -0.0261 -0.1559 -0.0444
   35loPI   PO4  548  15.820   6.091  10.869 -0.3745  0.1087 -0.1331
   35loPI   GL1  549  15.835   6.286  10.464  0.1331  0.0884 -0.1291
   35loPI   GL2  550  15.679   6.089  10.364 -0.2143  0.1455 -0.1222
   35loPI   C1A  551  15.994   6.457  10.122 -0.3152 -0.1292 -0.0334
   35loPI   C2A  552  16.088   6.534   9.643 -0.0526  0.0460 -0.0969
   35loPI   C3A  553  16.127   6.473   9.242 -0.0932  0.0155 -0.1132
   35loPI   C4A  554  16.013   6.474   8.819 -0.0184  0.2329  0.1894
   35loPI   C5A  555  16.045   6.507   8.373 -0.6293  0.1366  0.1851
   35loPI   C6A  556  16.372   6.573   8.102 -0.1811  0.0668  0.0082
   35loPI   C1B  557  15.750   6.108   9.867  0.2105 -0.0345 -0.0842
   35loPI   C2B  558  15.764   6.174   9.504 -0.1215 -0.0478 -0.0697
   35loPI   C3B  559  15.743   6.147   9.043 -0.0193  0.0570 -0.2245
   35loPI   C4B  560  15.650   6.133   8.582  0.2700 -0.0871 -0.3649
   36loPI    C1  561  11.997   9.427  10.801  0.1455  0.2143 -0.0015
   36loPI    C2  562  12.146   9.633  11.110  0.0520  0.1816  0.0657
   36loPI    C3  563  11.767   9.505  11.119  0.0539  0.1665 -0.0557
   36loPI   PO4  564  12.197   9.470  10.635  0.1418 -0.0272 -0.0372
   36loPI   GL1  565  12.566   9.407  10.325 -0.0428  0.0777 -0.0278
   36loPI   GL2  566  12.509   9.075  10.172  0.0586  0.0176 -0.1596
   36loPI   C1A  567  12.422   9.482   9.840  0.0386  0.1042 -0.0171
   36loPI   C2A  568  12.508   9.504   9.440 -0.2512 -0.0610 -0.0611
   36loPI   C3A  569  12.532   9.448   9.082 -0.3399  0.2953 -0.1749
   36loPI   C4A  570  12.517   9.446   8.607  0.3154  0.2462 -0.0492
   36loPI   C5A  571  12.785   9.364   8.282  0.0093 -0.2057 -0.0373
   36loPI   C6A  572  12.777   9.272   7.809  0.0593  0.2189  0.0922
   36loPI   C1B  573  12.671   9.033   9.831  0.1802 -0.2841 -0.1881
   36loPI   C2B  574  12.582   8.940   9.466  0.5734  0.2121 -0.0897
   36loPI   C3B  575  12.591   8.929   8.973  0.0237 -0.1280  0.1383
   36loPI   C4B  576  12.596   8.955   8.539 -0.1152  0.1064  0.4293
   37loPI    C1  577   5.202   0.038  11.132  0.0230  0.1840  0.3215
   37loPI    C2  578   5.563  -0.133  11.135 -0.0161  0.0956  0.1382
   37loPI    C3  579   5.416   0.029  11.470  0.1493  0.0410  0.2388
   37loPI   PO4  580   5.186   0.177  10.860 -0.3241 -0.1478  0.0807
   37loPI   GL1  581   4.941   0.151  10.412  0.0982 -0.2956  0.2463
   37loPI   GL2  582   5.120   0.426  10.317  0.1875 -0.0131  0.0672
   37loPI   C1A  583   4.791   0.011   9.980  0.0595  0.1678  0.2654
   37loPI   C2A  584   4.718  -0.006   9.608 -0.0330 -0.0021 -0.0869
   37loPI   C3A  585   4.711  -0.058   9.179  0.0622  0.0237 -0.0307
   37loPI   C4A  586   4.682   0.011   8.786  0.1112  0.1680 -0.1488
   37loPI   C5A  587   4.846  -0.024   8.441  0.4449 -0.0708 -0.1155
   37loPI   C6A  588   4.941   0.378   8.223 -0.0632 -0.0697 -0.2950
   37loPI   C1B  589   5.152   0.412   9.920 -0.4216 -0.0809  0.1187
   37loPI   C2B  590   5.147   0.392   9.584 -0.0895  0.1359 -0.2745
   37loPI   C3B  591   5.103   0.335   9.085  0.3234  0.1565 -0.2483
   37loPI   C4B  592   5.201   0.373   8.671 -0.0343 -0.1551 -0.0766
   38loPI    C1  593   4.833  11.896  10.780 -0.1390  0.0398  0.0610
   38loPI    C2  594   4.458  11.935  10.913 -0.0582  0.1529  0.2595
   38loPI    C3  595   4.765  12.037  11.148  0.1005 -0.0229  0.1308
   38loPI   PO4  596   4.739  11.910  10.513  0.2812  0.0450  0.2979
   38loPI   GL1  597   4.771  11.973  10.110  0.0379  0.1160 -0.4728
   38loPI   GL2  598   4.563  12.238  10.109  0.0407  0.0787  0.0398
   38loPI   C1A  599   4.956  11.994   9.763  0.0253 -0.0618  0.0741
   38loPI   C2A  600   4.884  11.887   9.357 -0.1423  0.0922 -0.1903
   38loPI   C3A  601   4.940  11.728   8.916 -0.0829 -0.2606  0.1849
   38loPI   C4A  602   5.089  11.812   8.560 -0.1733  0.0799 -0.1701
   38loPI   C5A  603   5.136  12.129   8.289 -0.1698  0.2598  0.0481
   38loPI   C6A  604   4.652  12.054   8.031 -0.1478  0.2040  0.2026
   38loPI   C1B  605   4.461  12.200   9.690 -0.1178 -0.1533 -0.2670
   38loPI   C2B  606   4.500  12.197   9.330  0.0833 -0.0674  0.1480
   38loPI   C3B  607   4.419  12.034   8.961  0.0085 -0.3571 -0.4023
   38loPI   C4B  608   4.575  11.940   8.571  0.2644  0.3035 -0.1341
   39loPI    C1  609   1.698  16.267  10.805  0.1204 -0.0915 -0.2476
   39loPI    C2  610   1.944  16.125  11.087 -0.0549 -0.0742 -0.0831
   39loPI    C3  611   1.556  16.028  11.093 -0.1655  0.3534 -0.0081
   39loPI   PO4  612   1.846  16.301  10.648  0.0953 -0.2186  0.2369
   39loPI   GL1  613   1.811  16.303  10.292 -0.1118 -0.0179 -0.1069
   39loPI   GL2  614   1.539  15.987  10.250  0.1049  0.2921 -0.4487
   39loPI   C1A  615   1.815  16.234   9.844 -0.1305 -0.0566  0.0580
   39loPI   C2A  616   1.788  16.249   9.333  0.2120 -0.1132  0.1141
   39loPI   C3A  617   1.759  16.273   8.894 -0.0363  0.2109 -0.3907
   39loPI   C4A  618   1.784  16.426   8.425 -0.0101  0.0161 -0.0587
   39loPI   C5A  619   2.176  16.698   8.289 -0.4072  0.2341 -0.0422
   39loPI   C6A  620   2.623  16.573   8.270  0.0023 -0.2555  0.0502
   39loPI   C1B  621   1.417  15.893   9.794 -0.1915 -0.1415 -0.2104
   39loPI   C2B  622   1.358  15.920   9.414 -0.1668  0.0150  0.1596
   39loPI   C3B  623   1.351  15.901   8.991  0.0591  0.2357 -0.1327
   39loPI   C4B  624   1.426  15.999   8.560  0.4468  0.1179 -0.1499
   40loPI    C1  625   9.086   0.288  10.795 -0.0179 -0.0356  0.0130
   40loPI    C2  626   9.308   0.284  11.127 -0.1814 -0.0957  0.1232
   40loPI    C3  627   8.971   0.070  11.110 -0.2001 -0.0529 -0.0640
   40loPI   PO4  628   9.267   0.356  10.618  0.0749 -0.0536 -0.1156
   40loPI   GL1  629   9.271   0.552  10.219 -0.1811 -0.0139 -0.0526
   40loPI   GL2  630   9.168   0.204  10.137 -0.0329 -0.0898 -0.0567
   40loPI   C1A  631   9.085   0.618   9.826  0.1696 -0.1271 -0.0162
   40loPI   C2A  632   9.247   0.557   9.469 -0.0373  0.3450  0.2067
   40loPI   C3A  633   9.120   0.596   9.004 -0.0106 -0.0241 -0.1067
   40loPI   C4A  634   9.224   0.588   8.624 -0.4023  0.1765 -0.0095
   40loPI   C5A  635   9.447   0.854   8.332 -0.1910  0.0473  0.3155
   40loPI   C6A  636   9.380   1.121   8.056  0.0346 -0.3134 -0.0948
   40loPI   C1B  637   9.295   0.021   9.743 -0.0706 -0.2053  0.1934
   40loPI   C2B  638   9.185   0.088   9.285 -0.0016  0.0894 -0.2451
   40loPI   C3B  639   9.326   0.151   8.901  0.1090 -0.1236 -0.2348
   40loPI   C4B  640   9.363  -0.099   8.517  0.1276  0.3774  0.2848
   41loPI    C1  641   1.376  10.259  11.080  0.2141 -0.0564 -0.0170
   41loPI    C2  642   1.253   9.947  11.297 -0.0678  0.0937  0.0440
   41loPI    C3  643   1.527  10.197  11.445  0.0104 -0.0110  0.0769
   41loPI   PO4  644   1.449  10.211  10.878  0.2757  0.0385  0.2842
   41loPI   GL1  645   1.681  10.386  10.604 -0.0801 -0.1724  0.3735
   41loPI   GL2  646   1.835  10.207  10.314 -0.0012  0.1197  0.3959
   41loPI   C1A  647   1.448  10.493  10.226 -0.2963 -0.0878 -0.1523
   41loPI   C2A  648   1.461  10.494   9.762 -0.1723 -0.3448 -0.1085
   41loPI   C3A  649   1.465  10.433   9.321  0.0797  0.1562  0.1113
   41loPI   C4A  650   1.423  10.465   8.897  0.1394 -0.0485 -0.0615
   41loPI   C5A  651   1.594  10.275   8.414  0.1479  0.0096  0.1776
   41loPI   C6A  652   1.851   9.948   8.223  0.1632 -0.2364 -0.4611
   41loPI   C1B  653   1.899  10.287   9.953 -0.1078  0.1280  0.1568
   41loPI   C2B  654   1.843  10.191   9.550  0.1043  0.0243  0.0252
   41loPI   C3B  655   1.919  10.226   9.142  0.0715  0.1563  0.0962
   41loPI   C4B  656   1.970  10.233   8.705 -0.2182  0.0236 -0.0833
   42loPI    C1  657  11.642   2.453  11.050 -0.0013 -0.0397  0.1666
   42loPI    C2  658  11.448   2.722  11.272  0.0232  0.1304 -0.0152
   42loPI    C3  659  11.847   2.729  11.253  0.0392 -0.0899  0.1944
   42loPI   PO4  660  11.578   2.484  10.792 -0.2942  0.3220 -0.3656
   42loPI   GL1  661  11.563   2.242  10.428 -0.1338  0.0653 -0.0515
   42loPI   GL2  662  11.545   1.942  10.339  0.0214  0.3627 -0.0835
   42loPI   C1A  663  11.256   2.227   9.976  0.2190 -0.1648 -0.2925
   42loPI   C2A  664  11.244   2.198   9.499 -0.0560 -0.1759  0.1818
   42loPI   C3A  665  11.340   2.165   9.040  0.2144 -0.2214  0.0252
   42loPI   C4A  666  11.253   2.182   8.537  0.2776 -0.0666 -0.3860
   42loPI   C5A  667  11.317   2.083   8.128 -0.0198  0.0004  0.0539
   42loPI   C6A  668  11.370   2.051   7.658  0.0312  0.2208  0.0023
   42loPI   C1B  669  11.669   1.944   9.932  0.1324 -0.0391  0.0413
   42loPI   C2B  670  11.682   1.983   9.484 -0.1891  0.0669 -0.3324
   42loPI   C3B  671  11.774   1.940   9.079  0.0422  0.1014 -0.3467
   42loPI   C4B  672  11.698   1.852   8.628 -0.0435  0.0868 -0.0953
   43loPI    C1  673  15.538   1.029  11.410  0.0109  0.2193 -0.0310
   43loPI    C2  674  15.515   1.429  11.427 -0.1241  0.2033  0.2180
   43loPI    C3  675  15.627   1.221  11.750  0.1088  0.0481  0.0409
   43loPI   PO4  676  15.619   0.954  11.105 -0.0511 -0.1636  0.0032
   43loPI   GL1  677  15.696   0.959  10.708 -0.0197 -0.3423  0.0424
   43loPI   GL2  678  15.845   1.259  10.702 -0.0871 -0.0906 -0.1837
   43loPI   C1A  679  15.360   0.892  10.422  0.2434  0.2538 -0.0707
   43loPI   C2A  680  15.378   0.889   9.909 -0.2563 -0.0365  0.0874
   43loPI   C3A  681  15.388   0.914   9.447 -0.0916 -0.0646 -0.2639
   43loPI   C4A  682  15.302   0.920   8.997  0.2787  0.0304 -0.1270
   43loPI   C5A  683  15.343   0.634   8.706 -0.1682 -0.0347  0.0293
   43loPI   C6A  684  15.568   0.527   8.277 -0.2976 -0.1067 -0.1726
   43loPI   C1B  685  15.776   1.203  10.296  0.1093  0.2936  0.1688
   43loPI   C2B  686  15.770   1.178   9.874 -0.2499  0.5778  0.0475
   43loPI   C3B  687  15.774   1.259   9.516  0.1656  0.0703 -0.2785
   43loPI   C4B  688  15.946   1.243   9.074  0.1784 -0.2018 -0.1696
   44loPI    C1  689  14.987   5.036  11.519 -0.0778  0.0547  0.0878
   44loPI    C2  690  15.278   5.101  11.786  0.1524  0.0069 -0.1472
   44loPI    C3  691  15.000   4.822  11.857  0.1625  0.0522  0.0788
   44loPI   PO4  692  15.078   4.947  11.295 -0.1344  0.0017  0.0853
   44loPI   GL1  693  15.134   4.904  10.886 -0.2979  0.1524  0.0267
   44loPI   GL2  694  15.303   5.267  10.672 -0.0891  0.0239  0.0620
   44loPI   C1A  695  14.970   4.985  10.463  0.1382 -0.0790  0.2943
   44loPI   C2A  696  14.864   5.055   9.932  0.1330 -0.0288 -0.0585
   44loPI   C3A  697  14.872   5.021   9.462 -0.0904  0.2376 -0.1135
   44loPI   C4A  698  14.887   4.893   9.028  0.2027  0.1687 -0.2112
   44loPI   C5A  699  15.027   5.063   8.573 -0.0424 -0.0746 -0.0208
   44loPI   C6A  700  15.021   5.431   8.326 -0.1503 -0.0389  0.0298
   44loPI   C1B  701  15.307   5.340  10.247 -0.3314 -0.0907  0.3519
   44loPI   C2B  702  15.328   5.289   9.802 -0.1376  0.0185  0.4044
   44loPI   C3B  703  15.360   5.241   9.407 -0.0003  0.1829 -0.5391
   44loPI   C4B  704  15.301   5.275   8.949  0.1919  0.1490  0.1276
   45loPI    C1  705  10.208   5.072  11.048  0.2072  0.1258  0.2926
   45loPI    C2  706   9.926   4.901  11.275  0.0549  0.0090  0.0202
   45loPI    C3  707  10.302   4.929  11.410 -0.0604  0.0619  0.3392
   45loPI   PO4  708  10.053   5.121  10.858 -0.4407  0.3396 -0.0681
   45loPI   GL1  709  10.013   5.362  10.575 -0.0237  0.0077 -0.2411
   45loPI   GL2  710  10.285   5.465  10.439 -0.2385 -0.0087  0.0188
   45loPI   C1A  711   9.975   5.182  10.177 -0.1781  0.1545 -0.1677
   45loPI   C2A  712   9.995   5.152   9.748 -0.0920  0.3981 -0.1396
   45loPI   C3A  713   9.970   5.110   9.370 -0.1861 -0.0845 -0.0061
   45loPI   C4A  714  10.049   5.091   8.930  0.0722 -0.0374  0.0483
   45loPI   C5A  715  10.028   5.024   8.435 -0.0562  0.6361 -0.0581
   45loPI   C6A  716  10.026   4.578   8.177  0.0575  0.0517  0.0288
   45loPI   C1B  717  10.374   5.505   9.988 -0.1801 -0.1310 -0.0430
   45loPI   C2B  718  10.381   5.427   9.590 -0.1566 -0.2589  0.1477
   45loPI   C3B  719  10.415   5.478   9.180  0.0535  0.2505  0.1869
   45loPI   C4B  720  10.484   5.580   8.804  0.0997 -0.0807 -0.0551
   46loPI    C1  721  17.784  11.783  11.205  0.2188  0.0498  0.1913
   46loPI    C2  722  17.396  11.816  11.295  0.1653 -0.1834  0.0528
   46loPI    C3  723  17.666  11.768  11.587  0.0753 -0.1637  0.1399
   46loPI   PO4  724  17.807  11.724  10.956 -0.2259  0.0068 -0.0300
   46loPI   GL1  725  17.813  11.514  10.621  0.0487  0.2558  0.0633
   46loPI   GL2  726  17.612  11.245  10.688  0.0424  0.3063 -0.2640
   46loPI   C1A  727  17.739  11.605  10.149  0.2209 -0.0226  0.1429
   46loPI   C2A  728  17.821  11.600   9.812 -0.1495  0.0497  0.1045
   46loPI   C3A  729  17.794  11.625   9.375 -0.2032 -0.1858  0.2214
   46loPI   C4A  730  17.809  11.679   8.962  0.0913 -0.0111 -0.1507
   46loPI   C5A  731  17.566  11.629   8.616  0.0852 -0.1464  0.1486
   46loPI   C6A  732  17.146  11.583   8.548 -0.1268 -0.0412  0.3807
   46loPI   C1B  733  17.376  11.247  10.305  0.0358  0.0134 -0.0868
   46loPI   C2B  734  17.409  11.308   9.762 -0.3070 -0.1058  0.1866
   46loPI   C3B  735  17.406  11.341   9.355 -0.1512 -0.0169  0.1477
   46loPI   C4B  736  17.357  11.326   8.949  0.0327 -0.1444  0.2166
   47loPI    C1  737  14.607  16.137  11.420 -0.2447  0.2235 -0.0446
   47loPI    C2  738  14.330  16.110  11.707  0.0069 -0.0319  0.1806
   47loPI    C3  739  14.700  16.230  11.798  0.0805 -0.0846 -0.0438
   47loPI   PO4  740  14.526  16.172  11.240 -0.1372 -0.2149  0.0502
   47loPI   GL1  741  14.509  16.076  10.790 -0.0149  0.0173 -0.0863
   47loPI   GL2  742  14.756  16.012  10.650  0.0678  0.0738  0.0483
   47loPI   C1A  743  14.365  16.169  10.319 -0.0569 -0.0036  0.2733
   47loPI   C2A  744  14.287  16.161   9.947 -0.0543 -0.2239 -0.2610
   47loPI   C3A  745  14.310  16.221   9.593  0.1392 -0.0748  0.1931
   47loPI   C4A  746  14.211  16.186   9.158 -0.1045 -0.0022 -0.1125
   47loPI   C5A  747  14.227  16.146   8.771 -0.2660 -0.1120 -0.2163
   47loPI   C6A  748  13.933  15.940   8.477  0.0649  0.1648  0.0489
   47loPI   C1B  749  14.803  15.947  10.118 -0.0108  0.0832 -0.0676
   47loPI   C2B  750  14.731  16.031   9.684  0.2639  0.0016 -0.2554
   47loPI   C3B  751  14.690  15.998   9.296 -0.1179  0.0453  0.1846
   47loPI   C4B  752  14.693  16.047   8.861  0.2416  0.1379  0.0442
   48loPI    C1  753  14.029   2.507  11.454  0.0123  0.1710 -0.1792
   48loPI    C2  754  13.755   2.352  11.701 -0.1082  0.2788 -0.2440
   48loPI    C3  755  14.079   2.532  11.850 -0.0669  0.1420 -0.1672
   48loPI   PO4  756  13.882   2.561  11.231  0.1011 -0.3477 -0.0668
   48loPI   GL1  757  13.866   2.290  10.927  0.0969  0.0332  0.0742
   48loPI   GL2  758  13.764   1.928  10.841 -0.0522  0.1474 -0.0450
   48loPI   C1A  759  13.852   2.419  10.569  0.0404  0.3297  0.1729
   48loPI   C2A  760  13.711   2.431  10.187 -0.1052  0.0754 -0.2516
   48loPI   C3A  761  13.891   2.580   9.752 -0.2971 -0.2191  0.1165
   48loPI   C4A  762  13.878   2.659   9.296  0.0546  0.0178 -0.0257
   48loPI   C5A  763  14.140   2.792   8.922 -0.1817  0.3962  0.1051
   48loPI   C6A  764  14.254   2.667   8.529 -0.4389 -0.0330  0.0091
   48loPI   C1B  765  13.888   1.952  10.414 -0.0296  0.0181  0.1431
   48loPI   C2B  766  13.959   2.021   9.924  0.1471 -0.1028  0.1463
   48loPI   C3B  767  13.571   2.140   9.726 -0.1634 -0.3965  0.0724
   48loPI   C4B  768  13.536   2.239   9.366  0.2077  0.0155  0.2029
   49loPI    C1  769   3.407   5.397  11.228  0.3055 -0.1917  0.1347
   49loPI    C2  770   3.516   5.497  11.600  0.0169 -0.3781  0.2730
   49loPI    C3  771   3.176   5.295  11.538 -0.0051 -0.2342 -0.1052
   49loPI   PO4  772   3.471   5.512  11.066 -0.0520  0.0164 -0.0434
   49loPI   GL1  773   3.469   5.747  10.687 -0.0990 -0.0627 -0.1016
   49loPI   GL2  774   3.196   5.632  10.699  0.1270 -0.0926  0.2892
   49loPI   C1A  775   3.602   5.910  10.232 -0.3660  0.0812 -0.1496
   49loPI   C2A  776   3.668   5.979   9.866  0.0051  0.1456  0.1086
   49loPI   C3A  777   3.536   6.006   9.504  0.2497 -0.2383  0.1862
   49loPI   C4A  778   3.601   5.904   9.147  0.0401 -0.0044 -0.1141
   49loPI   C5A  779   3.725   6.025   8.772  0.0545 -0.4401  0.1134
   49loPI   C6A  780   3.657   5.987   8.328 -0.1887  0.3680  0.0069
   49loPI   C1B  781   3.240   5.533  10.292 -0.1317  0.1467  0.3021
   49loPI   C2B  782   3.211   5.651   9.851 -0.0255 -0.0203  0.1280
   49loPI   C3B  783   3.186   5.651   9.329 -0.0284 -0.0640  0.0594
   49loPI   C4B  784   3.263   5.666   8.823 -0.0142  0.1284  0.0211
   50loPI    C1  785  13.763   9.351  11.111  0.0177 -0.0093  0.0554
   50loPI    C2  786  13.707   9.593  11.425  0.0377 -0.1091  0.1364
   50loPI    C3  787  14.023   9.348  11.415  0.1941  0.0965 -0.0919
   50loPI   PO4  788  13.735   9.523  10.917  0.0561 -0.0079 -0.0976
   50loPI   GL1  789  13.565   9.456  10.509  0.2406 -0.2849  0.1288
   50loPI   GL2  790  13.765   9.588  10.316  0.0216  0.1290  0.1518
   50loPI   C1A  791  13.487   9.219  10.142 -0.1890 -0.3215 -0.2211
   50loPI   C2A  792  13.568   9.119   9.815 -0.2315 -0.2746 -0.2033
   50loPI   C3A  793  13.503   9.021   9.424  0.3253  0.0313  0.2709
   50loPI   C4A  794  13.555   8.978   8.995  0.1165  0.2191  0.0456
   50loPI   C5A  795  13.530   8.975   8.695 -0.1915 -0.1811  0.0887
   50loPI   C6A  796  13.668   8.989   8.190 -0.0189  0.2878 -0.1678
   50loPI   C1B  797  13.927   9.557   9.944 -0.2656  0.0669 -0.0084
   50loPI   C2B  798  13.905   9.467   9.523  0.2467  0.0236 -0.2484
   50loPI   C3B  799  13.812   9.418   9.102 -0.1008 -0.2111 -0.4156
   50loPI   C4B  800  13.949   9.239   8.702  0.0339  0.0328 -0.2302
   51loPI    C1  801   0.642   6.250  11.283  0.0448 -0.1659 -0.0851
   51loPI    C2  802   0.720   6.507  11.580 -0.0412  0.0437 -0.2417
   51loPI    C3  803   0.393   6.277  11.595 -0.2122  0.2782 -0.3195
   51loPI   PO4  804   0.620   6.366  11.010  0.1433  0.1706 -0.1294
   51loPI   GL1  805   0.848   6.437  10.653 -0.0630 -0.0449  0.1573
   51loPI   GL2  806   0.566   6.557  10.461  0.0235 -0.2220  0.0287
   51loPI   C1A  807   1.008   6.286  10.286  0.3325 -0.1751  0.1104
   51loPI   C2A  808   0.993   6.205   9.916 -0.0621 -0.0127 -0.2816
   51loPI   C3A  809   0.919   6.325   9.524 -0.0618 -0.1999  0.0207
   51loPI   C4A  810   0.913   6.226   9.130 -0.0143 -0.1466  0.0997
   51loPI   C5A  811   0.967   6.205   8.496 -0.0680  0.0572  0.1704
   51loPI   C6A  812   0.859   6.287   8.091  0.3552 -0.4117  0.0618
   51loPI   C1B  813   0.530   6.440  10.048  0.1855 -0.0815  0.3410
   51loPI   C2B  814   0.442   6.458   9.642  0.0800  0.0201 -0.0672
   51loPI   C3B  815   0.453   6.467   9.190 -0.0243  0.0175 -0.0108
   51loPI   C4B  816   0.426   6.521   8.830  0.1344 -0.0900  0.1389
   52loPI    C1  817  13.664   0.465  11.695 -0.0396 -0.0148 -0.0086
   52loPI    C2  818  13.829   0.167  11.905  0.1214  0.0823  0.0043
   52loPI    C3  819  13.551   0.400  12.073  0.1130  0.0413  0.0477
   52loPI   PO4  820  13.575   0.416  11.538  0.1687  0.0801  0.3914
   52loPI   GL1  821  13.733   0.360  11.124 -0.1294  0.0711  0.1028
   52loPI   GL2  822  13.950   0.301  10.975 -0.0007 -0.0606  0.1973
   52loPI   C1A  823  13.607   0.480  10.698  0.1086 -0.1598 -0.0196
   52loPI   C2A  824  13.571   0.514  10.213 -0.1081 -0.1546 -0.1189
   52loPI   C3A  825  13.619   0.626   9.745  0.0536 -0.0873 -0.1215
   52loPI   C4A  826  13.577   0.661   9.244  0.2142  0.1026  0.2764
   52loPI   C5A  827  13.755   0.593   8.891 -0.0348 -0.0603 -0.1706
   52loPI   C6A  828  14.291   0.466   8.747 -0.0190 -0.0290  0.0913
   52loPI   C1B  829  14.104   0.433  10.572 -0.2955 -0.2785  0.0691
   52loPI   C2B  830  14.110   0.364  10.168 -0.1484  0.2689 -0.1838
   52loPI   C3B  831  14.054   0.447   9.760 -0.0436 -0.0103 -0.0246
   52loPI   C4B  832  14.156   0.401   9.308  0.0543  0.2373 -0.0043
   53loPI    C1  833   1.478   6.742  11.335  0.0767  0.0174  0.2926
   53loPI    C2  834   1.473   6.838  11.723  0.0970 -0.1659  0.3391
   53loPI    C3  835   1.129   6.775  11.529  0.0535  0.4913  0.1811
   53loPI   PO4  836   1.731   6.903  11.202  0.2315  0.2473  0.0259
   53loPI   GL1  837   1.741   6.967  10.763  0.3804 -0.0436  0.0005
   53loPI   GL2  838   1.459   7.122  10.559  0.2125 -0.1368 -0.3186
   53loPI   C1A  839   1.843   6.804  10.397 -0.2508  0.1276  0.2728
   53loPI   C2A  840   1.833   6.860  10.003  0.0058 -0.0080 -0.1195
   53loPI   C3A  841   1.757   6.903   9.675 -0.0568  0.2152  0.0280
   53loPI   C4A  842   1.778   6.796   9.290 -0.0823  0.0753  0.2764
   53loPI   C5A  843   1.731   6.810   8.786  0.0487  0.1056  0.0203
   53loPI   C6A  844   1.966   7.144   8.521  0.0754 -0.0925  0.3653
   53loPI   C1B  845   1.367   7.022  10.052  0.0378  0.0019 -0.0972
   53loPI   C2B  846   1.316   7.085   9.609  0.3239 -0.1596  0.0980
   53loPI   C3B  847   1.281   7.035   9.215  0.3519 -0.3510 -0.0401
   53loPI   C4B  848   1.295   7.056   8.758  0.3434 -0.4347  0.1682
   54loPI    C1  849  11.403   3.959  11.184  0.0673 -0.1060 -0.1054
   54loPI    C2  850  11.305   3.679  11.453  0.1511  0.0633  0.1040
   54loPI    C3  851  11.683   3.711  11.327  0.1507  0.1105  0.1142
   54loPI   PO4  852  11.277   3.917  10.984 -0.1145 -0.1401 -0.2055
   54loPI   GL1  853  11.232   4.041  10.704 -0.0139  0.1370  0.3374
   54loPI   GL2  854  11.028   3.818  10.496  0.3820 -0.1510  0.1922
   54loPI   C1A  855  11.360   4.057  10.248 -0.3279  0.1181  0.1740
   54loPI   C2A  856  11.511   4.130   9.879  0.1493  0.0199  0.0081
   54loPI   C3A  857  11.456   4.082   9.437 -0.2156  0.4793  0.0074
   54loPI   C4A  858  11.427   4.011   8.993 -0.1045  0.2996 -0.1028
   54loPI   C5A  859  11.393   4.130   8.602 -0.0191  0.2848 -0.2252
   54loPI   C6A  860  11.701   4.251   8.276  0.1692 -0.3460  0.2074
   54loPI   C1B  861  11.030   3.812  10.043  0.1795  0.0009  0.0897
   54loPI   C2B  862  11.149   3.814   9.619 -0.0776  0.0305  0.1113
   54loPI   C3B  863  11.001   3.695   9.258  0.2346  0.2220 -0.1238
   54loPI   C4B  864  10.888   3.753   8.801  0.3309 -0.0271 -0.2938
   55loPI    C1  865   9.454   5.129  11.041 -0.2274 -0.0375 -0.0737
   55loPI    C2  866   9.286   5.486  11.109  0.1652  0.1627 -0.1198
   55loPI    C3  867   9.477   5.295  11.405 -0.1958 -0.0990 -0.0474
   55loPI   PO4  868   9.487   5.217  10.697  0.3433  0.1641  0.2809
   55loPI   GL1  869   9.385   5.516  10.317  0.0907  0.2732 -0.1796
   55loPI   GL2  870   9.225   5.283  10.293  0.3219  0.1411 -0.0313
   55loPI   C1A  871   9.582   5.352   9.968  0.0171  0.2502  0.1370
   55loPI   C2A  872   9.532   5.264   9.585  0.2261  0.3334  0.1405
   55loPI   C3A  873   9.565   5.243   9.098  0.1629  0.0518 -0.0162
   55loPI   C4A  874   9.589   5.246   8.601 -0.1124 -0.1578 -0.2847
   55loPI   C5A  875   9.394   5.252   8.219 -0.1014 -0.0373 -0.1518
   55loPI   C6A  876   9.146   5.172   7.837 -0.0091  0.2348  0.1692
   55loPI   C1B  877   9.162   5.127   9.911  0.3073 -0.1901 -0.1290
   55loPI   C2B  878   9.176   4.935   9.552  0.2285  0.0029 -0.1542
   55loPI   C3B  879   9.037   4.970   9.154 -0.2507 -0.2131  0.2137
   55loPI   C4B  880   9.238   5.051   8.834  0.0366 -0.1605 -0.1046
   56loPI    C1  881  12.834  16.289  10.986 -0.0245  0.1314 -0.0300
   56loPI    C2  882  13.112  16.222  11.266  0.1071  0.0141 -0.1862
   56loPI    C3  883  12.725  16.163  11.350  0.1316  0.1343  0.0187
   56loPI   PO4  884  13.096  16.450  10.791 -0.0343  0.1153  0.0682
   56loPI   GL1  885  12.975  16.635  10.399  0.2216  0.1008  0.3157
   56loPI   GL2  886  13.282  16.710  10.347 -0.2767 -0.0901  0.2227
   56loPI   C1A  887  12.889  16.849  10.074  0.0396  0.1858  0.0239
   56loPI   C2A  888  12.898  16.883   9.690  0.2912  0.1276  0.2630
   56loPI   C3A  889  12.855  16.922   9.273 -0.0196 -0.0502  0.1409
   56loPI   C4A  890  12.802  16.891   8.799 -0.3659  0.4571 -0.0085
   56loPI   C5A  891  12.728  17.147   8.433  0.0177 -0.1470  0.0882
   56loPI   C6A  892  12.598  17.288   8.038 -0.1518 -0.1627 -0.1544
   56loPI   C1B  893  13.317  16.592   9.910  0.0687  0.0507  0.1629
   56loPI   C2B  894  13.315  16.613   9.448  0.2492 -0.0589 -0.1840
   56loPI   C3B  895  13.255  16.717   9.030 -0.0046  0.0790  0.3807
   56loPI   C4B  896  13.228  16.589   8.662 -0.1054  0.0330  0.0462
   57loPI    C1  897   6.567   0.007  11.074  0.0604  0.3411  0.1939
   57loPI    C2  898   6.943  -0.111  11.004 -0.0858  0.0468 -0.1264
   57loPI    C3  899   6.737  -0.269  11.308 -0.0989 -0.1253 -0.2238
   57loPI   PO4  900   6.428  -0.065  10.836  0.0740 -0.1617  0.3447
   57loPI   GL1  901   6.422   0.046  10.430  0.3060  0.1205  0.1192
   57loPI   GL2  902   6.583  -0.102  10.076 -0.0023 -0.1175 -0.1276
   57loPI   C1A  903   6.109   0.049   9.964 -0.2192 -0.1653  0.1589
   57loPI   C2A  904   6.160  -0.077   9.579  0.1810 -0.1982 -0.0450
   57loPI   C3A  905   6.085  -0.098   9.140  0.3140  0.0790  0.2887
   57loPI   C4A  906   6.064  -0.132   8.733  0.1859 -0.2114  0.1407
   57loPI   C5A  907   5.992   0.137   8.356  0.1150  0.2190 -0.0064
   57loPI   C6A  908   6.058   0.249   8.007 -0.1688  0.2899 -0.0763
   57loPI   C1B  909   6.567  -0.310   9.695  0.1751 -0.2547 -0.1532
   57loPI   C2B  910   6.572  -0.364   9.249 -0.3310 -0.1237 -0.3949
   57loPI   C3B  911   6.653  -0.382   8.732  0.0988  0.2447 -0.1662
   57loPI   C4B  912   6.829  -0.336   8.209  0.0860 -0.2009 -0.0972
   58loPI    C1  913   3.372   7.936  11.299  0.1928 -0.1651  0.1683
   58loPI    C2  914   3.289   7.563  11.419  0.2615 -0.1984  0.1127
   58loPI    C3  915   3.071   7.870  11.554 -0.0296 -0.2973 -0.1236
   58loPI   PO4  916   3.383   7.882  11.033  0.0842  0.2213  0.0906
   58loPI   GL1  917   3.342   7.956  10.579  0.0513  0.1248 -0.2181
   58loPI   GL2  918   3.548   7.634  10.570  0.1620  0.2316 -0.0236
   58loPI   C1A  919   3.414   8.133  10.278 -0.0427  0.3289  0.0157
   58loPI   C2A  920   3.540   8.035   9.802  0.0178 -0.2324  0.0717
   58loPI   C3A  921   3.458   8.008   9.318  0.3121  0.0435 -0.1835
   58loPI   C4A  922   3.463   7.993   8.953  0.2287  0.0445  0.0633
   58loPI   C5A  923   3.729   7.873   8.656 -0.0803 -0.2126 -0.1994
   58loPI   C6A  924   3.854   7.567   8.312 -0.0305  0.1375 -0.0689
   58loPI   C1B  925   3.418   7.551  10.184  0.1061  0.0429 -0.1390
   58loPI   C2B  926   3.540   7.602   9.661 -0.1754 -0.0042  0.0634
   58loPI   C3B  927   3.464   7.512   9.273  0.1630 -0.1066  0.0142
   58loPI   C4B  928   3.534   7.395   8.784  0.1172 -0.1042  0.0480
   59loPI    C1  929   3.997  15.109  11.169 -0.1867  0.0620 -0.0725
   59loPI    C2  930   4.137  15.161  11.540  0.0621 -0.0674 -0.1460
   59loPI    C3  931   3.883  14.862  11.462  0.2411 -0.2234 -0.1377
   59loPI   PO4  932   4.265  15.226  11.011 -0.1562 -0.1932  0.0037
   59loPI   GL1  933   4.560  15.175  10.725  0.3265 -0.1977 -0.1470
   59loPI   GL2  934   4.752  15.390  10.664 -0.1081 -0.1475 -0.0209
   59loPI   C1A  935   4.644  14.989  10.303  0.3487  0.1290 -0.2757
   59loPI   C2A  936   4.778  14.977   9.841 -0.2123 -0.0264 -0.0693
   59loPI   C3A  937   4.737  15.115   9.434 -0.0250  0.0181  0.0056
   59loPI   C4A  938   4.632  15.055   8.938 -0.1003  0.2019  0.0272
   59loPI   C5A  939   4.547  15.286   8.548  0.0396 -0.0644 -0.1990
   59loPI   C6A  940   4.619  15.569   8.296  0.2369 -0.2621  0.1182
   59loPI   C1B  941   4.658  15.531  10.299  0.1162 -0.1395  0.0894
   59loPI   C2B  942   4.707  15.504   9.929  0.1420  0.0578 -0.0314
   59loPI   C3B  943   4.611  15.547   9.499 -0.1165  0.0835 -0.3011
   59loPI   C4B  944   4.610  15.543   9.030 -0.1597 -0.0060 -0.1966
   60loPI    C1  945   3.933  13.640  10.633  0.0936 -0.1121 -0.1521
   60loPI    C2  946   4.002  13.835  10.975  0.4040 -0.1377 -0.1971
   60loPI    C3  947   3.639  13.687  10.899  0.2860  0.0232  0.0408
   60loPI   PO4  948   4.091  13.786  10.468  0.1000 -0.1235 -0.0181
   60loPI   GL1  949   4.109  14.089  10.080 -0.5442  0.1028  0.1753
   60loPI   GL2  950   3.947  14.314  10.193 -0.2100 -0.0023  0.4170
   60loPI   C1A  951   4.071  13.950   9.681 -0.1393  0.0904 -0.0977
   60loPI   C2A  952   3.967  13.915   9.238 -0.2327  0.1153  0.0160
   60loPI   C3A  953   3.910  13.855   8.846 -0.2802 -0.0868 -0.0830
   60loPI   C4A  954   3.674  13.866   8.390  0.0747 -0.2738  0.0320
   60loPI   C5A  955   3.616  14.119   8.006 -0.2382 -0.2161  0.2630
   60loPI   C6A  956   3.455  14.567   7.912 -0.2710 -0.1118  0.0653
   60loPI   C1B  957   3.867  14.478   9.727 -0.0726  0.1735 -0.0478
   60loPI   C2B  958   3.810  14.443   9.255  0.1087  0.3117 -0.0966
   60loPI   C3B  959   3.817  14.326   8.842 -0.0695 -0.3837 -0.0491
   60loPI   C4B  960   3.910  14.374   8.380  0.1629 -0.0871 -0.1006
   61loPI    C1  961  17.297  14.062  11.199  0.2035  0.1867  0.0115
   61loPI    C2  962  17.408  13.947  11.565 -0.3759 -0.0293  0.1297
   61loPI    C3  963  17.385  14.336  11.476  0.2092  0.0238  0.1722
   61loPI   PO4  964  17.465  13.938  11.049 -0.0913 -0.1657  0.0615
   61loPI   GL1  965  17.434  14.181  10.704 -0.0455  0.1566  0.1093
   61loPI   GL2  966  16.992  14.271  10.809  0.0428  0.2068 -0.2003
   61loPI   C1A  967  17.537  14.170  10.259  0.0721 -0.1509  0.0852
   61loPI   C2A  968  17.536  14.219   9.809 -0.0341  0.2167  0.1616
   61loPI   C3A  969  17.531  14.280   9.382 -0.2095 -0.1337 -0.0791
   61loPI   C4A  970  17.530  14.160   8.952  0.0784  0.0602 -0.1501
   61loPI   C5A  971  17.498  13.899   8.546 -0.0106 -0.3108 -0.1397
   61loPI   C6A  972  17.402  13.888   8.169 -0.1340 -0.0369  0.1863
   61loPI   C1B  973  16.970  14.363  10.443 -0.0435 -0.2981 -0.0807
   61loPI   C2B  974  17.055  14.494  10.005  0.0442  0.2067 -0.1213
   61loPI   C3B  975  17.064  14.411   9.629  0.2044  0.0662  0.0268
   61loPI   C4B  976  16.939  14.385   9.133 -0.1313  0.0210  0.0591
   62loPI    C1  977  13.403  11.701  10.912  0.0312 -0.1153 -0.0964
   62loPI    C2  978  13.658  11.432  10.759  0.0866 -0.0474 -0.1237
   62loPI    C3  979  13.787  11.702  11.024  0.0384 -0.0267 -0.1211
   62loPI   PO4  980  13.307  11.820  10.730  0.1568 -0.0526 -0.0865
   62loPI   GL1  981  13.502  11.691  10.301  0.0432 -0.1509  0.0561
   62loPI   GL2  982  13.139  11.766  10.223 -0.1274 -0.1407 -0.2998
   62loPI   C1A  983  13.746  11.949  10.044 -0.3133 -0.3101  0.3010
   62loPI   C2A  984  13.615  12.034   9.536 -0.2141 -0.1529 -0.0992
   62loPI   C3A  985  13.680  11.924   9.087  0.0534  0.1464  0.0222
   62loPI   C4A  986  13.712  12.014   8.688 -0.1370 -0.1503  0.0630
   62loPI   C5A  987  13.755  12.184   8.437 -0.0857  0.2180  0.0883
   62loPI   C6A  988  13.878  12.542   8.588 -0.3043  0.3165  0.4751
   62loPI   C1B  989  13.257  11.813   9.821 -0.0064 -0.0560 -0.1495
   62loPI   C2B  990  13.293  11.773   9.321 -0.1780 -0.1380 -0.1503
   62loPI   C3B  991  13.167  11.614   8.933  0.3315  0.0887  0.3068
   62loPI   C4B  992  13.018  11.537   8.549  0.1069  0.1525 -0.2434
   63loPI    C1  993   1.662   9.650  11.136 -0.0653  0.0913  0.2874
   63loPI    C2  994   1.553   9.292  11.277 -0.2906  0.0589  0.0395
   63loPI    C3  995   1.589   9.603  11.526 -0.2074 -0.1075  0.2384
   63loPI   PO4  996   1.437   9.714  10.885  0.0479  0.2214 -0.1293
   63loPI   GL1  997   1.453   9.912  10.477  0.1919  0.0235 -0.2900
   63loPI   GL2  998   1.535   9.571  10.427 -0.0767  0.1052  0.0746
   63loPI   C1A  999   1.449  10.002  10.059 -0.0755 -0.0790 -0.0338
   63loPI   C2A 1000   1.438   9.947   9.669 -0.3271  0.1590  0.0573
   63loPI   C3A 1001   1.545   9.899   9.264 -0.0817  0.0343  0.4562
   63loPI   C4A 1002   1.580   9.936   8.759 -0.0009  0.1085  0.2049
   63loPI   C5A 1003   1.398   9.735   8.315 -0.1402  0.1144  0.0085
   63loPI   C6A 1004   1.134   9.455   8.332 -0.0025 -0.0745  0.0395
   63loPI   C1B 1005   1.514   9.515  10.011 -0.3701  0.1238 -0.0247
   63loPI   C2B 1006   1.495   9.465   9.533 -0.2807  0.1449 -0.0397
   63loPI   C3B 1007   1.601   9.411   9.136  0.1553  0.1762 -0.1630
   63loPI   C4B 1008   1.594   9.425   8.697 -0.1207 -0.2839  0.1182
   64loPI    C1 1009   0.647  15.508  11.020  0.0704  0.0378 -0.0553
   64loPI    C2 1010   0.585  15.832  11.246  0.1069  0.0410 -0.0498
   64loPI    C3 1011   0.762  15.510  11.403 -0.0776 -0.0422 -0.0094
   64loPI   PO4 1012   0.769  15.644  10.711 -0.0417  0.0932  0.0496
   64loPI   GL1 1013   0.917  15.848  10.366  0.0447 -0.1899  0.1442
   64loPI   GL2 1014   1.050  16.145  10.109 -0.0579  0.0780  0.0430
   64loPI   C1A 1015   1.027  15.681  10.016 -0.1641 -0.0213 -0.2906
   64loPI   C2A 1016   0.996  15.659   9.585 -0.1728  0.0828 -0.1509
   64loPI   C3A 1017   0.880  15.654   9.224  0.0687  0.1896 -0.1683
   64loPI   C4A 1018   0.891  15.659   8.766  0.2294 -0.1137 -0.0850
   64loPI   C5A 1019   1.125  15.597   8.287 -0.2793  0.0058  0.0163
   64loPI   C6A 1020   1.378  15.845   8.040 -0.1860  0.1390 -0.1790
   64loPI   C1B 1021   1.043  16.150   9.720  0.1638  0.1946  0.0951
   64loPI   C2B 1022   0.882  16.230   9.322 -0.2670 -0.0888  0.1085
   64loPI   C3B 1023   0.915  16.153   8.879 -0.0545 -0.0003  0.2356
   64loPI   C4B 1024   0.779  16.213   8.532  0.0545 -0.0125  0.0269
   65loPI    C1 1025   5.413  13.821  10.997  0.0716 -0.0171 -0.0406
   65loPI    C2 1026   5.771  13.656  10.926  0.1252  0.0519  0.0669
   65loPI    C3 1027   5.641  13.700  11.302 -0.0369 -0.0578  0.0251
   65loPI   PO4 1028   5.335  13.985  10.801  0.1719 -0.0408 -0.3694
   65loPI   GL1 1029   5.375  14.130  10.339  0.1612  0.1627  0.1045
   65loPI   GL2 1030   5.058  14.044  10.194  0.2511  0.2584  0.0640
   65loPI   C1A 1031   5.356  14.307   9.855 -0.0442  0.2349  0.1707
   65loPI   C2A 1032   5.307  14.321   9.324  0.0540 -0.1394  0.1940
   65loPI   C3A 1033   5.138  14.207   8.908 -0.2806 -0.2876 -0.0389
   65loPI   C4A 1034   5.305  14.409   8.486  0.0009  0.1252 -0.0810
   65loPI   C5A 1035   5.181  14.512   8.033  0.0688  0.2154 -0.0003
   65loPI   C6A 1036   4.854  14.267   8.074  0.1261 -0.0509  0.1020
   65loPI   C1B 1037   4.972  14.014   9.713  0.2529  0.0754 -0.1552
   65loPI   C2B 1038   4.909  13.911   9.271 -0.1782  0.0470 -0.1499
   65loPI   C3B 1039   4.813  13.852   8.800 -0.0891  0.2002 -0.2641
   65loPI   C4B 1040   4.855  13.836   8.303  0.2893 -0.1538 -0.2112
   66loPI    C1 1041  17.710  10.889  11.422  0.1041 -0.0060  0.0241
   66loPI    C2 1042  18.091  10.958  11.520  0.1202  0.0038 -0.0452
   66loPI    C3 1043  17.844  10.790  11.786  0.0619  0.3924  0.1539
   66loPI   PO4 1044  17.721  10.783  11.138  0.0806 -0.1251  0.1998
   66loPI   GL1 1045  17.945  10.791  10.689 -0.0142 -0.0079 -0.1378
   66loPI   GL2 1046  17.951  10.551  10.668 -0.0157  0.4044 -0.0713
   66loPI   C1A 1047  17.850  11.080  10.361 -0.2738  0.3241  0.0676
   66loPI   C2A 1048  17.792  11.082   9.973 -0.0272 -0.0355 -0.1228
   66loPI   C3A 1049  17.889  11.132   9.567  0.2261 -0.0958 -0.2963
   66loPI   C4A 1050  17.871  11.189   9.089 -0.1380 -0.2166  0.1098
   66loPI   C5A 1051  17.869  11.052   8.682  0.2978 -0.0292 -0.2093
   66loPI   C6A 1052  17.897  10.918   8.340 -0.2070  0.1804 -0.0396
   66loPI   C1B 1053  17.966  10.608  10.247  0.2203 -0.3069  0.3312
   66loPI   C2B 1054  17.976  10.525   9.764  0.2861  0.0861  0.2111
   66loPI   C3B 1055  17.927  10.620   9.411 -0.0141  0.0746 -0.2119
   66loPI   C4B 1056  17.828  10.628   9.020  0.0313 -0.0743 -0.4690
   67loPI    C1 1057   1.873  14.446  10.834 -0.2060 -0.0341 -0.0953
   67loPI    C2 1058   1.829  14.110  11.047 -0.0109 -0.0645 -0.1016
   67loPI    C3 1059   1.891  14.459  11.233 -0.2369 -0.0268 -0.0942
   67loPI   PO4 1060   1.706  14.450  10.688 -0.2020  0.0999 -0.0573
   67loPI   GL1 1061   1.774  14.501  10.317  0.0233 -0.2179  0.0274
   67loPI   GL2 1062   2.021  14.566  10.104 -0.1617 -0.4910 -0.0216
   67loPI   C1A 1063   1.525  14.437   9.962  0.2509 -0.3368 -0.0414
   67loPI   C2A 1064   1.435  14.412   9.480 -0.0164  0.0103  0.5166
   67loPI   C3A 1065   1.361  14.409   9.110  0.0890 -0.0145 -0.1454
   67loPI   C4A 1066   1.404  14.407   8.682  0.0028  0.0073  0.1614
   67loPI   C5A 1067   1.244  14.325   8.230  0.0657 -0.0610  0.2106
   67loPI   C6A 1068   1.099  14.119   7.865  0.2046  0.0866 -0.2941
   67loPI   C1B 1069   1.886  14.751   9.635  0.0607 -0.1167  0.3015
   67loPI   C2B 1070   1.890  14.741   9.148  0.4700 -0.1341 -0.1769
   67loPI   C3B 1071   1.805  14.827   8.652  0.1018 -0.3143 -0.2198
   67loPI   C4B 1072   1.768  14.634   8.215  0.1567 -0.1414 -0.1710
   68loPI    C1 1073   7.402  15.591  10.673  0.1507 -0.1323  0.1247
   68loPI    C2 1074   7.256  15.350  10.956  0.1659  0.0492  0.2893
   68loPI    C3 1075   7.234  15.747  11.001  0.2028  0.0794  0.0528
   68loPI   PO4 1076   7.346  15.471  10.441  0.1353  0.1705 -0.1240
   68loPI   GL1 1077   7.051  15.521  10.172  0.4413 -0.1496 -0.0464
   68loPI   GL2 1078   7.359  15.376   9.974  0.0421  0.0414  0.2163
   68loPI   C1A 1079   7.005  15.522   9.702  0.1133  0.1878 -0.0004
   68loPI   C2A 1080   6.930  15.516   9.322 -0.1188 -0.0115  0.2536
   68loPI   C3A 1081   6.936  15.422   8.867  0.2302 -0.2870  0.1210
   68loPI   C4A 1082   6.903  15.379   8.450  0.3438 -0.1190  0.0545
   68loPI   C5A 1083   6.973  15.463   8.067  0.2377 -0.0045  0.1403
   68loPI   C6A 1084   6.865  15.869   7.840  0.2250  0.1177  0.2530
   68loPI   C1B 1085   7.469  15.277   9.527  0.1082 -0.1748  0.1530
   68loPI   C2B 1086   7.416  15.216   9.140  0.2334 -0.0110 -0.0745
   68loPI   C3B 1087   7.351  15.161   8.682 -0.0217  0.1045 -0.0576
   68loPI   C4B 1088   7.386  15.203   8.252 -0.2479  0.0062  0.3193
   69loPI    C1 1089   7.602   3.659  11.336 -0.0314 -0.0717 -0.1759
   69loPI    C2 1090   7.864   3.489  11.585 -0.0218 -0.0645 -0.1811
   69loPI    C3 1091   7.791   3.881  11.610 -0.0650 -0.0744 -0.1504
   69loPI   PO4 1092   7.602   3.587  11.103 -0.2761  0.1630 -0.3912
   69loPI   GL1 1093   7.828   3.591  10.769 -0.0393 -0.2005  0.2625
   69loPI   GL2 1094   7.540   3.655  10.633  0.1402  0.1065 -0.0832
   69loPI   C1A 1095   8.017   3.570  10.423 -0.1731  0.3879  0.3034
   69loPI   C2A 1096   7.951   3.518   9.982  0.0644  0.0241 -0.1005
   69loPI   C3A 1097   8.047   3.562   9.480 -0.0879 -0.1089 -0.1752
   69loPI   C4A 1098   7.944   3.488   9.126  0.0820 -0.1743  0.2943
   69loPI   C5A 1099   7.870   3.461   8.672  0.1321  0.0458 -0.0530
   69loPI   C6A 1100   7.967   3.428   8.228 -0.0380  0.1024  0.0626
   69loPI   C1B 1101   7.514   3.711  10.237 -0.0989  0.1211 -0.3287
   69loPI   C2B 1102   7.533   3.762   9.805 -0.0586  0.1991 -0.2089
   69loPI   C3B 1103   7.476   3.744   9.347 -0.1400  0.3055  0.0136
   69loPI   C4B 1104   7.451   3.761   8.915 -0.1444 -0.0396 -0.2281
   70loPI    C1 1105  11.219  13.991  10.713  0.1016  0.3595 -0.0198
   70loPI    C2 1106  11.390  13.897  11.062 -0.1251 -0.1865 -0.0465
   70loPI    C3 1107  11.196  14.244  11.022  0.3405  0.1132  0.2050
   70loPI   PO4 1108  11.324  13.770  10.582  0.2117 -0.1864  0.0830
   70loPI   GL1 1109  11.450  13.467  10.338  0.0074 -0.1209 -0.0910
   70loPI   GL2 1110  11.700  13.454  10.305 -0.0817  0.1004 -0.1580
   70loPI   C1A 1111  11.245  13.653   9.952 -0.0872  0.2046 -0.1164
   70loPI   C2A 1112  11.281  13.552   9.565  0.1118  0.2188 -0.1102
   70loPI   C3A 1113  11.234  13.513   9.117  0.1466 -0.0960 -0.0674
   70loPI   C4A 1114  11.354  13.593   8.735 -0.3391  0.0719 -0.0009
   70loPI   C5A 1115  11.341  13.693   8.323  0.0276 -0.0508  0.2236
   70loPI   C6A 1116  11.474  13.593   7.947 -0.0826 -0.1146 -0.1879
   70loPI   C1B 1117  11.701  13.364   9.761 -0.1716  0.0181 -0.0430
   70loPI   C2B 1118  11.724  13.334   9.278 -0.0606 -0.0330 -0.1270
   70loPI   C3B 1119  11.850  13.381   8.848 -0.3082 -0.0185 -0.1740
   70loPI   C4B 1120  11.748  13.459   8.390 -0.3160  0.1643  0.1411
   71loPI    C1 1121  15.254  10.959  11.058 -0.1819 -0.1079  0.2622
   71loPI    C2 1122  15.240  11.216  11.364  0.0807  0.0246  0.1653
   71loPI    C3 1123  15.306  10.828  11.432 -0.0722  0.0199  0.2925
   71loPI   PO4 1124  15.048  10.991  10.912 -0.0654  0.1529 -0.0385
   71loPI   GL1 1125  14.817  11.243  10.587  0.2408 -0.0338 -0.2679
   71loPI   GL2 1126  14.798  11.016  10.445  0.1106 -0.0444 -0.2123
   71loPI   C1A 1127  15.177  11.317  10.232 -0.2258  0.0153  0.0530
   71loPI   C2A 1128  15.098  11.291   9.755 -0.2604  0.1163  0.2484
   71loPI   C3A 1129  15.161  11.264   9.302 -0.0069  0.2233  0.1476
   71loPI   C4A 1130  14.999  11.426   8.876 -0.0902  0.0662  0.1851
   71loPI   C5A 1131  15.122  11.436   8.466  0.0724 -0.2106  0.1650
   71loPI   C6A 1132  15.360  11.551   8.072 -0.0964  0.0074  0.3906
   71loPI   C1B 1133  14.742  11.007  10.014  0.2584  0.1316  0.0974
   71loPI   C2B 1134  14.694  10.905   9.607 -0.0151 -0.4776 -0.0025
   71loPI   C3B 1135  14.733  11.010   9.196  0.0399  0.2906  0.0927
   71loPI   C4B 1136  14.678  11.039   8.768  0.0091  0.0406  0.0352
   72loPI    C1 1137  17.171   1.468  11.456  0.2052 -0.3431  0.0172
   72loPI    C2 1138  16.833   1.260  11.406  0.0141  0.0170 -0.2428
   72loPI    C3 1139  16.924   1.411  11.765 -0.2038  0.0876 -0.2160
   72loPI   PO4 1140  17.242   1.482  11.105 -0.0350  0.0370 -0.0014
   72loPI   GL1 1141  17.177   1.694  10.731 -0.0529  0.0467  0.3873
   72loPI   GL2 1142  17.228   1.299  10.605 -0.1150  0.1256  0.1335
   72loPI   C1A 1143  17.130   1.602  10.294  0.3241  0.0698  0.2295
   72loPI   C2A 1144  17.146   1.487   9.924 -0.0594  0.2204 -0.0243
   72loPI   C3A 1145  17.119   1.636   9.570  0.1067  0.1654 -0.0062
   72loPI   C4A 1146  17.063   1.685   9.090  0.3486 -0.0561  0.0680
   72loPI   C5A 1147  16.968   1.766   8.619 -0.1702  0.1612  0.1015
   72loPI   C6A 1148  17.187   1.723   8.254  0.2830 -0.1126  0.0809
   72loPI   C1B 1149  17.154   1.065  10.191  0.5487 -0.1712  0.0464
   72loPI   C2B 1150  17.124   0.963   9.730  0.1266  0.0660  0.1723
   72loPI   C3B 1151  17.072   1.008   9.408 -0.2669 -0.0995  0.0406
   72loPI   C4B 1152  17.100   1.099   8.960  0.1924 -0.2127 -0.4375
   73loPI    C1 1153   6.881   0.756  10.586 -0.0873 -0.1776  0.0935
   73loPI    C2 1154   6.872   0.900  10.959 -0.1345  0.2236 -0.0570
   73loPI    C3 1155   7.223   0.828  10.780 -0.1122 -0.0916  0.1060
   73loPI   PO4 1156   6.790   0.830  10.448  0.1342  0.0887 -0.0392
   73loPI   GL1 1157   6.573   0.945  10.120 -0.0745 -0.3244  0.0206
   73loPI   GL2 1158   6.848   1.143  10.080  0.2017  0.1748 -0.0623
   73loPI   C1A 1159   6.494   0.835   9.789  0.1721 -0.2080 -0.0945
   73loPI   C2A 1160   6.487   0.789   9.335 -0.1393  0.3498 -0.0087
   73loPI   C3A 1161   6.363   0.685   8.851  0.1738  0.1031  0.0974
   73loPI   C4A 1162   6.317   0.513   8.400  0.1562 -0.3109 -0.4223
   73loPI   C5A 1163   6.400   0.587   7.991 -0.0231  0.0875 -0.1506
   73loPI   C6A 1164   6.205   0.248   7.524 -0.0693  0.0799 -0.1582
   73loPI   C1B 1165   6.884   1.142   9.643  0.1434  0.0768  0.0870
   73loPI   C2B 1166   6.910   1.083   9.179  0.2815  0.1859  0.1515
   73loPI   C3B 1167   6.874   1.023   8.746  0.1278 -0.1503  0.2482
   73loPI   C4B 1168   6.618   1.023   8.382 -0.0799  0.0765 -0.2616
   74loPI    C1 1169  16.094   8.675  11.073 -0.0041  0.1736 -0.0251
   74loPI    C2 1170  16.469   8.771  11.173 -0.0373 -0.0147  0.2918
   74loPI    C3 1171  16.186   8.750  11.455 -0.2753  0.0700  0.0629
   74loPI   PO4 1172  16.123   8.673  10.817  0.1403  0.3036  0.0129
   74loPI   GL1 1173  15.935   8.397  10.454  0.2230 -0.0180  0.1003
   74loPI   GL2 1174  16.243   8.411  10.411  0.3070  0.0428 -0.0516
   74loPI   C1A 1175  15.868   8.498  10.112 -0.0441 -0.1586  0.1528
   74loPI   C2A 1176  15.825   8.524   9.642 -0.1918  0.0056 -0.1560
   74loPI   C3A 1177  15.920   8.573   9.222  0.0196 -0.0864  0.0022
   74loPI   C4A 1178  15.907   8.569   8.782  0.1289  0.1167  0.2936
   74loPI   C5A 1179  15.900   8.606   8.357  0.3906  0.0905  0.6485
   74loPI   C6A 1180  15.903   8.873   7.915 -0.3944 -0.1685  0.3255
   74loPI   C1B 1181  16.246   8.218   9.954  0.1253  0.3162  0.0812
   74loPI   C2B 1182  16.212   8.264   9.556  0.1184 -0.0588  0.2264
   74loPI   C3B 1183  16.340   8.383   9.108 -0.1340 -0.4537  0.0868
   74loPI   C4B 1184  16.338   8.342   8.639 -0.1591 -0.1541 -0.1993
   75loPI    C1 1185   1.283  15.582  11.085 -0.1508  0.0899  0.0678
   75loPI    C2 1186   1.090  15.917  11.190 -0.1323  0.0740  0.1527
   75loPI    C3 1187   1.323  15.728  11.455  0.0034  0.0950  0.0495
   75loPI   PO4 1188   1.401  15.607  10.791  0.1773 -0.3230 -0.1266
   75loPI   GL1 1189   1.352  15.489  10.364  0.0939  0.2327 -0.1612
   75loPI   GL2 1190   1.072  15.227  10.345  0.0462  0.0258  0.1078
   75loPI   C1A 1191   1.435  15.332   9.953 -0.1164  0.0876 -0.2087
   75loPI   C2A 1192   1.485  15.423   9.537 -0.3000 -0.1293  0.1744
   75loPI   C3A 1193   1.351  15.406   9.164  0.0326 -0.1702  0.0999
   75loPI   C4A 1194   1.360  15.427   8.702 -0.3075 -0.0460 -0.0961
   75loPI   C5A 1195   1.617  15.377   8.308  0.2840  0.1752 -0.0328
   75loPI   C6A 1196   1.885  15.565   7.965  0.2273  0.2339  0.0485
   75loPI   C1B 1197   0.979  15.148   9.896  0.1896 -0.0669  0.0575
   75loPI   C2B 1198   1.003  15.159   9.488  0.2124 -0.0241 -0.0859
   75loPI   C3B 1199   0.933  15.131   9.085 -0.2291 -0.0109  0.3306
   75loPI   C4B 1200   0.929  15.185   8.619 -0.0082 -0.1664  0.3579
   76loPI    C1 1201   2.265  14.196  10.714 -0.1700 -0.0845 -0.0037
   76loPI    C2 1202   2.167  13.818  10.802  0.2590 -0.2322 -0.1344
   76loPI    C3 1203   2.400  14.027  11.051 -0.1112  0.0085  0.0196
   76loPI   PO4 1204   2.298  14.137  10.392 -0.1805  0.1103  0.0298
   76loPI   GL1 1205   2.038  14.090  10.028  0.0061  0.2684 -0.1914
   76loPI   GL2 1206   2.005  13.736  10.120 -0.0905 -0.2594  0.1543
   76loPI   C1A 1207   1.902  14.251   9.588 -0.0842  0.1415 -0.1785
   76loPI   C2A 1208   1.941  14.153   9.180  0.3169  0.1587 -0.0382
   76loPI   C3A 1209   1.904  14.288   8.753  0.0999  0.1695 -0.0468
   76loPI   C4A 1210   2.074  14.141   8.366 -0.0884  0.0370  0.0188
   76loPI   C5A 1211   2.196  14.149   7.996 -0.0583 -0.0019 -0.0472
   76loPI   C6A 1212   2.331  13.835   7.723  0.0828 -0.0467 -0.1144
   76loPI   C1B 1213   1.929  13.704   9.638  0.2678 -0.1632  0.0552
   76loPI   C2B 1214   1.846  13.655   9.151 -0.2966  0.1119  0.5579
   76loPI   C3B 1215   1.977  13.778   8.775 -0.0643  0.1316 -0.0399
   76loPI   C4B 1216   1.894  13.642   8.342 -0.1818  0.1060  0.2292
   77loPI    C1 1217  14.136  13.438  11.362  0.1132  0.1322  0.0380
   77loPI    C2 1218  14.263  13.546  11.726 -0.0596  0.0916  0.1114
   77loPI    C3 1219  13.974  13.755  11.545 -0.1194 -0.0124  0.0861
   77loPI   PO4 1220  14.398  13.320  11.058  0.2582 -0.1005 -0.3457
   77loPI   GL1 1221  14.484  13.428  10.743 -0.0684  0.0175  0.1863
   77loPI   GL2 1222  14.061  13.501  10.684 -0.2408  0.0408 -0.2660
   77loPI   C1A 1223  14.703  13.604  10.382 -0.0619 -0.1116 -0.3519
   77loPI   C2A 1224  14.868  13.396  10.120  0.0680 -0.1177  0.1616
   77loPI   C3A 1225  14.910  13.433   9.758  0.1734  0.0977 -0.0523
   77loPI   C4A 1226  14.847  13.406   9.403 -0.1060 -0.2243 -0.1745
   77loPI   C5A 1227  15.025  13.391   8.987  0.1445  0.1407 -0.0560
   77loPI   C6A 1228  15.426  13.269   8.744 -0.1259  0.2208 -0.2096
   77loPI   C1B 1229  14.299  13.380  10.242 -0.1024 -0.2394  0.1745
   77loPI   C2B 1230  14.452  13.246   9.894 -0.0646 -0.0266  0.1666
   77loPI   C3B 1231  14.424  13.174   9.458 -0.4275 -0.0120 -0.1527
   77loPI   C4B 1232  14.533  13.083   9.114 -0.1042 -0.0068 -0.4021
   78loPI    C1 1233  10.558  14.125  10.666 -0.3548 -0.0769  0.0908
   78loPI    C2 1234  10.699  14.409  10.910  0.0010 -0.0987 -0.0835
   78loPI    C3 1235  10.381  14.193  11.018 -0.1444  0.2208  0.1433
   78loPI   PO4 1236  10.698  14.026  10.566 -0.0717 -0.2805  0.0486
   78loPI   GL1 1237  11.005  14.043  10.243  0.1549  0.0929  0.1621
   78loPI   GL2 1238  10.766  13.814  10.074  0.1901 -0.2108 -0.0693
   78loPI   C1A 1239  11.209  14.165   9.883 -0.0254  0.1318 -0.2905
   78loPI   C2A 1240  11.166  14.027   9.511 -0.0522 -0.0045  0.0796
   78loPI   C3A 1241  11.193  14.015   9.073 -0.2592 -0.1841  0.0274
   78loPI   C4A 1242  11.356  14.085   8.725  0.0021 -0.0089  0.2171
   78loPI   C5A 1243  11.361  14.199   8.319 -0.0725 -0.3187 -0.0959
   78loPI   C6A 1244  11.583  14.616   8.270  0.0814  0.0900 -0.2058
   78loPI   C1B 1245  10.728  13.761   9.615 -0.0937 -0.2182  0.4334
   78loPI   C2B 1246  10.749  13.786   9.206 -0.1113 -0.1960  0.0130
   78loPI   C3B 1247  10.809  13.736   8.863  0.0594 -0.1430  0.0041
   78loPI   C4B 1248  10.928  13.898   8.522 -0.0141  0.1850  0.4308
   79loPI    C1 1249   8.318   1.343  10.974  0.0016  0.0490 -0.1275
   79loPI    C2 1250   8.217   1.039  11.213 -0.0073  0.1650  0.0175
   79loPI    C3 1251   8.591   1.070  11.077  0.0878  0.2877  0.2993
   79loPI   PO4 1252   8.159   1.377  10.842  0.0739  0.0335  0.1182
   79loPI   GL1 1253   8.230   1.422  10.381  0.0913  0.0132  0.0329
   79loPI   GL2 1254   7.946   1.272  10.315 -0.0704 -0.2330  0.0970
   79loPI   C1A 1255   8.176   1.492   9.903  0.0847  0.3574 -0.1440
   79loPI   C2A 1256   8.096   1.548   9.476 -0.0118 -0.1284  0.3586
   79loPI   C3A 1257   8.111   1.449   9.055 -0.1504  0.1814 -0.2218
   79loPI   C4A 1258   8.199   1.373   8.581  0.2027 -0.0349  0.1211
   79loPI   C5A 1259   8.077   1.264   8.164  0.1891  0.4044  0.2672
   79loPI   C6A 1260   7.645   1.062   8.064  0.0071 -0.2183  0.2324
   79loPI   C1B 1261   8.186   0.929  10.076  0.4717  0.2052  0.1093
   79loPI   C2B 1262   8.153   0.934   9.638  0.3924 -0.1379  0.1974
   79loPI   C3B 1263   8.173   0.987   9.129  0.0126  0.0963  0.1768
   79loPI   C4B 1264   8.243   0.823   8.651  0.0631  0.0323  0.2532
   80loPI    C1 1265   2.275   6.135  11.377 -0.0254 -0.1803 -0.2388
   80loPI    C2 1266   2.516   5.839  11.498  0.1382  0.0352 -0.0288
   80loPI    C3 1267   2.171   5.906  11.689  0.1407  0.0329 -0.0233
   80loPI   PO4 1268   2.387   6.209  11.163  0.0480  0.1052  0.0118
   80loPI   GL1 1269   2.254   6.175  10.749  0.1782  0.1548 -0.0661
   80loPI   GL2 1270   1.938   6.293  10.606 -0.0161  0.0787  0.2116
   80loPI   C1A 1271   2.377   6.051  10.354 -0.0037 -0.1454 -0.1272
   80loPI   C2A 1272   2.302   6.061   9.949  0.3063 -0.0791 -0.2274
   80loPI   C3A 1273   2.338   6.002   9.485 -0.0569 -0.0507 -0.0989
   80loPI   C4A 1274   2.246   6.093   9.055 -0.0320  0.1495  0.1705
   80loPI   C5A 1275   2.071   6.085   8.623  0.1517 -0.2002  0.3793
   80loPI   C6A 1276   2.219   6.112   8.175  0.3739 -0.0803  0.1887
   80loPI   C1B 1277   1.954   6.327  10.174 -0.2556 -0.2024  0.2426
   80loPI   C2B 1278   1.875   6.434   9.680 -0.1091  0.0018 -0.1232
   80loPI   C3B 1279   1.873   6.277   9.310  0.2303 -0.1584 -0.1766
   80loPI   C4B 1280   1.749   6.330   8.936  0.2129 -0.0246 -0.0999
   81loPI    C1 1281  10.019  13.849  11.112 -0.0589 -0.1344  0.0004
   81loPI    C2 1282  10.229  13.580  11.323 -0.0775 -0.0480  0.1303
   81loPI    C3 1283   9.870  13.701  11.453 -0.2373 -0.2396 -0.1216
   81loPI   PO4 1284  10.038  13.839  10.817  0.1251  0.3336  0.1780
   81loPI   GL1 1285  10.242  13.763  10.478 -0.0810  0.1608 -0.0694
   81loPI   GL2 1286  10.433  13.590  10.353  0.3071  0.3471 -0.1367
   81loPI   C1A 1287   9.942  13.710  10.140 -0.0931  0.0585  0.5151
   81loPI   C2A 1288   9.910  13.651   9.654  0.2682  0.2881  0.1836
   81loPI   C3A 1289   9.858  13.656   9.187 -0.1512  0.0253  0.1948
   81loPI   C4A 1290   9.886  13.673   8.736  0.2324 -0.3177  0.1738
   81loPI   C5A 1291   9.645  13.806   8.433  0.0187 -0.2334  0.0334
   81loPI   C6A 1292   9.745  13.679   8.011  0.1835 -0.0506  0.1943
   81loPI   C1B 1293  10.341  13.462   9.924 -0.2772  0.3988 -0.0313
   81loPI   C2B 1294  10.287  13.414   9.486 -0.0510 -0.0572 -0.1930
   81loPI   C3B 1295  10.343  13.492   9.113 -0.2355  0.1627  0.1159
   81loPI   C4B 1296  10.380  13.514   8.717  0.0541 -0.0421 -0.1620
   82loPI    C1 1297   6.868  12.375  10.666  0.0762 -0.0068 -0.2234
   82loPI    C2 1298   6.610  12.640  10.513  0.2770  0.2254 -0.1657
   82loPI    C3 1299   6.612  12.566  10.906  0.2758  0.1980 -0.1708
   82loPI   PO4 1300   6.998  12.313  10.491  0.1613  0.0287  0.2222
   82loPI   GL1 1301   6.802  12.305  10.038 -0.0329 -0.3756  0.0367
   82loPI   GL2 1302   6.900  12.687  10.119 -0.0460 -0.1156  0.0954
   82loPI   C1A 1303   6.788  12.137   9.628 -0.2022 -0.0568  0.0438
   82loPI   C2A 1304   6.862  12.073   9.132  0.3849 -0.0603  0.1567
   82loPI   C3A 1305   6.782  11.950   8.634 -0.1832  0.1395 -0.1160
   82loPI   C4A 1306   6.882  12.112   8.156 -0.1083 -0.0040  0.2574
   82loPI   C5A 1307   7.197  11.891   7.940 -0.0990 -0.3922  0.2486
   82loPI   C6A 1308   7.643  11.786   7.967  0.0838  0.0435  0.2618
   82loPI   C1B 1309   6.789  12.642   9.637 -0.3363  0.0264  0.1910
   82loPI   C2B 1310   6.762  12.545   9.236  0.0346  0.0562 -0.1578
   82loPI   C3B 1311   6.819  12.423   8.760 -0.1533 -0.0348  0.1833
   82loPI   C4B 1312   6.688  12.521   8.386  0.0073  0.0757 -0.3621
   83loPI    C1 1313  12.800  14.516  11.325 -0.0606  0.1159 -0.0932
   83loPI    C2 1314  12.649  14.170  11.458  0.0830  0.0066 -0.2114
   83loPI    C3 1315  12.413  14.492  11.423 -0.0340 -0.0579 -0.0286
   83loPI   PO4 1316  12.901  14.498  11.109 -0.0721  0.1560  0.0299
   83loPI   GL1 1317  13.057  14.498  10.728 -0.0545 -0.1890 -0.0779
   83loPI   GL2 1318  13.243  14.638  10.640  0.0012  0.1269 -0.4848
   83loPI   C1A 1319  12.976  14.295  10.340 -0.1301 -0.0963  0.0190
   83loPI   C2A 1320  12.828  14.322   9.907 -0.0699 -0.0483 -0.1500
   83loPI   C3A 1321  13.000  14.266   9.485 -0.0452  0.2623  0.0893
   83loPI   C4A 1322  13.003  14.248   9.115 -0.0398  0.0462  0.0072
   83loPI   C5A 1323  13.086  14.268   8.754  0.0859 -0.2762  0.1148
   83loPI   C6A 1324  13.261  14.160   8.342  0.1079 -0.1537 -0.1409
   83loPI   C1B 1325  13.278  14.680  10.230 -0.3702  0.2315  0.4186
   83loPI   C2B 1326  13.372  14.554   9.870 -0.1618  0.0990 -0.1311
   83loPI   C3B 1327  13.470  14.604   9.434 -0.2101  0.1697  0.0617
   83loPI   C4B 1328  13.536  14.544   8.938  0.2604  0.0048 -0.1091
   84loPI    C1 1329  15.177  13.328  11.396 -0.0090 -0.0394 -0.1997
   84loPI    C2 1330  15.397  13.250  11.721 -0.3238  0.1327  0.0616
   84loPI    C3 1331  15.182  12.959  11.551  0.2291 -0.0802 -0.3016
   84loPI   PO4 1332  15.269  13.427  11.201  0.0258  0.1684  0.4297
   84loPI   GL1 1333  15.477  13.737  11.034 -0.1007  0.1201  0.2002
   84loPI   GL2 1334  15.677  13.937  10.857 -0.1659  0.3236 -0.3727
   84loPI   C1A 1335  15.222  13.755  10.622 -0.3558  0.2876  0.0055
   84loPI   C2A 1336  15.291  13.710  10.185  0.2971 -0.1243  0.3466
   84loPI   C3A 1337  15.328  13.667   9.773  0.3245  0.0277  0.0598
   84loPI   C4A 1338  15.319  13.718   9.333 -0.4625  0.0615 -0.2043
   84loPI   C5A 1339  15.399  13.738   8.951 -0.0366 -0.0059  0.1992
   84loPI   C6A 1340  15.323  13.741   8.550 -0.2583 -0.1914  0.0010
   84loPI   C1B 1341  15.663  13.906  10.463  0.0116 -0.3955  0.1472
   84loPI   C2B 1342  15.765  13.932  10.090 -0.0228  0.3310 -0.1232
   84loPI   C3B 1343  15.713  14.011   9.713  0.1896  0.0942  0.2329
   84loPI   C4B 1344  15.752  14.009   9.221 -0.2445 -0.3940 -0.0745
   85loPI    C1 1345   6.842  16.721  11.032 -0.0767  0.0856 -0.0180
   85loPI    C2 1346   6.695  17.037  11.230 -0.0241  0.0696  0.0467
   85loPI    C3 1347   6.985  16.815  11.394  0.0775  0.1053 -0.0837
   85loPI   PO4 1348   6.915  16.827  10.758 -0.1047  0.1902 -0.3446
   85loPI   GL1 1349   6.895  17.004  10.393 -0.0263 -0.2806 -0.0309
   85loPI   GL2 1350   6.917  16.788  10.209  0.1864  0.0867  0.0154
   85loPI   C1A 1351   6.626  17.124  10.009  0.0211  0.1710 -0.3288
   85loPI   C2A 1352   6.653  17.044   9.596 -0.2050  0.2189 -0.0792
   85loPI   C3A 1353   6.709  17.033   9.106 -0.1704 -0.2458  0.1139
   85loPI   C4A 1354   6.766  17.007   8.715  0.1195  0.4940  0.3716
   85loPI   C5A 1355   6.555  17.183   8.367 -0.2427  0.2484 -0.3560
   85loPI   C6A 1356   6.330  17.515   8.257  0.0605 -0.1358 -0.1320
   85loPI   C1B 1357   6.786  16.575   9.770 -0.1370 -0.2315  0.0404
   85loPI   C2B 1358   6.774  16.595   9.392 -0.1505  0.0304 -0.0502
   85loPI   C3B 1359   6.701  16.484   8.928  0.5588 -0.3418 -0.2562
   85loPI   C4B 1360   6.796  16.474   8.444  0.0510 -0.1081  0.1734
   86loPI    C1 1361   8.874   6.717  10.770  0.0971 -0.0958  0.0079
   86loPI    C2 1362   8.483   6.744  10.850  0.0829 -0.2888  0.0068
   86loPI    C3 1363   8.751   6.818  11.137  0.0507  0.0570 -0.0490
   86loPI   PO4 1364   8.905   6.791  10.539  0.2027  0.0935  0.0811
   86loPI   GL1 1365   8.794   6.508  10.260 -0.1166  0.1366  0.2304
   86loPI   GL2 1366   8.544   6.467  10.425 -0.0411  0.1407 -0.0365
   86loPI   C1A 1367   8.960   6.447   9.925  0.0804 -0.0844  0.2905
   86loPI   C2A 1368   8.848   6.417   9.539 -0.0037  0.0955  0.0963
   86loPI   C3A 1369   8.901   6.462   9.066  0.1465 -0.2422 -0.0618
   86loPI   C4A 1370   8.911   6.467   8.649 -0.0697  0.0739  0.1480
   86loPI   C5A 1371   8.987   6.786   8.373  0.1523 -0.0003  0.1944
   86loPI   C6A 1372   9.034   6.688   7.985 -0.0167  0.2090 -0.1740
   86loPI   C1B 1373   8.501   6.254   9.909 -0.2401 -0.1993  0.1933
   86loPI   C2B 1374   8.447   6.187   9.442 -0.0427  0.2899  0.2043
   86loPI   C3B 1375   8.512   6.135   9.020 -0.1439  0.1195  0.2037
   86loPI   C4B 1376   8.431   6.254   8.662 -0.1485 -0.1057  0.0533
   87loPI    C1 1377  10.255   3.394  11.090  0.0001  0.1419 -0.1620
   87loPI    C2 1378   9.857   3.417  11.118  0.0033 -0.0512  0.0691
   87loPI    C3 1379  10.086   3.521  11.429  0.1223 -0.2066  0.0351
   87loPI   PO4 1380  10.256   3.472  10.768 -0.1108  0.0801 -0.1689
   87loPI   GL1 1381  10.093   3.507  10.362  0.2682 -0.0792 -0.0196
   87loPI   GL2 1382  10.138   3.712  10.241  0.1507  0.0905  0.1178
   87loPI   C1A 1383   9.769   3.250  10.179 -0.1051 -0.0621  0.2608
   87loPI   C2A 1384   9.794   3.249   9.744  0.0303  0.1007 -0.0561
   87loPI   C3A 1385   9.738   3.238   9.272 -0.1940  0.0239 -0.3859
   87loPI   C4A 1386   9.729   3.192   8.870 -0.1596 -0.0083 -0.1474
   87loPI   C5A 1387   9.594   3.078   8.525 -0.0125 -0.1385 -0.5992
   87loPI   C6A 1388   9.254   2.807   8.559 -0.0303 -0.1834  0.0660
   87loPI   C1B 1389  10.225   3.569   9.781 -0.0584 -0.1397  0.1190
   87loPI   C2B 1390  10.156   3.525   9.320 -0.0372 -0.3882  0.1212
   87loPI   C3B 1391  10.123   3.528   8.955  0.0902 -0.1835  0.0060
   87loPI   C4B 1392  10.026   3.323   8.498 -0.0010  0.0807 -0.1279
   88loPI    C1 1393   3.396   6.458  11.446 -0.4599  0.0451 -0.1886
   88loPI    C2 1394   3.217   6.764  11.631  0.0018  0.1460  0.1073
   88loPI    C3 1395   3.616   6.736  11.630 -0.0316 -0.4598  0.0901
   88loPI   PO4 1396   3.255   6.461  11.199 -0.1728 -0.1280  0.0869
   88loPI   GL1 1397   3.117   6.657  10.801 -0.2302 -0.2047 -0.2581
   88loPI   GL2 1398   3.337   6.755  10.765 -0.1273  0.0365  0.1023
   88loPI   C1A 1399   2.829   6.892  10.611  0.1473  0.2972 -0.1094
   88loPI   C2A 1400   2.737   6.859  10.199  0.0804  0.0647  0.0138
   88loPI   C3A 1401   2.681   6.934   9.826 -0.0968  0.0575 -0.2202
   88loPI   C4A 1402   2.693   6.939   9.333  0.0817  0.0444  0.0368
   88loPI   C5A 1403   2.563   6.882   8.871 -0.1564  0.0468  0.2098
   88loPI   C6A 1404   2.488   7.110   8.565 -0.0112 -0.1792  0.1044
   88loPI   C1B 1405   3.250   6.878  10.378  0.2745  0.3292  0.0427
   88loPI   C2B 1406   3.143   6.649  10.014  0.4607  0.0402 -0.0270
   88loPI   C3B 1407   3.056   6.706   9.552  0.1878 -0.0646 -0.0854
   88loPI   C4B 1408   3.039   6.685   8.993  0.0599 -0.0187 -0.0887
   89loPI    C1 1409  14.674   0.564  11.402 -0.2411  0.2806 -0.0499
   89loPI    C2 1410  14.952   0.419  11.650 -0.2086  0.3699 -0.0336
   89loPI    C3 1411  14.853   0.806  11.666 -0.0406  0.4267 -0.3147
   89loPI   PO4 1412  14.729   0.467  11.177 -0.1900  0.2224 -0.1975
   89loPI   GL1 1413  14.717   0.549  10.788  0.2113 -0.0947 -0.0636
   89loPI   GL2 1414  14.588   0.301  10.724 -0.0298 -0.0482 -0.1014
   89loPI   C1A 1415  14.890   0.544  10.398 -0.0215 -0.2974  0.2625
   89loPI   C2A 1416  14.967   0.520  10.004 -0.0171 -0.1128 -0.0966
   89loPI   C3A 1417  15.011   0.596   9.691  0.1850  0.3203 -0.2526
   89loPI   C4A 1418  14.980   0.545   9.282 -0.0047  0.0939  0.2690
   89loPI   C5A 1419  14.865   0.618   8.816 -0.2947  0.1299  0.0778
   89loPI   C6A 1420  14.631   0.631   8.442 -0.1449  0.0038  0.1843
   89loPI   C1B 1421  14.533   0.155  10.406 -0.0212 -0.0636  0.1505
   89loPI   C2B 1422  14.544   0.242   9.952  0.2025  0.2273 -0.1120
   89loPI   C3B 1423  14.613   0.172   9.502 -0.2690 -0.0871 -0.1560
   89loPI   C4B 1424  14.580   0.224   9.110 -0.1819 -0.1718 -0.4793
   90loPI    C1 1425  15.133  11.997  11.418  0.0500  0.1504  0.3663
   90loPI    C2 1426  14.801  12.198  11.512  0.0121  0.1656  0.2030
   90loPI    C3 1427  15.156  12.326  11.645 -0.0559  0.0934  0.4601
   90loPI   PO4 1428  15.097  11.923  11.053  0.1193  0.0471  0.1480
   90loPI   GL1 1429  15.143  12.043  10.602 -0.0051  0.2828 -0.1273
   90loPI   GL2 1430  15.107  11.703  10.498  0.0454  0.1920  0.1179
   90loPI   C1A 1431  15.478  12.062  10.358  0.0161 -0.0124  0.0738
   90loPI   C2A 1432  15.506  12.159   9.916  0.1264  0.0408  0.1265
   90loPI   C3A 1433  15.500  12.134   9.490 -0.1001  0.1425 -0.1216
   90loPI   C4A 1434  15.459  12.134   9.035 -0.0107 -0.3078  0.0701
   90loPI   C5A 1435  15.393  11.856   8.649  0.1200  0.0726 -0.3649
   90loPI   C6A 1436  15.741  11.643   8.412  0.1258  0.2723  0.3486
   90loPI   C1B 1437  15.108  11.839  10.055  0.0110 -0.1822  0.0634
   90loPI   C2B 1438  15.083  11.876   9.601  0.1095 -0.1205 -0.2541
   90loPI   C3B 1439  15.076  11.858   9.257  0.0006  0.1514  0.0283
   90loPI   C4B 1440  14.970  11.926   8.811 -0.1520 -0.0377  0.3003
   91loPI    C1 1441  11.591   1.041  11.040 -0.0032  0.1715 -0.1686
   91loPI    C2 1442  11.302   1.139  11.298 -0.0682  0.0448 -0.1927
   91loPI    C3 1443  11.683   1.223  11.384 -0.0767 -0.1113  0.0037
   91loPI   PO4 1444  11.541   1.082  10.871 -0.0088  0.2539  0.1704
   91loPI   GL1 1445  11.778   1.022  10.510 -0.1532 -0.0224 -0.1916
   91loPI   GL2 1446  11.428   1.048  10.369 -0.2497 -0.0983  0.0591
   91loPI   C1A 1447  11.788   0.968  10.079  0.2661  0.1361 -0.0284
   91loPI   C2A 1448  11.847   0.979   9.666 -0.0824 -0.1551 -0.2883
   91loPI   C3A 1449  11.825   0.957   9.216  0.0356  0.2004 -0.1347
   91loPI   C4A 1450  11.866   0.895   8.830 -0.0316  0.2413  0.3510
   91loPI   C5A 1451  11.599   0.643   8.453  0.0831  0.0858 -0.1412
   91loPI   C6A 1452  11.283   0.682   8.182  0.2920  0.0776  0.2176
   91loPI   C1B 1453  11.310   1.093   9.930 -0.2452  0.1900  0.1468
   91loPI   C2B 1454  11.391   1.154   9.456 -0.1723 -0.2143 -0.1096
   91loPI   C3B 1455  11.406   1.123   9.047  0.2046 -0.0019 -0.1208
   91loPI   C4B 1456  11.504   1.118   8.534  0.3492 -0.0441  0.0887
   92loPI    C1 1457   7.859   9.181  11.320 -0.1093  0.2607 -0.0163
   92loPI    C2 1458   8.122   9.389  11.538 -0.0000  0.0614  0.0456
   92loPI    C3 1459   7.736   9.386  11.641  0.0580 -0.0675  0.2650
   92loPI   PO4 1460   7.940   9.331  11.005 -0.0687  0.2656  0.0364
   92loPI   GL1 1461   8.065   9.446  10.632  0.1556  0.1520  0.2202
   92loPI   GL2 1462   8.234   9.263  10.569  0.0705 -0.0303  0.1973
   92loPI   C1A 1463   7.940   9.517  10.216 -0.1835  0.0906 -0.1759
   92loPI   C2A 1464   7.957   9.621   9.867 -0.0066  0.1862  0.2326
   92loPI   C3A 1465   7.930   9.455   9.407 -0.3394  0.0572 -0.2139
   92loPI   C4A 1466   7.946   9.478   8.998 -0.1998  0.1327  0.0576
   92loPI   C5A 1467   7.938   9.294   8.650  0.2336 -0.2080  0.1223
   92loPI   C6A 1468   8.286   9.098   8.384  0.4846 -0.0569  0.0353
   92loPI   C1B 1469   8.350   9.250  10.132  0.0954 -0.1823 -0.0443
   92loPI   C2B 1470   8.381   9.323   9.663  0.0901 -0.2464 -0.1651
   92loPI   C3B 1471   8.403   9.308   9.174 -0.2457  0.0046  0.5327
   92loPI   C4B 1472   8.461   9.347   8.805 -0.0280  0.1340  0.0261
   93loPI    C1 1473   1.093   9.131  11.256  0.1794  0.0658  0.0434
   93loPI    C2 1474   1.021   9.504  11.131 -0.0145  0.0472  0.0964
   93loPI    C3 1475   1.099   9.434  11.517  0.0485  0.0360  0.0819
   93loPI   PO4 1476   1.122   9.013  11.051 -0.1507  0.1722 -0.0323
   93loPI   GL1 1477   0.966   9.230  10.603  0.2121 -0.0603  0.0380
   93loPI   GL2 1478   1.092   9.438  10.688 -0.1101 -0.2996 -0.2210
   93loPI   C1A 1479   1.115   9.221  10.232  0.1142  0.1304  0.0166
   93loPI   C2A 1480   1.238   9.148   9.872 -0.0124  0.0978 -0.1053
   93loPI   C3A 1481   1.143   9.131   9.468  0.3355  0.0797 -0.3288
   93loPI   C4A 1482   1.065   9.110   9.018  0.2325  0.3624 -0.1131
   93loPI   C5A 1483   1.077   8.924   8.512  0.1276 -0.3096  0.3806
   93loPI   C6A 1484   1.212   8.921   8.147 -0.2460 -0.1103 -0.0818
   93loPI   C1B 1485   1.039   9.719  10.242  0.0848  0.1191  0.2420
   93loPI   C2B 1486   1.091   9.621   9.794  0.0000  0.0240 -0.1250
   93loPI   C3B 1487   1.063   9.681   9.322 -0.0912 -0.0570  0.2619
   93loPI   C4B 1488   1.149   9.637   8.898  0.1119 -0.3998 -0.0316
   94loPI    C1 1489   8.554  11.038  10.572  0.0998  0.0920 -0.0934
   94loPI    C2 1490   8.331  11.350  10.685  0.2510  0.0989  0.1944
   94loPI    C3 1491   8.661  11.255  10.890  0.1723 -0.2894  0.1496
   94loPI   PO4 1492   8.312  10.891  10.415 -0.0809  0.0089  0.0769
   94loPI   GL1 1493   8.331  10.474  10.114  0.0436  0.1958  0.1620
   94loPI   GL2 1494   8.280  10.742   9.945  0.0407  0.1036  0.1477
   94loPI   C1A 1495   8.354  10.251   9.803  0.2947  0.1439 -0.2264
   94loPI   C2A 1496   8.296  10.218   9.381 -0.2016 -0.1484 -0.1099
   94loPI   C3A 1497   8.395  10.293   8.954  0.0635 -0.1728  0.0422
   94loPI   C4A 1498   8.379  10.359   8.468  0.1319  0.3466  0.1891
   94loPI   C5A 1499   8.610  10.623   8.176  0.1230  0.1140 -0.0926
   94loPI   C6A 1500   8.735  11.022   7.939 -0.1164  0.0598 -0.1369
   94loPI   C1B 1501   8.221  10.860   9.490 -0.0550 -0.0010  0.3346
   94loPI   C2B 1502   8.313  10.808   9.032  0.3643  0.3046 -0.0621
   94loPI   C3B 1503   8.312  10.886   8.611 -0.0412 -0.1201  0.1351
   94loPI   C4B 1504   8.275  11.062   8.209 -0.0356 -0.1784  0.1034
   95loPI    C1 1505  14.616  12.811  11.171 -0.3245 -0.0519  0.0734
   95loPI    C2 1506  14.673  12.679  11.545 -0.1559 -0.2224 -0.0106
   95loPI    C3 1507  14.677  13.071  11.469 -0.2079 -0.1863  0.1688
   95loPI   PO4 1508  14.760  12.688  11.042 -0.0562 -0.0533  0.0917
   95loPI   GL1 1509  14.865  12.563  10.553  0.0206  0.0935 -0.0509
   95loPI   GL2 1510  14.602  12.550  10.563  0.0797 -0.1358 -0.3121
   95loPI   C1A 1511  15.031  12.396  10.239  0.0902  0.2526  0.2412
   95loPI   C2A 1512  14.989  12.335   9.768 -0.1089  0.1268  0.2152
   95loPI   C3A 1513  15.053  12.348   9.375 -0.0688  0.0517 -0.2088
   95loPI   C4A 1514  14.984  12.416   8.984  0.2324  0.2329  0.2077
   95loPI   C5A 1515  15.135  12.326   8.548  0.1799  0.0076  0.1123
   95loPI   C6A 1516  15.102  12.281   8.082  0.1599  0.0154  0.0327
   95loPI   C1B 1517  14.432  12.566  10.173 -0.2536  0.4027  0.1650
   95loPI   C2B 1518  14.511  12.625   9.747 -0.1214  0.0811  0.0338
   95loPI   C3B 1519  14.461  12.630   9.368 -0.2505  0.1045 -0.1052
   95loPI   C4B 1520  14.533  12.638   8.957 -0.2540 -0.1475 -0.1102
   96loPI    C1 1521   5.116   2.117  11.192 -0.0308 -0.2044  0.1118
   96loPI    C2 1522   5.347   1.849  11.005  0.0553 -0.0973  0.0630
   96loPI    C3 1523   5.333   1.857  11.405  0.0229 -0.1988  0.0642
   96loPI   PO4 1524   4.915   2.089  10.953  0.0920 -0.0012  0.1016
   96loPI   GL1 1525   5.074   1.928  10.585 -0.0051 -0.0458  0.2196
   96loPI   GL2 1526   5.106   2.266  10.540 -0.1740  0.0387 -0.0987
   96loPI   C1A 1527   5.100   1.787  10.092  0.2489 -0.1334 -0.0239
   96loPI   C2A 1528   4.984   1.866   9.654  0.1625  0.0286  0.0854
   96loPI   C3A 1529   5.058   1.853   9.209 -0.1376  0.2378 -0.0636
   96loPI   C4A 1530   5.012   1.936   8.750  0.0142 -0.0394  0.2204
   96loPI   C5A 1531   4.884   2.103   8.323  0.0958 -0.0099 -0.3089
   96loPI   C6A 1532   4.963   2.317   7.932 -0.0050  0.3996  0.3986
   96loPI   C1B 1533   4.983   2.317  10.134  0.0768 -0.2776  0.1388
   96loPI   C2B 1534   4.906   2.481   9.702  0.0176  0.1486  0.1758
   96loPI   C3B 1535   4.968   2.356   9.314  0.1081  0.0870  0.3567
   96loPI   C4B 1536   4.924   2.464   8.941  0.4707  0.1785 -0.3800
   97loPI    C1 1537   2.932  14.308  10.927  0.4847  0.0913  0.1467
   97loPI    C2 1538   2.948  14.592  11.209 -0.0717  0.2159  0.0645
   97loPI    C3 1539   2.835  14.220  11.305  0.0687  0.1727  0.0644
   97loPI   PO4 1540   2.725  14.386  10.658 -0.0718 -0.0214 -0.2787
   97loPI   GL1 1541   2.893  14.428  10.282 -0.0748 -0.0704  0.2556
   97loPI   GL2 1542   2.584  14.468  10.211  0.1467 -0.3153 -0.0711
   97loPI   C1A 1543   2.824  14.356   9.749 -0.0260 -0.0126  0.1740
   97loPI   C2A 1544   2.820  14.335   9.264  0.3016 -0.1338  0.0148
   97loPI   C3A 1545   2.816  14.289   8.847 -0.0005  0.2385 -0.0205
   97loPI   C4A 1546   2.692  14.272   8.396 -0.2481 -0.1056 -0.1448
   97loPI   C5A 1547   2.880  14.574   8.086  0.0891 -0.1853  0.0382
   97loPI   C6A 1548   3.033  14.915   7.882  0.0728 -0.0720 -0.3735
   97loPI   C1B 1549   2.358  14.479   9.757  0.1317  0.2001 -0.2503
   97loPI   C2B 1550   2.310  14.457   9.312  0.0317 -0.3379  0.0389
   97loPI   C3B 1551   2.307  14.521   8.852 -0.0403 -0.1533 -0.1244
   97loPI   C4B 1552   2.294  14.577   8.412  0.0837  0.3109 -0.0418
   98loPI    C1 1553  11.997   4.786  11.442 -0.1422 -0.0886  0.0701
   98loPI    C2 1554  11.741   4.953  11.699  0.1207  0.0726  0.2328
   98loPI    C3 1555  12.094   5.127  11.628  0.1754 -0.1317 -0.0094
   98loPI   PO4 1556  11.819   4.765  11.179  0.1386  0.1974  0.0776
   98loPI   GL1 1557  11.719   4.883  10.818  0.2155  0.2503  0.0931
   98loPI   GL2 1558  11.477   5.025  10.849  0.0517 -0.2272 -0.2824
   98loPI   C1A 1559  11.833   4.879  10.358 -0.0313 -0.0114 -0.3445
   98loPI   C2A 1560  11.796   4.909   9.962  0.2231 -0.1194 -0.1016
   98loPI   C3A 1561  11.777   4.914   9.541 -0.2563  0.0883  0.3358
   98loPI   C4A 1562  11.804   4.908   9.102  0.0529  0.0025 -0.1231
   98loPI   C5A 1563  11.564   5.099   8.761  0.0311 -0.1243  0.0921
   98loPI   C6A 1564  11.620   5.454   8.604 -0.1407 -0.0648 -0.4501
   98loPI   C1B 1565  11.428   5.145  10.499  0.0349  0.1197  0.1292
   98loPI   C2B 1566  11.305   5.092  10.132 -0.1048  0.2258  0.1703
   98loPI   C3B 1567  11.318   5.136   9.697  0.0169  0.1597  0.0326
   98loPI   C4B 1568  11.365   5.082   9.238 -0.0156  0.0938 -0.0194
   99loPI    C1 1569  14.173  12.378  10.822 -0.0975 -0.3434  0.0209
   99loPI    C2 1570  14.361  12.303  11.166 -0.0493  0.0054  0.0744
   99loPI    C3 1571  14.161  12.011  10.980  0.1400 -0.2498  0.2634
   99loPI   PO4 1572  14.182  12.643  10.812 -0.1128 -0.0612 -0.2642
   99loPI   GL1 1573  14.397  12.958  10.701  0.0290 -0.1139  0.1258
   99loPI   GL2 1574  14.133  12.935  10.410  0.1427 -0.3718  0.2427
   99loPI   C1A 1575  14.672  13.030  10.381  0.1955  0.0264 -0.0498
   99loPI   C2A 1576  14.816  12.885  10.033 -0.0504 -0.1006 -0.1193
   99loPI   C3A 1577  14.879  12.894   9.583 -0.0514 -0.1051 -0.1911
   99loPI   C4A 1578  14.994  12.883   9.168  0.0278 -0.0493  0.0178
   99loPI   C5A 1579  14.993  12.957   8.720  0.2647 -0.1179 -0.1680
   99loPI   C6A 1580  14.766  12.585   8.414 -0.1044 -0.0102 -0.1598
   99loPI   C1B 1581  14.001  12.854   9.963 -0.0756 -0.0952  0.5451
   99loPI   C2B 1582  14.045  12.790   9.544  0.3082 -0.2782  0.0058
   99loPI   C3B 1583  14.011  12.715   9.127  0.1282  0.2144 -0.0546
   99loPI   C4B 1584  14.178  12.902   8.683 -0.1579  0.0207  0.0120
  100loPI    C1 1585   8.061  13.606  10.463  0.1629  0.0546  0.1343
  100loPI    C2 1586   8.220  13.572  10.828  0.1273 -0.2140  0.1266
  100loPI    C3 1587   7.919  13.333  10.718 -0.1093  0.1128  0.0486
  100loPI   PO4 1588   7.989  13.902  10.373  0.3096  0.1332  0.0076
  100loPI   GL1 1589   7.726  13.869  10.037 -0.0471 -0.1130  0.0256
  100loPI   GL2 1590   7.999  13.903   9.800 -0.0811 -0.0189  0.2948
  100loPI   C1A 1591   7.517  13.653   9.696  0.1862 -0.0473 -0.1565
  100loPI   C2A 1592   7.514  13.751   9.269  0.1363 -0.2524  0.0807
  100loPI   C3A 1593   7.634  13.682   8.851 -0.0340  0.0164 -0.0833
  100loPI   C4A 1594   7.689  13.591   8.418  0.1180 -0.2844  0.3250
  100loPI   C5A 1595   7.841  13.142   8.184 -0.3598 -0.2268  0.0123
  100loPI   C6A 1596   7.665  12.702   8.072  0.1857  0.1055 -0.3744
  100loPI   C1B 1597   8.086  14.050   9.404  0.1580 -0.1168 -0.3784
  100loPI   C2B 1598   7.999  13.968   8.963  0.1644 -0.0577 -0.0603
  100loPI   C3B 1599   8.078  13.910   8.533 -0.0232 -0.0286  0.1031
  100loPI   C4B 1600   8.119  13.730   8.054 -0.0311 -0.1399 -0.1608
  101loPI    C1 1601   7.417  13.074  10.825 -0.0024 -0.1602  0.0481
  101loPI    C2 1602   7.538  13.362  11.075  0.0405 -0.1530  0.0193
  101loPI    C3 1603   7.205  13.412  10.859  0.2247  0.0149 -0.2307
  101loPI   PO4 1604   7.575  12.995  10.534 -0.0253  0.0664 -0.0366
  101loPI   GL1 1605   7.381  12.940  10.125 -0.1868  0.1444 -0.1982
  101loPI   GL2 1606   7.627  13.130  10.055 -0.0935  0.1256 -0.2423
  101loPI   C1A 1607   7.228  12.910   9.725 -0.0277 -0.2079  0.2272
  101loPI   C2A 1608   7.209  12.884   9.258  0.2119  0.2598  0.1142
  101loPI   C3A 1609   7.170  12.850   8.848  0.1136 -0.1228 -0.0989
  101loPI   C4A 1610   7.175  12.766   8.330  0.0460  0.0768  0.2282
  101loPI   C5A 1611   6.953  12.625   7.974 -0.1245  0.2212 -0.0686
  101loPI   C6A 1612   6.868  12.353   7.680 -0.0642  0.0224  0.0651
  101loPI   C1B 1613   7.667  13.129   9.553  0.1135 -0.1433  0.1596
  101loPI   C2B 1614   7.597  13.207   9.135  0.1736 -0.1122 -0.0767
  101loPI   C3B 1615   7.587  13.175   8.711 -0.2548 -0.2876 -0.2458
  101loPI   C4B 1616   7.415  13.164   8.342  0.0697 -0.0516 -0.1143
  102loPI    C1 1617   3.958  17.416  10.899  0.1282  0.2990  0.0294
  102loPI    C2 1618   4.276  17.571  11.085  0.0841  0.3482  0.0643
  102loPI    C3 1619   3.939  17.502  11.289  0.1669  0.0184  0.0955
  102loPI   PO4 1620   3.905  17.495  10.680 -0.0158 -0.0625  0.0256
  102loPI   GL1 1621   3.802  17.788  10.471  0.2618 -0.1903  0.0215
  102loPI   GL2 1622   3.439  17.874  10.553 -0.4779  0.0172  0.1018
  102loPI   C1A 1623   3.829  17.737  10.001 -0.0048  0.0224  0.2944
  102loPI   C2A 1624   3.836  17.854   9.559 -0.2226 -0.2176 -0.1035
  102loPI   C3A 1625   3.805  17.768   9.154  0.1999  0.1991  0.2280
  102loPI   C4A 1626   3.900  17.863   8.654  0.0546 -0.1158 -0.1620
  102loPI   C5A 1627   3.951  17.772   8.201  0.1560 -0.1257 -0.2935
  102loPI   C6A 1628   3.689  17.623   7.808  0.2600  0.0618  0.0713
  102loPI   C1B 1629   3.388  17.955  10.122  0.2236  0.2084  0.6322
  102loPI   C2B 1630   3.334  18.105   9.680  0.0755  0.2477  0.0885
  102loPI   C3B 1631   3.405  18.012   9.244  0.1470 -0.0127  0.0259
  102loPI   C4B 1632   3.420  18.155   8.745  0.3960  0.0630 -0.1322
  103loPI    C1 1633   7.865   9.866  10.917  0.0573 -0.0005  0.1336
  103loPI    C2 1634   7.744  10.106  11.213 -0.1532 -0.0425  0.0833
  103loPI    C3 1635   7.863   9.733  11.294 -0.2643 -0.0726  0.1093
  103loPI   PO4 1636   8.043  10.048  10.770 -0.3186  0.0132  0.0665
  103loPI   GL1 1637   8.115  10.036  10.410  0.1602  0.0080 -0.0888
  103loPI   GL2 1638   8.400  10.028  10.286  0.0902  0.1252 -0.2872
  103loPI   C1A 1639   7.944  10.050  10.043  0.0009 -0.1266  0.0290
  103loPI   C2A 1640   7.775   9.964   9.580  0.1020 -0.1485  0.3375
  103loPI   C3A 1641   7.899   9.995   9.195 -0.1370 -0.0735 -0.0453
  103loPI   C4A 1642   7.898   9.950   8.711  0.1028  0.0637 -0.0138
  103loPI   C5A 1643   7.694   9.825   8.316 -0.1171 -0.1918  0.0223
  103loPI   C6A 1644   7.790   9.757   7.888  0.0364  0.0775  0.1490
  103loPI   C1B 1645   8.422   9.776   9.994 -0.0754 -0.2194  0.0529
  103loPI   C2B 1646   8.349   9.791   9.578  0.0757 -0.1059  0.2801
  103loPI   C3B 1647   8.369   9.801   9.091  0.2519 -0.0774 -0.1180
  103loPI   C4B 1648   8.305   9.775   8.605  0.3861 -0.2702  0.1718
  104loPI    C1 1649  16.391  11.596  11.432  0.0734  0.0422 -0.0211
  104loPI    C2 1650  16.625  11.357  11.651 -0.0502 -0.1363 -0.0812
  104loPI    C3 1651  16.362  11.598  11.831  0.0320 -0.0894 -0.0229
  104loPI   PO4 1652  16.511  11.543  11.222 -0.2406 -0.0113 -0.0357
  104loPI   GL1 1653  16.615  11.699  10.906 -0.0670 -0.3054  0.0317
  104loPI   GL2 1654  16.473  11.517  10.732  0.5570  0.1242  0.1116
  104loPI   C1A 1655  16.866  11.904  10.615  0.2105 -0.2946 -0.0262
  104loPI   C2A 1656  16.919  12.052  10.206 -0.2709 -0.0489 -0.1765
  104loPI   C3A 1657  16.855  12.041   9.769  0.0542 -0.0026  0.0088
  104loPI   C4A 1658  16.969  12.103   9.381 -0.0120 -0.0642  0.2361
  104loPI   C5A 1659  16.826  11.991   8.980 -0.0310  0.1874  0.1619
  104loPI   C6A 1660  16.951  12.018   8.553 -0.3106 -0.0654  0.1291
  104loPI   C1B 1661  16.488  11.675  10.386  0.0293  0.1093 -0.0271
  104loPI   C2B 1662  16.512  11.718   9.995  0.1826  0.0415  0.0168
  104loPI   C3B 1663  16.411  11.690   9.559  0.1064 -0.4312  0.0241
  104loPI   C4B 1664  16.402  11.734   9.132 -0.0885  0.4021 -0.0076
  105loPI    C1 1665   5.887   6.232  11.301  0.1349 -0.1763 -0.0067
  105loPI    C2 1666   5.626   5.949  11.191 -0.1285 -0.0455  0.2678
  105loPI    C3 1667   5.951   5.850  11.403 -0.0402 -0.1857  0.0705
  105loPI   PO4 1668   6.043   6.385  11.027 -0.1811 -0.2113  0.0395
  105loPI   GL1 1669   6.026   6.380  10.588 -0.0798  0.1240  0.0380
  105loPI   GL2 1670   5.702   6.569  10.486 -0.0633  0.0490  0.0462
  105loPI   C1A 1671   6.211   6.298  10.255 -0.1850 -0.3643  0.1459
  105loPI   C2A 1672   6.298   6.316   9.881  0.0359  0.1228  0.0427
  105loPI   C3A 1673   6.282   6.305   9.388  0.0906 -0.1519 -0.1093
  105loPI   C4A 1674   6.157   6.171   8.941 -0.0936 -0.1496 -0.0719
  105loPI   C5A 1675   6.066   6.017   8.623 -0.0158  0.1601  0.0998
  105loPI   C6A 1676   5.801   5.772   8.564 -0.0719  0.1709 -0.0586
  105loPI   C1B 1677   5.789   6.504  10.031  0.2856  0.0557 -0.0161
  105loPI   C2B 1678   5.890   6.492   9.644  0.2035  0.1057  0.0160
  105loPI   C3B 1679   5.756   6.405   9.208 -0.2486  0.0137 -0.0556
  105loPI   C4B 1680   5.815   6.499   8.662 -0.0235 -0.2654 -0.0719
  106loPI    C1 1681   5.562   2.261  11.468 -0.0384 -0.0123 -0.1977
  106loPI    C2 1682   5.480   2.652  11.468 -0.0247 -0.0094 -0.2414
  106loPI    C3 1683   5.200   2.389  11.580  0.0486  0.0301  0.0420
  106loPI   PO4 1684   5.619   2.214  11.197  0.0167  0.4311 -0.2226
  106loPI   GL1 1685   5.621   2.291  10.813  0.0676  0.1968 -0.2303
  106loPI   GL2 1686   5.912   2.077  10.729 -0.0853 -0.2080 -0.1054
  106loPI   C1A 1687   5.557   2.119  10.371  0.3146  0.0490  0.0036
  106loPI   C2A 1688   5.451   2.101   9.947  0.3683  0.3599 -0.0906
  106loPI   C3A 1689   5.384   2.196   9.506  0.0749  0.1324  0.0546
  106loPI   C4A 1690   5.405   2.161   9.039  0.4415  0.0466  0.1169
  106loPI   C5A 1691   5.645   2.153   8.554 -0.1236 -0.0080 -0.0515
  106loPI   C6A 1692   5.369   2.268   8.233  0.0734  0.0259  0.0149
  106loPI   C1B 1693   5.989   1.948  10.274 -0.0107 -0.4046 -0.0121
  106loPI   C2B 1694   5.933   2.090   9.888  0.0489  0.0042  0.2323
  106loPI   C3B 1695   5.920   1.937   9.468 -0.0471 -0.4496  0.4129
  106loPI   C4B 1696   5.919   2.013   8.979  0.4351  0.0626 -0.1545
  107loPI    C1 1697  12.887   9.310  11.183 -0.0591 -0.0075  0.2114
  107loPI    C2 1698  12.551   9.482  11.317 -0.0613  0.1385  0.0234
  107loPI    C3 1699  12.836   9.370  11.575 -0.2790 -0.0423  0.1891
  107loPI   PO4 1700  12.796   9.188  10.864 -0.0890  0.2300 -0.0401
  107loPI   GL1 1701  12.940   8.986  10.434 -0.0147  0.2678 -0.2246
  107loPI   GL2 1702  13.090   9.309  10.472 -0.0642  0.0522  0.0131
  107loPI   C1A 1703  13.097   8.856  10.052 -0.1348  0.0106  0.2755
  107loPI   C2A 1704  13.103   8.777   9.589 -0.3670 -0.2743  0.0820
  107loPI   C3A 1705  13.127   8.706   9.115  0.0399  0.2413 -0.0445
  107loPI   C4A 1706  13.084   8.705   8.743 -0.0468 -0.1307  0.0226
  107loPI   C5A 1707  13.188   8.916   8.343  0.3081  0.1816 -0.1575
  107loPI   C6A 1708  13.239   9.233   8.065 -0.1902 -0.0908 -0.0223
  107loPI   C1B 1709  13.027   9.400  10.075 -0.3034 -0.1304  0.0394
  107loPI   C2B 1710  13.065   9.267   9.627 -0.0750  0.2329  0.3085
  107loPI   C3B 1711  13.094   9.191   9.192  0.0175 -0.0121  0.0639
  107loPI   C4B 1712  12.983   9.238   8.822 -0.0449  0.0926 -0.1355
  108loPI    C1 1713  13.027   5.786  11.034 -0.0686 -0.1391  0.1423
  108loPI    C2 1714  12.942   5.868  11.416 -0.0358  0.1512  0.0897
  108loPI    C3 1715  12.657   5.898  11.137 -0.0686 -0.0947  0.0945
  108loPI   PO4 1716  13.213   5.536  10.990 -0.1706  0.2440 -0.2343
  108loPI   GL1 1717  13.188   5.338  10.561  0.1315 -0.5763 -0.1250
  108loPI   GL2 1718  13.453   5.200  10.420  0.0833 -0.3448  0.3616
  108loPI   C1A 1719  13.066   5.325  10.110 -0.1226  0.2033 -0.0118
  108loPI   C2A 1720  13.102   5.284   9.680  0.0492  0.0880  0.0696
  108loPI   C3A 1721  13.044   5.401   9.170 -0.1321 -0.0537  0.1004
  108loPI   C4A 1722  13.030   5.303   8.824 -0.1316 -0.3642  0.0342
  108loPI   C5A 1723  13.164   5.205   8.450  0.3479 -0.0681 -0.0568
  108loPI   C6A 1724  12.914   5.104   8.074  0.1984 -0.1970 -0.3580
  108loPI   C1B 1725  13.499   5.174   9.975  0.0176 -0.0574 -0.2201
  108loPI   C2B 1726  13.605   5.185   9.510  0.1944  0.0619  0.0682
  108loPI   C3B 1727  13.512   5.133   9.080  0.2276 -0.0699 -0.1996
  108loPI   C4B 1728  13.589   4.997   8.710 -0.3079  0.0332 -0.2912
  109loPI    C1 1729  13.456   7.382  11.034 -0.1311  0.0162  0.1873
  109loPI    C2 1730  13.848   7.390  11.116 -0.0892  0.0529 -0.0100
  109loPI    C3 1731  13.580   7.422  11.412  0.0555 -0.1216  0.1421
  109loPI   PO4 1732  13.400   7.116  10.851 -0.0413 -0.0012  0.1951
  109loPI   GL1 1733  13.445   6.894  10.438  0.1323  0.0975  0.3393
  109loPI   GL2 1734  13.221   6.749  10.434 -0.1914 -0.3014  0.0284
  109loPI   C1A 1735  13.794   6.568  10.216 -0.0234  0.0186 -0.2299
  109loPI   C2A 1736  13.847   6.386   9.728 -0.0506 -0.2241  0.0145
  109loPI   C3A 1737  13.890   6.414   9.299 -0.1364 -0.0175 -0.0993
  109loPI   C4A 1738  13.833   6.504   8.859 -0.1065  0.0261 -0.1286
  109loPI   C5A 1739  13.777   6.563   8.483 -0.0240  0.0163 -0.1947
  109loPI   C6A 1740  13.496   6.547   8.097 -0.0905  0.0962  0.1298
  109loPI   C1B 1741  13.282   6.645   9.963 -0.0465  0.0075  0.4084
  109loPI   C2B 1742  13.441   6.619   9.531  0.0887 -0.1047 -0.0573
  109loPI   C3B 1743  13.406   6.637   9.119  0.1678  0.1283 -0.0131
  109loPI   C4B 1744  13.316   6.592   8.660  0.1739  0.0518 -0.0447
  110loPI    C1 1745  11.590   7.292  11.161  0.0729  0.2888 -0.1083
  110loPI    C2 1746  11.306   7.235  11.437 -0.0219  0.1988 -0.2232
  110loPI    C3 1747  11.682   7.123  11.512 -0.0816  0.0122 -0.1974
  110loPI   PO4 1748  11.561   7.157  10.952 -0.0726 -0.1532 -0.1410
  110loPI   GL1 1749  11.538   7.091  10.555  0.3278 -0.0801  0.1191
  110loPI   GL2 1750  11.504   7.289  10.396  0.1508  0.0465  0.0640
  110loPI   C1A 1751  11.502   6.924  10.099 -0.0376  0.2142  0.2314
  110loPI   C2A 1752  11.430   6.941   9.576  0.0425  0.0178 -0.1035
  110loPI   C3A 1753  11.470   7.015   9.177  0.0641  0.3172  0.2838
  110loPI   C4A 1754  11.750   7.101   8.922 -0.0066  0.1640  0.0478
  110loPI   C5A 1755  11.896   7.499   8.561 -0.0859  0.1050  0.1037
  110loPI   C6A 1756  11.637   7.825   8.310  0.0331  0.0697 -0.0086
  110loPI   C1B 1757  11.515   7.461   9.975 -0.0457 -0.0397  0.0274
  110loPI   C2B 1758  11.486   7.420   9.533  0.2389 -0.0322  0.0627
  110loPI   C3B 1759  11.372   7.492   9.160 -0.1879 -0.0841 -0.1265
  110loPI   C4B 1760  11.399   7.601   8.729  0.0689  0.1433 -0.2672
  111loPI    C1 1761  11.971   8.828  10.971  0.0297 -0.3542  0.0243
  111loPI    C2 1762  11.752   8.608  11.224 -0.0028 -0.0680  0.2508
  111loPI    C3 1763  11.754   9.007  11.256  0.2481 -0.0462  0.0021
  111loPI   PO4 1764  12.028   8.741  10.815 -0.1834  0.1485  0.0108
  111loPI   GL1 1765  12.097   8.740  10.364  0.1744 -0.0145  0.1140
  111loPI   GL2 1766  11.942   9.055  10.412  0.0020 -0.0172  0.2236
  111loPI   C1A 1767  12.247   8.672   9.932 -0.4570 -0.1748 -0.2168
  111loPI   C2A 1768  12.219   8.573   9.486 -0.2142 -0.0858 -0.0163
  111loPI   C3A 1769  12.146   8.648   9.050  0.3640  0.0562  0.1099
  111loPI   C4A 1770  12.203   8.683   8.630  0.1346  0.0225 -0.2074
  111loPI   C5A 1771  12.397   8.513   8.254 -0.0194  0.0824 -0.1867
  111loPI   C6A 1772  12.527   8.160   8.072 -0.0758  0.1081  0.1421
  111loPI   C1B 1773  12.020   9.145  10.055  0.2440  0.1633 -0.1571
  111loPI   C2B 1774  12.127   9.122   9.659 -0.4379  0.0140  0.0173
  111loPI   C3B 1775  12.128   9.137   9.193 -0.1579  0.0596  0.0299
  111loPI   C4B 1776  12.070   9.144   8.838  0.2467 -0.0243  0.3486
  112loPI    C1 1777   0.653   3.543  10.866  0.2866  0.1941 -0.1875
  112loPI    C2 1778   0.948   3.573  11.134 -0.1288  0.1762  0.2866
  112loPI    C3 1779   0.762   3.223  11.078 -0.0606  0.1852 -0.0149
  112loPI   PO4 1780   0.499   3.743  10.943 -0.1113 -0.0348  0.0468
  112loPI   GL1 1781   0.304   3.761  10.618  0.0648  0.0648  0.0079
  112loPI   GL2 1782   0.267   4.079  10.452 -0.1354 -0.0544 -0.0860
  112loPI   C1A 1783   0.416   3.570  10.213  0.0498 -0.0638  0.0678
  112loPI   C2A 1784   0.321   3.551   9.754 -0.0547 -0.2481  0.1225
  112loPI   C3A 1785   0.328   3.601   9.376 -0.1649  0.0192 -0.0733
  112loPI   C4A 1786   0.280   3.542   8.963  0.3377 -0.2207  0.1414
  112loPI   C5A 1787   0.354   3.592   8.496  0.2156 -0.2500 -0.1001
  112loPI   C6A 1788   0.206   3.884   8.263 -0.2942 -0.0535  0.1065
  112loPI   C1B 1789   0.268   4.070  10.033  0.1674 -0.0303 -0.1715
  112loPI   C2B 1790   0.262   4.141   9.560 -0.0900 -0.0474  0.1123
  112loPI   C3B 1791   0.192   4.173   9.161  0.1126  0.2008  0.1632
  112loPI   C4B 1792   0.261   4.028   8.727 -0.3060  0.0229 -0.1788
  113loPI    C1 1793  10.521  12.370  11.052  0.0075  0.0005 -0.1334
  113loPI    C2 1794  10.139  12.488  11.026  0.0018 -0.0675 -0.3795
  113loPI    C3 1795  10.239  12.185  11.268 -0.0462  0.1676 -0.0581
  113loPI   PO4 1796  10.564  12.360  10.777  0.1660  0.0774 -0.4112
  113loPI   GL1 1797  10.589  12.320  10.358 -0.0526 -0.1745 -0.1594
  113loPI   GL2 1798  10.970  12.297  10.251  0.0274  0.2472  0.1090
  113loPI   C1A 1799  10.421  12.379   9.961  0.0155 -0.1171  0.0909
  113loPI   C2A 1800  10.358  12.350   9.527 -0.1950 -0.1689  0.0825
  113loPI   C3A 1801  10.405  12.371   9.171  0.2166 -0.0632 -0.0388
  113loPI   C4A 1802  10.514  12.484   8.787  0.0422  0.4377 -0.1991
  113loPI   C5A 1803  10.636  12.631   8.328  0.0090 -0.1274  0.0480
  113loPI   C6A 1804  10.845  12.877   8.013  0.2488 -0.1054 -0.1571
  113loPI   C1B 1805  10.874  12.195   9.829 -0.2902 -0.0361 -0.2112
  113loPI   C2B 1806  10.861  12.203   9.404  0.1813  0.0724  0.0044
  113loPI   C3B 1807  10.937  12.202   8.901  0.2433 -0.2032  0.0203
  113loPI   C4B 1808  11.016  12.344   8.533 -0.0089  0.1400 -0.0339
  114loPI    C1 1809  15.232   9.039  11.000 -0.0895  0.1116  0.0216
  114loPI    C2 1810  15.198   9.188  11.369  0.0111  0.0323  0.0633
  114loPI    C3 1811  14.904   8.964  11.216 -0.0776  0.1539  0.0544
  114loPI   PO4 1812  15.331   9.220  10.814 -0.0375 -0.2497  0.0082
  114loPI   GL1 1813  15.449   9.272  10.380  0.0461 -0.2975 -0.1588
  114loPI   GL2 1814  15.786   9.402  10.285  0.0059 -0.0346 -0.2957
  114loPI   C1A 1815  15.324   9.222   9.985  0.0791  0.3684 -0.2828
  114loPI   C2A 1816  15.316   9.231   9.562  0.0327  0.0340  0.1602
  114loPI   C3A 1817  15.325   9.256   9.109 -0.3604  0.0430 -0.0220
  114loPI   C4A 1818  15.403   9.284   8.654 -0.2400 -0.2645  0.0824
  114loPI   C5A 1819  15.351   9.047   8.299  0.4751 -0.1867 -0.2617
  114loPI   C6A 1820  15.391   8.856   7.872 -0.3090 -0.2890 -0.2176
  114loPI   C1B 1821  15.740   9.465   9.806  0.0234  0.0109 -0.0813
  114loPI   C2B 1822  15.737   9.634   9.424  0.1125  0.2744  0.1378
  114loPI   C3B 1823  15.748   9.583   9.003 -0.0543  0.1141  0.0842
  114loPI   C4B 1824  15.673   9.724   8.652 -0.3578 -0.0115 -0.1832
  115loPI    C1 1825  14.620  11.586  10.877  0.0619 -0.1154 -0.1224
  115loPI    C2 1826  14.613  11.826  11.197  0.1261 -0.0436 -0.1743
  115loPI    C3 1827  14.332  11.546  11.151  0.1105 -0.0472 -0.0606
  115loPI   PO4 1828  14.637  11.718  10.668 -0.0665  0.1387 -0.1998
  115loPI   GL1 1829  14.415  11.984  10.484 -0.2048 -0.2885 -0.1691
  115loPI   GL2 1830  14.686  12.112  10.285 -0.0114 -0.0888 -0.1787
  115loPI   C1A 1831  14.185  11.810  10.200  0.0800  0.3948  0.1203
  115loPI   C2A 1832  14.065  11.741   9.722 -0.1119  0.0509 -0.0637
  115loPI   C3A 1833  14.186  11.723   9.359 -0.0062 -0.2362 -0.2789
  115loPI   C4A 1834  14.159  11.708   8.923  0.0364  0.0911 -0.1220
  115loPI   C5A 1835  14.180  11.874   8.469 -0.0574  0.1155 -0.1730
  115loPI   C6A 1836  14.405  11.724   8.148  0.1109  0.2364  0.1324
  115loPI   C1B 1837  14.520  12.029   9.932  0.0737  0.1093 -0.1480
  115loPI   C2B 1838  14.552  12.170   9.540  0.1085 -0.0805 -0.2472
  115loPI   C3B 1839  14.590  12.170   9.145  0.2146  0.1612  0.1120
  115loPI   C4B 1840  14.549  12.101   8.659 -0.1122 -0.0376 -0.1630
  116loPI    C1 1841   2.105   0.550  11.168 -0.0358  0.1478  0.0465
  116loPI    C2 1842   1.911   0.509  11.515  0.0230  0.0858  0.0720
  116loPI    C3 1843   2.279   0.665  11.509 -0.0922  0.3599  0.0056
  116loPI   PO4 1844   1.909   0.464  10.947  0.2575 -0.0411 -0.3023
  116loPI   GL1 1845   1.852   0.801  10.597 -0.0978 -0.1683  0.3223
  116loPI   GL2 1846   1.649   0.789  10.645 -0.1568  0.1551 -0.0134
  116loPI   C1A 1847   1.958   0.804  10.213 -0.0783 -0.3531 -0.3691
  116loPI   C2A 1848   1.977   0.848   9.786  0.2859  0.1487 -0.0324
  116loPI   C3A 1849   1.979   0.893   9.335 -0.3317 -0.3279  0.1224
  116loPI   C4A 1850   1.999   0.878   8.893 -0.1441  0.0746  0.0014
  116loPI   C5A 1851   2.145   0.909   8.487 -0.4189 -0.0526 -0.0486
  116loPI   C6A 1852   2.367   0.745   8.201  0.0112  0.2158 -0.0091
  116loPI   C1B 1853   1.463   0.992  10.267  0.0834 -0.0317 -0.0794
  116loPI   C2B 1854   1.514   1.004   9.919 -0.2005  0.2139 -0.0117
  116loPI   C3B 1855   1.414   0.988   9.424  0.2216 -0.1342 -0.2080
  116loPI   C4B 1856   1.485   1.032   8.946  0.0390  0.0802 -0.1328
  117loPI    C1 1857   3.866   8.153  11.303  0.0356 -0.0788  0.0399
  117loPI    C2 1858   4.180   7.919  11.384  0.1640  0.0923  0.0436
  117loPI    C3 1859   4.235   8.309  11.316 -0.0496  0.1244  0.0504
  117loPI   PO4 1860   3.777   8.115  11.074  0.1637  0.0707 -0.0175
  117loPI   GL1 1861   3.828   8.007  10.735  0.0122  0.0745 -0.0811
  117loPI   GL2 1862   3.855   8.380  10.597  0.0279 -0.0274 -0.2317
  117loPI   C1A 1863   3.931   7.902  10.302 -0.0773  0.2536  0.3172
  117loPI   C2A 1864   3.982   7.998   9.967  0.0501 -0.0141  0.0322
  117loPI   C3A 1865   3.922   7.864   9.536  0.2208 -0.1458 -0.5121
  117loPI   C4A 1866   3.975   7.861   9.137  0.2856 -0.2141  0.3389
  117loPI   C5A 1867   4.022   7.527   8.760  0.0912 -0.3638 -0.2538
  117loPI   C6A 1868   3.885   7.121   8.541  0.0099 -0.0755 -0.1161
  117loPI   C1B 1869   3.946   8.440  10.148  0.2417 -0.2170 -0.1490
  117loPI   C2B 1870   3.894   8.405   9.696 -0.0359  0.1615  0.1221
  117loPI   C3B 1871   3.946   8.354   9.272 -0.0564  0.2816 -0.1632
  117loPI   C4B 1872   3.983   8.273   8.883 -0.0696 -0.0724  0.0482
  118loPI    C1 1873  11.148   7.568  11.031  0.0329  0.0215 -0.3312
  118loPI    C2 1874  11.462   7.738  11.210 -0.1012 -0.0809  0.0098
  118loPI    C3 1875  11.125   7.947  11.156 -0.1253 -0.1091  0.0510
  118loPI   PO4 1876  11.192   7.533  10.752 -0.0681 -0.4191  0.0700
  118loPI   GL1 1877  10.909   7.625  10.366  0.2465 -0.0648  0.2799
  118loPI   GL2 1878  10.491   7.574  10.416 -0.0364 -0.0320  0.0704
  118loPI   C1A 1879  10.931   7.689   9.889 -0.0253  0.0431  0.1079
  118loPI   C2A 1880  10.919   7.671   9.478 -0.0731  0.0992 -0.0774
  118loPI   C3A 1881  10.927   7.760   9.050 -0.3690  0.0716 -0.0482
  118loPI   C4A 1882  10.921   7.832   8.659  0.0565 -0.0468  0.3643
  118loPI   C5A 1883  11.131   7.851   8.292 -0.1239  0.4328  0.0305
  118loPI   C6A 1884  11.128   7.674   7.973 -0.1277  0.0642 -0.1432
  118loPI   C1B 1885  10.553   7.344  10.053  0.0425  0.1443 -0.0541
  118loPI   C2B 1886  10.577   7.361   9.608 -0.1992  0.1988  0.2433
  118loPI   C3B 1887  10.539   7.331   9.197  0.1185  0.0452  0.4792
  118loPI   C4B 1888  10.519   7.518   8.799  0.0136 -0.0807  0.1252
  119loPI    C1 1889   9.421   2.970  11.360 -0.0436  0.0059  0.0917
  119loPI    C2 1890   9.549   3.327  11.488 -0.0620 -0.0711  0.3292
  119loPI    C3 1891   9.609   3.001  11.712 -0.0691 -0.2140  0.1259
  119loPI   PO4 1892   9.459   3.099  11.035 -0.0025 -0.1234  0.3863
  119loPI   GL1 1893   9.595   2.772  10.584 -0.0361 -0.3465 -0.1035
  119loPI   GL2 1894   9.928   2.726  10.591  0.0746 -0.0236  0.0202
  119loPI   C1A 1895   9.464   2.486  10.288  0.2871 -0.0328 -0.2750
  119loPI   C2A 1896   9.511   2.482   9.833  0.1541  0.0859  0.1023
  119loPI   C3A 1897   9.378   2.380   9.405  0.1700  0.0969 -0.0137
  119loPI   C4A 1898   9.362   2.365   9.071  0.0776  0.1376  0.0945
  119loPI   C5A 1899   9.375   2.352   8.570  0.0593  0.1714  0.1947
  119loPI   C6A 1900   9.286   2.446   8.206  0.2063  0.0700  0.1403
  119loPI   C1B 1901   9.870   2.746  10.109 -0.1064  0.0982 -0.0582
  119loPI   C2B 1902   9.899   2.737   9.615  0.3949  0.3491  0.0534
  119loPI   C3B 1903   9.838   2.683   9.177  0.0242 -0.1094 -0.3175
  119loPI   C4B 1904   9.695   2.654   8.781  0.4569  0.0300  0.0697
  120loPI    C1 1905  15.473   0.470  11.571 -0.0479  0.1680 -0.0807
  120loPI    C2 1906  15.401   0.452  11.965  0.0551  0.2140 -0.0594
  120loPI    C3 1907  15.337   0.793  11.765 -0.0857  0.1641 -0.1006
  120loPI   PO4 1908  15.350   0.229  11.431 -0.0224  0.1477 -0.0716
  120loPI   GL1 1909  15.146   0.243  11.012  0.0380 -0.0840  0.3076
  120loPI   GL2 1910  15.235   0.538  10.741  0.4440  0.0501 -0.1501
  120loPI   C1A 1911  15.013  -0.006  10.668 -0.2161 -0.2471  0.1464
  120loPI   C2A 1912  14.997  -0.002  10.241  0.0218 -0.0158  0.0387
  120loPI   C3A 1913  15.066  -0.009   9.796  0.1441  0.0124 -0.1442
  120loPI   C4A 1914  14.981  -0.110   9.320 -0.0772  0.3111  0.0007
  120loPI   C5A 1915  14.992   0.015   8.926  0.3050 -0.2143 -0.0485
  120loPI   C6A 1916  14.627   0.124   8.604  0.1695  0.0905  0.2267
  120loPI   C1B 1917  15.366   0.384  10.303  0.1629  0.0752 -0.1195
  120loPI   C2B 1918  15.493   0.342   9.919  0.2199 -0.1027 -0.1604
  120loPI   C3B 1919  15.380   0.319   9.531 -0.1992 -0.1154 -0.1591
  120loPI   C4B 1920  15.431   0.405   9.127  0.2961  0.1859  0.0214
  121loPI    C1 1921  16.298   1.316  11.162 -0.1646 -0.1915 -0.3938
  121loPI    C2 1922  15.905   1.390  11.172 -0.1160  0.0442 -0.1348
  121loPI    C3 1923  16.073   1.162  11.454 -0.0091  0.2477 -0.0312
  121loPI   PO4 1924  16.335   1.299  10.914 -0.0015  0.0330 -0.1238
  121loPI   GL1 1925  16.451   1.046  10.602  0.0942 -0.0129 -0.0261
  121loPI   GL2 1926  16.663   1.368  10.425  0.0487 -0.2829  0.0971
  121loPI   C1A 1927  16.224   1.080  10.192 -0.1914 -0.1155  0.0742
  121loPI   C2A 1928  16.230   1.059   9.761  0.0198  0.0531 -0.1533
  121loPI   C3A 1929  16.366   0.993   9.273 -0.0205  0.0251 -0.3097
  121loPI   C4A 1930  16.293   0.933   8.952 -0.1419 -0.1539 -0.2219
  121loPI   C5A 1931  16.432   0.650   8.711  0.2293 -0.0201 -0.1680
  121loPI   C6A 1932  16.609   0.300   8.522 -0.1865  0.2571 -0.1256
  121loPI   C1B 1933  16.636   1.344  10.013 -0.0291  0.3477  0.0720
  121loPI   C2B 1934  16.719   1.260   9.634 -0.1180 -0.2704  0.2300
  121loPI   C3B 1935  16.733   1.316   9.177  0.1210  0.1795 -0.1020
  121loPI   C4B 1936  16.657   1.417   8.780 -0.5834 -0.0631 -0.3939
  122loPI    C1 1937   4.538   1.090  10.960  0.0882 -0.1074  0.1556
  122loPI    C2 1938   4.353   1.332  11.219  0.0484 -0.0947  0.1154
  122loPI    C3 1939   4.751   1.295  11.230  0.0565 -0.0127  0.1093
  122loPI   PO4 1940   4.492   1.181  10.727 -0.0043  0.2213  0.0122
  122loPI   GL1 1941   4.445   0.915  10.378  0.0474 -0.2466  0.0852
  122loPI   GL2 1942   4.096   0.934  10.482  0.1829  0.1934 -0.2436
  122loPI   C1A 1943   4.578   1.026   9.934 -0.0815 -0.1991 -0.0047
  122loPI   C2A 1944   4.601   1.062   9.399  0.1734  0.3290 -0.0345
  122loPI   C3A 1945   4.683   1.059   8.985  0.0096 -0.1716 -0.0168
  122loPI   C4A 1946   4.700   1.195   8.585  0.2926 -0.1111  0.2392
  122loPI   C5A 1947   4.309   1.173   8.338 -0.0580  0.2811 -0.1845
  122loPI   C6A 1948   3.932   1.062   8.505  0.2534 -0.0694 -0.0744
  122loPI   C1B 1949   4.096   0.762  10.022 -0.0744  0.0358  0.0973
  122loPI   C2B 1950   4.228   0.785   9.589  0.3912  0.0883  0.0902
  122loPI   C3B 1951   4.210   0.752   9.146 -0.1714 -0.1175  0.0499
  122loPI   C4B 1952   4.315   0.798   8.761 -0.1505  0.2980  0.1455
  123loPI    C1 1953   1.568   4.913  11.099 -0.2926 -0.2525  0.2653
  123loPI    C2 1954   1.730   5.024  11.448 -0.2569  0.3620  0.0656
  123loPI    C3 1955   1.342   5.092  11.377 -0.2877  0.1461  0.0217
  123loPI   PO4 1956   1.761   4.937  10.943  0.3907 -0.1256 -0.0684
  123loPI   GL1 1957   1.810   4.670  10.623  0.0255  0.1625 -0.2259
  123loPI   GL2 1958   1.616   4.418  10.476 -0.3015 -0.3661 -0.0293
  123loPI   C1A 1959   2.015   4.759  10.225  0.0363  0.2450 -0.0678
  123loPI   C2A 1960   1.986   4.854   9.820 -0.1822  0.2951 -0.1987
  123loPI   C3A 1961   1.970   4.767   9.365  0.3591 -0.2014  0.1532
  123loPI   C4A 1962   1.946   4.843   8.881 -0.0338 -0.0207  0.2993
  123loPI   C5A 1963   2.024   4.583   8.515  0.2749  0.1315 -0.3109
  123loPI   C6A 1964   1.845   4.275   8.352  0.1756  0.1550  0.1816
  123loPI   C1B 1965   1.672   4.481  10.049  0.2250  0.1572  0.1064
  123loPI   C2B 1966   1.625   4.466   9.589 -0.0001  0.1401 -0.3202
  123loPI   C3B 1967   1.563   4.573   9.170 -0.5027 -0.1346 -0.0817
  123loPI   C4B 1968   1.534   4.477   8.705 -0.0731  0.1100  0.0449
  124loPI    C1 1969   0.482  16.325  11.324  0.1867  0.0716 -0.3598
  124loPI    C2 1970   0.678  16.672  11.358  0.2951  0.0031 -0.2790
  124loPI    C3 1971   0.875  16.327  11.403  0.1243 -0.0650 -0.0296
  124loPI   PO4 1972   0.324  16.367  10.963  0.0828  0.1674 -0.0087
  124loPI   GL1 1973   0.388  16.394  10.550  0.0674 -0.2718  0.0149
  124loPI   GL2 1974   0.692  16.289  10.459  0.3033 -0.1702  0.0617
  124loPI   C1A 1975   0.033  16.527  10.314  0.3591  0.0355 -0.1040
  124loPI   C2A 1976   0.012  16.566   9.830 -0.0678 -0.2543 -0.1294
  124loPI   C3A 1977  -0.001  16.606   9.388 -0.0153 -0.0454  0.0320
  124loPI   C4A 1978  -0.091  16.667   8.934 -0.1443  0.0848  0.1390
  124loPI   C5A 1979  -0.174  16.460   8.494  0.0816  0.3006  0.0482
  124loPI   C6A 1980  -0.214  16.521   8.021 -0.0380 -0.1153 -0.0964
  124loPI   C1B 1981   0.609  16.414  10.075 -0.1779 -0.4444  0.0294
  124loPI   C2B 1982   0.515  16.456   9.638 -0.0526  0.2243  0.2406
  124loPI   C3B 1983   0.361  16.365   9.147 -0.1141 -0.0431 -0.0999
  124loPI   C4B 1984   0.332  16.432   8.734  0.2364 -0.0829 -0.2324
  125loPI    C1 1985   7.651   6.175  11.408  0.2632 -0.0491  0.2290
  125loPI    C2 1986   7.950   6.433  11.474 -0.0092  0.4003 -0.2214
  125loPI    C3 1987   7.593   6.492  11.645  0.1061 -0.0553  0.1999
  125loPI   PO4 1988   7.756   6.100  11.082  0.1739  0.0392 -0.1771
  125loPI   GL1 1989   7.503   5.900  10.707  0.1457  0.0100 -0.1888
  125loPI   GL2 1990   7.826   5.847  10.583  0.1141  0.0488  0.4650
  125loPI   C1A 1991   7.226   5.886  10.299 -0.1269  0.0121 -0.1781
  125loPI   C2A 1992   7.251   5.864   9.916  0.1725  0.0171  0.1688
  125loPI   C3A 1993   7.176   5.835   9.461 -0.1232  0.0415 -0.0688
  125loPI   C4A 1994   7.179   5.713   9.077  0.2541 -0.0728 -0.2486
  125loPI   C5A 1995   7.182   5.688   8.605  0.1358 -0.1778  0.1349
  125loPI   C6A 1996   6.958   5.612   8.257 -0.0396  0.0490  0.1505
  125loPI   C1B 1997   7.741   5.752  10.147  0.2230  0.0471  0.3582
  125loPI   C2B 1998   7.709   5.668   9.680  0.0929  0.0767 -0.2417
  125loPI   C3B 1999   7.649   5.603   9.255  0.2167  0.1888 -0.1503
  125loPI   C4B 2000   7.689   5.517   8.856  0.0273 -0.1319 -0.0661
  126loPI    C1 2001   6.112   9.085  11.160  0.0590  0.1205  0.2004
  126loPI    C2 2002   5.873   8.850  11.378 -0.2220  0.2938  0.0839
  126loPI    C3 2003   6.159   9.065  11.557  0.0251 -0.1153  0.1943
  126loPI   PO4 2004   6.279   8.970  11.041  0.2662  0.0656 -0.0884
  126loPI   GL1 2005   6.311   8.793  10.624 -0.0766 -0.1199  0.1240
  126loPI   GL2 2006   6.007   8.769  10.409  0.4457 -0.1442  0.1827
  126loPI   C1A 2007   6.527   8.751  10.240 -0.0204 -0.2420  0.3338
  126loPI   C2A 2008   6.651   8.707   9.766  0.1692  0.0978 -0.1444
  126loPI   C3A 2009   6.642   8.669   9.329  0.2111  0.0633 -0.0423
  126loPI   C4A 2010   6.722   8.644   8.936  0.0751  0.0817 -0.0896
  126loPI   C5A 2011   6.640   8.421   8.624  0.3375 -0.1809  0.2438
  126loPI   C6A 2012   6.712   8.382   8.178 -0.2192 -0.1508  0.1847
  126loPI   C1B 2013   6.111   8.823   9.954  0.1984  0.0006  0.3696
  126loPI   C2B 2014   6.080   8.852   9.591 -0.0917  0.2225 -0.0053
  126loPI   C3B 2015   6.119   8.838   9.189  0.1124 -0.1050  0.0184
  126loPI   C4B 2016   6.173   8.772   8.789  0.0427 -0.3070 -0.1063
  127loPI    C1 2017   0.965   2.290  11.191 -0.0495  0.0758 -0.1383
  127loPI    C2 2018   1.337   2.311  11.336 -0.0031 -0.3586 -0.1806
  127loPI    C3 2019   1.043   2.521  11.508  0.2579 -0.0091 -0.1493
  127loPI   PO4 2020   0.979   2.290  10.995 -0.3661 -0.1299 -0.0442
  127loPI   GL1 2021   1.085   2.439  10.572  0.1110  0.0437  0.0331
  127loPI   GL2 2022   1.373   2.641  10.399  0.3827 -0.1675  0.0624
  127loPI   C1A 2023   0.915   2.227  10.117  0.0738 -0.0979 -0.3642
  127loPI   C2A 2024   0.983   2.270   9.780 -0.1079  0.3626  0.0299
  127loPI   C3A 2025   0.910   2.272   9.483  0.4153 -0.0974  0.1935
  127loPI   C4A 2026   0.900   2.258   9.057  0.1557 -0.0457 -0.1491
  127loPI   C5A 2027   0.806   2.130   8.682  0.2518 -0.2234  0.0173
  127loPI   C6A 2028   0.662   2.185   8.336 -0.0256  0.1232  0.0547
  127loPI   C1B 2029   1.324   2.583   9.982  0.1506 -0.2605 -0.4350
  127loPI   C2B 2030   1.414   2.577   9.562  0.1433 -0.0109  0.1697
  127loPI   C3B 2031   1.403   2.710   9.140  0.1115  0.1550 -0.2331
  127loPI   C4B 2032   1.364   2.684   8.775 -0.3231  0.0627  0.3609
  128loPI    C1 2033   8.913  16.239  10.729  0.1504 -0.3378 -0.2823
  128loPI    C2 2034   9.230  16.245  10.972  0.1640 -0.1889 -0.3025
  128loPI    C3 2035   8.869  16.153  11.117  0.1388  0.0852 -0.1846
  128loPI   PO4 2036   9.001  16.184  10.528 -0.1147 -0.2245  0.1228
  128loPI   GL1 2037   9.159  16.251  10.193  0.0231  0.0408  0.0207
  128loPI   GL2 2038   8.990  16.504  10.092 -0.0078  0.1044  0.0721
  128loPI   C1A 2039   9.199  16.056   9.867  0.0550  0.0052 -0.1641
  128loPI   C2A 2040   9.151  16.000   9.452  0.2197 -0.1836 -0.3029
  128loPI   C3A 2041   9.108  15.994   9.066  0.1790 -0.1582 -0.4784
  128loPI   C4A 2042   9.293  15.889   8.693  0.2389 -0.1690 -0.0271
  128loPI   C5A 2043   9.281  15.914   8.234  0.1005  0.0456 -0.2643
  128loPI   C6A 2044   8.999  15.655   7.915  0.0398 -0.0982  0.0309
  128loPI   C1B 2045   9.075  16.544   9.771  0.0123  0.0690  0.0661
  128loPI   C2B 2046   9.002  16.619   9.403  0.0917  0.2104  0.0523
  128loPI   C3B 2047   9.126  16.479   8.988 -0.2374  0.1249  0.2316
  128loPI   C4B 2048   9.094  16.300   8.540 -0.0181 -0.2248  0.1496
  129loPI    C1 2049  16.827   4.499  11.261 -0.0648 -0.0279 -0.1572
  129loPI    C2 2050  17.022   4.500  11.611  0.0927 -0.1091 -0.2436
  129loPI    C3 2051  16.739   4.226  11.540 -0.2052  0.1373 -0.0371
  129loPI   PO4 2052  17.098   4.633  11.024  0.1138 -0.0103 -0.0372
  129loPI   GL1 2053  17.174   4.545  10.583  0.1125 -0.3372  0.2032
  129loPI   GL2 2054  17.183   4.288  10.653  0.0993  0.0737 -0.1229
  129loPI   C1A 2055  17.226   4.498  10.086  0.2165  0.1313 -0.1324
  129loPI   C2A 2056  17.263   4.481   9.705 -0.1461  0.4151  0.1606
  129loPI   C3A 2057  17.208   4.553   9.296  0.1227 -0.0379  0.0026
  129loPI   C4A 2058  17.129   4.411   8.868 -0.0900  0.0635  0.2090
  129loPI   C5A 2059  17.106   4.057   8.506  0.0623 -0.0255  0.0919
  129loPI   C6A 2060  17.028   3.807   8.200  0.0593 -0.2142 -0.0872
  129loPI   C1B 2061  17.289   4.037  10.301 -0.3048 -0.0676 -0.1298
  129loPI   C2B 2062  17.304   3.987   9.881  0.1310 -0.1704 -0.0339
  129loPI   C3B 2063  17.224   4.017   9.484 -0.3096  0.0031  0.0006
  129loPI   C4B 2064  17.210   3.962   9.064 -0.2570  0.0528  0.0189
  130loPI    C1 2065   4.665   5.778  11.231 -0.2091  0.0103 -0.1015
  130loPI    C2 2066   4.356   5.958  11.412 -0.1096 -0.0553  0.1380
  130loPI    C3 2067   4.690   5.878  11.618  0.1601  0.2276 -0.1772
  130loPI   PO4 2068   4.677   5.875  11.020  0.1153  0.3349  0.0201
  130loPI   GL1 2069   4.557   5.998  10.593  0.2895  0.0957 -0.0060
  130loPI   GL2 2070   4.799   6.227  10.710  0.2346 -0.1555  0.2651
  130loPI   C1A 2071   4.451   6.033  10.235  0.0326 -0.0759  0.0628
  130loPI   C2A 2072   4.548   6.066   9.793 -0.0091 -0.1944  0.1324
  130loPI   C3A 2073   4.486   6.063   9.346  0.0161 -0.2651 -0.0429
  130loPI   C4A 2074   4.535   6.016   8.955 -0.2128 -0.0175  0.0826
  130loPI   C5A 2075   4.736   6.212   8.561  0.1642  0.0898 -0.0115
  130loPI   C6A 2076   4.826   6.459   8.289  0.1449  0.0890 -0.2053
  130loPI   C1B 2077   4.845   6.375  10.394 -0.1164  0.4180 -0.1534
  130loPI   C2B 2078   4.946   6.347   9.990 -0.3076  0.0700  0.0643
  130loPI   C3B 2079   4.957   6.348   9.572  0.0887 -0.5160 -0.0139
  130loPI   C4B 2080   4.950   6.377   9.097  0.1137  0.1368 -0.1363
  131loPI    C1 2081  15.100   1.434  11.692 -0.1031 -0.1020  0.2447
  131loPI    C2 2082  15.108   1.175  11.997  0.0563  0.1405  0.4503
  131loPI    C3 2083  15.046   1.564  12.067 -0.4334  0.1305  0.1215
  131loPI   PO4 2084  15.063   1.210  11.442  0.3036 -0.0811  0.0839
  131loPI   GL1 2085  15.204   1.170  10.980  0.4070  0.1675 -0.1668
  131loPI   GL2 2086  15.443   1.395  10.949  0.1360 -0.0615 -0.0814
  131loPI   C1A 2087  14.975   1.026  10.651  0.2471  0.0608  0.1199
  131loPI   C2A 2088  14.800   1.054  10.263 -0.0785 -0.0219 -0.0619
  131loPI   C3A 2089  14.896   1.042   9.854 -0.0992 -0.1254 -0.0475
  131loPI   C4A 2090  14.880   1.054   9.387 -0.1633 -0.0893 -0.3254
  131loPI   C5A 2091  14.809   1.101   8.955 -0.0998 -0.2862 -0.0415
  131loPI   C6A 2092  15.038   1.408   8.827 -0.0723 -0.1520  0.0082
  131loPI   C1B 2093  15.375   1.475  10.464  0.0768  0.2192  0.0089
  131loPI   C2B 2094  15.349   1.313  10.125 -0.1828  0.1988 -0.1581
  131loPI   C3B 2095  15.331   1.363   9.745  0.3460 -0.0951  0.2805
  131loPI   C4B 2096  15.296   1.370   9.270  0.2187 -0.3703 -0.2187
  132loPI    C1 2097   5.702   9.672  10.829  0.2977  0.1268  0.0721
  132loPI    C2 2098   5.687   9.334  11.043 -0.1424 -0.1070 -0.3082
  132loPI    C3 2099   5.350   9.532  10.958  0.1143  0.4674 -0.0470
  132loPI   PO4 2100   5.701   9.649  10.632 -0.1420  0.0848  0.1793
  132loPI   GL1 2101   5.709   9.736  10.285  0.2534  0.3733  0.0233
  132loPI   GL2 2102   6.041   9.546  10.196  0.0521 -0.0516 -0.1276
  132loPI   C1A 2103   5.497   9.665   9.884 -0.1570 -0.2152 -0.2226
  132loPI   C2A 2104   5.661   9.581   9.504  0.1192  0.2898  0.1281
  132loPI   C3A 2105   5.605   9.536   9.048 -0.0877 -0.0577  0.2693
  132loPI   C4A 2106   5.555   9.496   8.639 -0.1349 -0.0179  0.0829
  132loPI   C5A 2107   5.406   9.277   8.352  0.3008  0.0383  0.0521
  132loPI   C6A 2108   5.259   9.322   7.924 -0.1872  0.0577 -0.0503
  132loPI   C1B 2109   6.043   9.345   9.728  0.4406 -0.0709 -0.0029
  132loPI   C2B 2110   6.075   9.356   9.280  0.0127  0.0898 -0.1859
  132loPI   C3B 2111   6.079   9.370   8.867  0.3650 -0.1317  0.0589
  132loPI   C4B 2112   6.184   9.407   8.449 -0.4196  0.2474 -0.0033
  133loPI    C1 2113  14.317  15.643  11.452  0.0262  0.0312  0.1013
  133loPI    C2 2114  14.619  15.735  11.697  0.2112  0.0848 -0.1423
  133loPI    C3 2115  14.458  15.368  11.706  0.3763  0.0122 -0.1066
  133loPI   PO4 2116  14.343  15.692  11.189  0.0520  0.0921  0.2450
  133loPI   GL1 2117  14.309  15.512  10.817  0.2015  0.0083 -0.1864
  133loPI   GL2 2118  14.663  15.482  10.810 -0.1101  0.1947  0.1479
  133loPI   C1A 2119  14.273  15.605  10.443  0.0053 -0.1606 -0.1489
  133loPI   C2A 2120  14.352  15.654  10.140  0.3136  0.1601 -0.0093
  133loPI   C3A 2121  14.317  15.668   9.709  0.0415  0.0293  0.0460
  133loPI   C4A 2122  14.343  15.624   9.203 -0.0357  0.3084  0.0681
  133loPI   C5A 2123  14.320  15.628   8.861  0.0968 -0.1506 -0.1156
  133loPI   C6A 2124  14.640  15.489   8.669 -0.0808  0.0919 -0.1412
  133loPI   C1B 2125  14.821  15.552  10.401 -0.1379  0.1866  0.2183
  133loPI   C2B 2126  14.807  15.495   9.952 -0.0254  0.0273 -0.2403
  133loPI   C3B 2127  14.778  15.510   9.434  0.2470  0.1948 -0.3758
  133loPI   C4B 2128  14.793  15.331   9.070 -0.0896 -0.4412 -0.0830
  134loPI    C1 2129   6.852   6.676  11.028  0.1204  0.0496 -0.2059
  134loPI    C2 2130   6.814   6.289  11.119  0.1537  0.0815 -0.0544
  134loPI    C3 2131   6.498   6.532  11.144  0.0957  0.0339 -0.2998
  134loPI   PO4 2132   6.929   6.643  10.784  0.2173  0.3326  0.1876
  134loPI   GL1 2133   6.814   6.707  10.347  0.2033 -0.2054 -0.1564
  134loPI   GL2 2134   7.003   6.957  10.364 -0.0583 -0.1463  0.2105
  134loPI   C1A 2135   6.685   6.555  10.039 -0.2868  0.1289 -0.0638
  134loPI   C2A 2136   6.674   6.565   9.593 -0.2101  0.0094  0.0181
  134loPI   C3A 2137   6.672   6.568   9.139 -0.1488 -0.1474 -0.0765
  134loPI   C4A 2138   6.658   6.442   8.728  0.0946 -0.1457 -0.0560
  134loPI   C5A 2139   6.451   6.341   8.367 -0.2715 -0.0203 -0.0237
  134loPI   C6A 2140   6.040   6.148   8.116  0.2724 -0.2918  0.2926
  134loPI   C1B 2141   7.185   6.875  10.011  0.1725  0.2244 -0.0977
  134loPI   C2B 2142   7.137   6.823   9.696 -0.1963  0.3042 -0.1713
  134loPI   C3B 2143   7.083   6.835   9.267  0.0713  0.1277 -0.2217
  134loPI   C4B 2144   7.113   6.718   8.836  0.0664 -0.0509 -0.0362
  135loPI    C1 2145   5.341  13.136  10.843  0.1106  0.0767 -0.0533
  135loPI    C2 2146   5.564  13.193  11.170  0.1788 -0.1448 -0.0603
  135loPI    C3 2147   5.246  12.951  11.184  0.1082 -0.0562 -0.1255
  135loPI   PO4 2148   5.258  13.340  10.765 -0.0051  0.0625 -0.0568
  135loPI   GL1 2149   5.309  13.597  10.354 -0.1998  0.0670  0.1725
  135loPI   GL2 2150   5.673  13.402  10.505 -0.1049  0.0563  0.0492
  135loPI   C1A 2151   5.426  13.814   9.913  0.0808  0.1271  0.0279
  135loPI   C2A 2152   5.333  13.747   9.440 -0.1434 -0.1449 -0.0772
  135loPI   C3A 2153   5.388  13.751   9.017  0.3092 -0.0833  0.2017
  135loPI   C4A 2154   5.301  13.683   8.607 -0.3238  0.0509 -0.0978
  135loPI   C5A 2155   5.258  13.462   8.236 -0.1635 -0.0056  0.2774
  135loPI   C6A 2156   4.980  13.586   7.932 -0.3770  0.0442  0.0971
  135loPI   C1B 2157   5.562  13.273  10.092  0.4957  0.0673  0.3309
  135loPI   C2B 2158   5.449  13.332   9.634 -0.0900  0.1949  0.3173
  135loPI   C3B 2159   5.486  13.254   9.140 -0.1390  0.1014 -0.0526
  135loPI   C4B 2160   5.315  13.190   8.666  0.2036 -0.0093 -0.2772
  136loPI    C1 2161  14.767   4.607  11.268 -0.1069 -0.0765 -0.4414
  136loPI    C2 2162  14.417   4.444  11.371 -0.0046 -0.0423 -0.0233
  136loPI    C3 2163  14.526   4.796  11.526  0.3213 -0.1694  0.0432
  136loPI   PO4 2164  14.762   4.467  11.000  0.1432 -0.1322  0.2275
  136loPI   GL1 2165  14.771   4.555  10.652  0.2627 -0.3186  0.1862
  136loPI   GL2 2166  15.087   4.390  10.630  0.0382  0.1076  0.2183
  136loPI   C1A 2167  14.913   4.522  10.151  0.2013  0.1966 -0.1072
  136loPI   C2A 2168  14.966   4.512   9.712  0.1088  0.2495 -0.2187
  136loPI   C3A 2169  14.967   4.454   9.297 -0.0803 -0.1346 -0.2528
  136loPI   C4A 2170  14.884   4.424   8.859  0.1759  0.0212  0.0488
  136loPI   C5A 2171  14.597   4.579   8.595  0.0929 -0.0606  0.1232
  136loPI   C6A 2172  14.616   4.814   8.151 -0.2862 -0.0025  0.1868
  136loPI   C1B 2173  15.340   4.279  10.305 -0.0908 -0.1713 -0.1343
  136loPI   C2B 2174  15.425   4.341   9.928 -0.0611 -0.1755 -0.0934
  136loPI   C3B 2175  15.459   4.266   9.450 -0.0152 -0.0054 -0.2723
  136loPI   C4B 2176  15.369   4.294   9.026 -0.0076  0.1397  0.2678
  137loPI    C1 2177   1.128   7.989  11.054  0.0513 -0.0265 -0.1304
  137loPI    C2 2178   0.928   7.910  11.391  0.1586  0.1581 -0.0217
  137loPI    C3 2179   0.775   8.164  11.124  0.1126  0.0755 -0.0745
  137loPI   PO4 2180   1.321   7.816  11.001 -0.2010  0.0280 -0.0881
  137loPI   GL1 2181   1.581   7.773  10.639  0.0122 -0.1277  0.0043
  137loPI   GL2 2182   1.845   7.551  10.635 -0.3516 -0.0520  0.1112
  137loPI   C1A 2183   1.683   7.874  10.241  0.2963  0.0187  0.0016
  137loPI   C2A 2184   1.732   7.899   9.764 -0.1239 -0.1604  0.0954
  137loPI   C3A 2185   1.726   7.846   9.330  0.3295 -0.1524  0.0966
  137loPI   C4A 2186   1.752   7.768   8.902  0.3649  0.0191  0.2753
  137loPI   C5A 2187   1.798   7.868   8.488 -0.1138 -0.2965  0.4408
  137loPI   C6A 2188   1.682   8.179   8.146 -0.0224  0.0669  0.0157
  137loPI   C1B 2189   1.793   7.390  10.177  0.1718  0.0335  0.0117
  137loPI   C2B 2190   1.720   7.382   9.731  0.0503 -0.0712 -0.1221
  137loPI   C3B 2191   1.654   7.290   9.311  0.0317 -0.0534 -0.1309
  137loPI   C4B 2192   1.674   7.284   8.910  0.0375  0.3460 -0.2007
  138loPI    C1 2193   3.513  13.188  10.716  0.1595  0.2605  0.0299
  138loPI    C2 2194   3.584  12.892  10.455  0.3116  0.2861  0.0413
  138loPI    C3 2195   3.708  12.859  10.834 -0.0088  0.1998  0.1422
  138loPI   PO4 2196   3.502  13.435  10.473  0.2716 -0.0577  0.0646
  138loPI   GL1 2197   3.770  13.699  10.126  0.1460 -0.2174  0.0399
  138loPI   GL2 2198   3.795  13.393  10.029  0.1231  0.0282  0.2734
  138loPI   C1A 2199   3.613  14.086   9.894 -0.1525 -0.2125  0.4148
  138loPI   C2A 2200   3.557  14.028   9.532 -0.0010  0.0862 -0.1978
  138loPI   C3A 2201   3.465  14.012   9.133  0.1781 -0.0657  0.0296
  138loPI   C4A 2202   3.354  14.155   8.775  0.2730  0.0146  0.0403
  138loPI   C5A 2203   3.380  14.422   8.405 -0.0954 -0.0073 -0.0382
  138loPI   C6A 2204   3.501  14.873   8.264  0.0600  0.2231  0.0646
  138loPI   C1B 2205   4.016  13.473   9.587  0.1317 -0.3316  0.2136
  138loPI   C2B 2206   3.832  13.365   9.130  0.3871  0.1582 -0.0418
  138loPI   C3B 2207   3.902  13.355   8.684 -0.0855  0.0244 -0.0448
  138loPI   C4B 2208   3.853  13.221   8.348 -0.0002 -0.0014  0.0335
  139loPI    C1 2209  16.343  12.189  11.463  0.0386 -0.1231  0.0914
  139loPI    C2 2210  16.531  12.527  11.358 -0.3804  0.1114  0.0716
  139loPI    C3 2211  16.647  12.326  11.684 -0.0196  0.1793 -0.0101
  139loPI   PO4 2212  16.355  12.048  11.174  0.2721  0.1003  0.0874
  139loPI   GL1 2213  16.132  12.043  10.685  0.2549  0.2301 -0.0776
  139loPI   GL2 2214  15.950  11.815  10.484  0.0851  0.2227 -0.1362
  139loPI   C1A 2215  16.439  12.207  10.495 -0.1064 -0.2567 -0.1509
  139loPI   C2A 2216  16.359  12.200  10.109 -0.0480  0.2347  0.0199
  139loPI   C3A 2217  16.375  12.134   9.720  0.1542  0.1011 -0.2505
  139loPI   C4A 2218  16.445  12.258   9.280 -0.0785  0.0830  0.1860
  139loPI   C5A 2219  16.372  12.144   8.868 -0.2922 -0.1274  0.0918
  139loPI   C6A 2220  16.277  12.370   8.619 -0.6626 -0.0232  0.1501
  139loPI   C1B 2221  15.996  11.912  10.124  0.2717  0.0503  0.0478
  139loPI   C2B 2222  15.956  11.936   9.718 -0.2229  0.0534 -0.0851
  139loPI   C3B 2223  15.996  11.918   9.341 -0.3095 -0.1225  0.0855
  139loPI   C4B 2224  15.934  11.877   8.817  0.1508  0.0005  0.0155
  140loPI    C1 2225   2.219  15.712  10.697 -0.0063  0.6376 -0.0980
  140loPI    C2 2226   1.839  15.829  10.652 -0.2044  0.0454 -0.0549
  140loPI    C3 2227   1.951  15.635  10.983  0.1334  0.1901 -0.0798
  140loPI   PO4 2228   2.343  15.817  10.415 -0.3937 -0.1054 -0.0602
  140loPI   GL1 2229   2.271  16.090  10.117  0.1833 -0.0025  0.2592
  140loPI   GL2 2230   2.022  15.811  10.065 -0.1127 -0.0832 -0.0660
  140loPI   C1A 2231   2.271  16.060   9.673  0.2495 -0.0411  0.0432
  140loPI   C2A 2232   2.293  15.995   9.303 -0.1252  0.2478 -0.0907
  140loPI   C3A 2233   2.206  16.063   8.945  0.2472  0.0736 -0.0640
  140loPI   C4A 2234   2.252  16.232   8.538 -0.4398  0.0140 -0.3910
  140loPI   C5A 2235   2.198  16.239   8.136  0.2618  0.0548  0.2294
  140loPI   C6A 2236   2.138  16.025   7.782 -0.0750  0.0534  0.1778
  140loPI   C1B 2237   1.918  15.748   9.605 -0.0946  0.0916 -0.0085
  140loPI   C2B 2238   1.841  15.737   9.153  0.0649 -0.2870  0.0855
  140loPI   C3B 2239   1.850  15.738   8.747  0.1193  0.3851 -0.3089
  140loPI   C4B 2240   1.876  15.858   8.314 -0.1442  0.0933  0.1600
  141loPI    C1 2241  13.519   4.982  10.905  0.0440  0.0130 -0.0595
  141loPI    C2 2242  13.461   5.163  11.258  0.0711  0.0740 -0.0861
  141loPI    C3 2243  13.387   4.772  11.219  0.0911  0.0620 -0.0064
  141loPI   PO4 2244  13.800   4.983  10.834  0.0308 -0.0176 -0.2783
  141loPI   GL1 2245  13.928   5.155  10.589 -0.2008 -0.0685 -0.0722
  141loPI   GL2 2246  13.983   5.302  10.422 -0.1028 -0.1282  0.0755
  141loPI   C1A 2247  14.001   4.871  10.228  0.4227 -0.3171  0.2047
  141loPI   C2A 2248  13.988   4.967   9.810  0.2740 -0.0337  0.1529
  141loPI   C3A 2249  14.002   4.889   9.465 -0.0091  0.0058 -0.0385
  141loPI   C4A 2250  13.982   4.959   9.025  0.0565 -0.0757  0.1007
  141loPI   C5A 2251  14.044   4.991   8.598  0.0831  0.0824 -0.2403
  141loPI   C6A 2252  14.257   5.172   8.215 -0.1735 -0.4243 -0.0347
  141loPI   C1B 2253  13.929   5.467  10.086  0.2296  0.1777 -0.0198
  141loPI   C2B 2254  13.996   5.440   9.667  0.0359  0.1504  0.0969
  141loPI   C3B 2255  13.998   5.438   9.150  0.2548 -0.0812 -0.0330
  141loPI   C4B 2256  14.055   5.483   8.693  0.0077 -0.0555  0.1550
  142loPI    C1 2257  14.979  16.417  11.317 -0.0225  0.1271 -0.1917
  142loPI    C2 2258  14.693  16.641  11.484  0.0781  0.0606  0.0746
  142loPI    C3 2259  15.078  16.722  11.555  0.1222  0.0239 -0.1179
  142loPI   PO4 2260  14.941  16.274  11.015 -0.3713 -0.2609  0.1485
  142loPI   GL1 2261  15.241  16.139  10.716 -0.3604 -0.0122  0.0912
  142loPI   GL2 2262  15.272  15.767  10.603 -0.0024 -0.0304  0.0358
  142loPI   C1A 2263  15.166  16.245  10.279 -0.0738 -0.0003 -0.2379
  142loPI   C2A 2264  15.160  16.290   9.845  0.1503  0.0158 -0.2328
  142loPI   C3A 2265  15.121  16.291   9.428 -0.1891  0.0004  0.2591
  142loPI   C4A 2266  15.237  16.424   9.093 -0.1538  0.0800 -0.1835
  142loPI   C5A 2267  15.118  16.434   8.638 -0.0213  0.2550 -0.3117
  142loPI   C6A 2268  14.868  16.192   8.383 -0.1760  0.1624  0.1316
  142loPI   C1B 2269  15.244  15.788  10.182  0.3653 -0.1822  0.0527
  142loPI   C2B 2270  15.186  15.762   9.758  0.1866 -0.2093 -0.2133
  142loPI   C3B 2271  15.192  15.816   9.325  0.0573  0.1905  0.1658
  142loPI   C4B 2272  15.146  15.782   8.869  0.2935  0.0460  0.0650
  143loPI    C1 2273   9.716   7.681  10.975 -0.0856 -0.1169 -0.0102
  143loPI    C2 2274   9.812   7.748  11.358 -0.1066 -0.1917  0.0084
  143loPI    C3 2275   9.857   7.383  11.201 -0.0262 -0.1436 -0.0821
  143loPI   PO4 2276   9.803   7.735  10.780 -0.0825 -0.0893 -0.2123
  143loPI   GL1 2277   9.777   7.799  10.375  0.0654 -0.0658 -0.1665
  143loPI   GL2 2278  10.011   7.609  10.288 -0.0041 -0.2139  0.0819
  143loPI   C1A 2279   9.553   7.780   9.982  0.0143 -0.2148 -0.1968
  143loPI   C2A 2280   9.586   7.776   9.524  0.1099  0.1016 -0.0933
  143loPI   C3A 2281   9.643   7.750   9.126 -0.0561 -0.0287 -0.0503
  143loPI   C4A 2282   9.517   7.911   8.792 -0.1099  0.1338  0.0490
  143loPI   C5A 2283   9.364   7.792   8.403  0.0801  0.0920 -0.1111
  143loPI   C6A 2284   9.116   7.587   8.079 -0.1608  0.2229 -0.0903
  143loPI   C1B 2285  10.115   7.502   9.777 -0.0478 -0.0806 -0.0037
  143loPI   C2B 2286  10.121   7.558   9.280 -0.1492  0.1298  0.1147
  143loPI   C3B 2287  10.050   7.670   8.876 -0.2898  0.0342 -0.0112
  143loPI   C4B 2288   9.971   7.852   8.524 -0.1397  0.0093  0.5044
  144loPI    C1 2289  17.256  13.101  11.468 -0.0739  0.1626 -0.0685
  144loPI    C2 2290  17.638  13.139  11.582  0.0162  0.0542 -0.3267
  144loPI    C3 2291  17.366  13.405  11.705  0.0724 -0.1497  0.2745
  144loPI   PO4 2292  17.296  13.086  11.159  0.0111 -0.3357 -0.1525
  144loPI   GL1 2293  17.361  13.352  10.829  0.1698  0.2181  0.1080
  144loPI   GL2 2294  17.534  13.645  10.617  0.0590  0.1684  0.1080
  144loPI   C1A 2295  17.201  13.368  10.401 -0.2095 -0.1292  0.2488
  144loPI   C2A 2296  17.139  13.464   9.915  0.0118 -0.5414 -0.2529
  144loPI   C3A 2297  17.128  13.412   9.600  0.2605  0.0633 -0.1924
  144loPI   C4A 2298  17.149  13.348   9.178  0.1184 -0.1240 -0.2417
  144loPI   C5A 2299  17.125  13.223   8.735  0.1236 -0.2893 -0.1779
  144loPI   C6A 2300  17.427  13.113   8.419 -0.0156 -0.0674 -0.3876
  144loPI   C1B 2301  17.577  13.622  10.154 -0.1984 -0.1143 -0.1371
  144loPI   C2B 2302  17.570  13.700   9.799  0.0120 -0.1323  0.2340
  144loPI   C3B 2303  17.553  13.746   9.376  0.0163  0.0975 -0.1586
  144loPI   C4B 2304  17.526  13.668   8.959  0.0945 -0.1276  0.1921
  145loPI    C1 2305   3.731  12.314  10.726 -0.1977  0.0649  0.0281
  145loPI    C2 2306   3.969  12.059  10.921 -0.1187  0.0206 -0.1244
  145loPI    C3 2307   3.852  12.398  11.098 -0.0159  0.0001 -0.0151
  145loPI   PO4 2308   3.776  12.252  10.444  0.0296 -0.0975  0.1791
  145loPI   GL1 2309   3.923  11.912  10.176 -0.1105 -0.0244 -0.2035
  145loPI   GL2 2310   4.260  11.819  10.151 -0.2041  0.1054 -0.1439
  145loPI   C1A 2311   3.893  11.881   9.746  0.0212 -0.1407  0.0110
  145loPI   C2A 2312   3.999  11.779   9.298 -0.0247 -0.0322  0.1763
  145loPI   C3A 2313   4.018  11.686   8.880 -0.0007 -0.0328 -0.1760
  145loPI   C4A 2314   4.147  11.685   8.503  0.1758  0.0579  0.1671
  145loPI   C5A 2315   4.420  11.645   8.163 -0.0291  0.1582 -0.2076
  145loPI   C6A 2316   4.189  11.825   7.795 -0.0809 -0.1999  0.0017
  145loPI   C1B 2317   4.439  11.695   9.769 -0.2022 -0.1784  0.1476
  145loPI   C2B 2318   4.474  11.650   9.359 -0.1246  0.0943  0.1739
  145loPI   C3B 2319   4.497  11.560   8.988  0.0558  0.2067  0.0903
  145loPI   C4B 2320   4.656  11.376   8.685  0.3981 -0.0473 -0.1533
  146loPI    C1 2321   4.170   4.425  11.109 -0.1072  0.2031 -0.0292
  146loPI    C2 2322   3.885   4.630  11.302 -0.0995 -0.0628  0.2725
  146loPI    C3 2323   4.235   4.555  11.482  0.1302  0.1788 -0.0605
  146loPI   PO4 2324   4.217   4.516  10.925  0.3388 -0.1361  0.0532
  146loPI   GL1 2325   4.489   4.629  10.550 -0.1301 -0.2286  0.2008
  146loPI   GL2 2326   4.766   4.492  10.503 -0.0516  0.0827 -0.1375
  146loPI   C1A 2327   4.318   4.695  10.196 -0.4217  0.0992 -0.2944
  146loPI   C2A 2328   4.166   4.747   9.847  0.0576  0.3279  0.0465
  146loPI   C3A 2329   4.247   4.673   9.508  0.0918  0.0579  0.0636
  146loPI   C4A 2330   4.287   4.701   9.081 -0.0265  0.0706  0.0157
  146loPI   C5A 2331   4.309   4.744   8.614 -0.2236 -0.1583  0.0036
  146loPI   C6A 2332   4.150   4.409   8.357  0.0867  0.0768  0.1720
  146loPI   C1B 2333   4.720   4.420  10.019  0.1032  0.1858 -0.0089
  146loPI   C2B 2334   4.716   4.420   9.662  0.3812  0.0971 -0.2333
  146loPI   C3B 2335   4.734   4.441   9.197 -0.4832  0.1574 -0.0298
  146loPI   C4B 2336   4.721   4.549   8.761  0.0695  0.2389  0.1099
  147loPI    C1 2337  11.785   8.126  10.623  0.0571 -0.0185 -0.1606
  147loPI    C2 2338  11.669   8.129  11.006  0.3625 -0.2906 -0.0602
  147loPI    C3 2339  11.419   7.999  10.722  0.0780  0.0596  0.0215
  147loPI   PO4 2340  11.864   8.328  10.535 -0.1763  0.0404  0.0330
  147loPI   GL1 2341  11.889   8.303  10.087  0.0221  0.1934 -0.2539
  147loPI   GL2 2342  12.213   8.168  10.096 -0.0446 -0.0642 -0.2814
  147loPI   C1A 2343  11.802   8.397   9.664  0.1942  0.0283  0.1092
  147loPI   C2A 2344  11.800   8.344   9.173  0.1625  0.0651  0.3173
  147loPI   C3A 2345  11.752   8.469   8.753  0.0475 -0.1437  0.0492
  147loPI   C4A 2346  11.845   8.382   8.346  0.1060  0.1923 -0.0131
  147loPI   C5A 2347  12.013   8.466   7.917  0.2346  0.3460  0.0852
  147loPI   C6A 2348  12.453   8.516   7.715 -0.0945  0.0803 -0.1571
  147loPI   C1B 2349  12.113   8.007   9.701 -0.1124 -0.0606 -0.2040
  147loPI   C2B 2350  12.134   8.022   9.373 -0.3462  0.1962  0.0312
  147loPI   C3B 2351  12.255   8.172   9.082  0.2116  0.3150  0.1396
  147loPI   C4B 2352  12.253   8.177   8.647  0.0979 -0.2759 -0.0868
  148loPI    C1 2353   9.710  16.836  10.720  0.2056 -0.1474 -0.0203
  148loPI    C2 2354   9.555  16.639  11.032  0.1327 -0.0721 -0.0089
  148loPI    C3 2355   9.934  16.573  10.923  0.1045 -0.2294 -0.0141
  148loPI   PO4 2356   9.560  16.851  10.558 -0.3001 -0.1431  0.2676
  148loPI   GL1 2357   9.508  16.703  10.127 -0.1439 -0.0565 -0.3738
  148loPI   GL2 2358   9.586  16.384  10.096 -0.1735  0.1305  0.1311
  148loPI   C1A 2359   9.486  16.830   9.729  0.0552  0.1887  0.0475
  148loPI   C2A 2360   9.496  16.818   9.320 -0.1295 -0.2881  0.0685
  148loPI   C3A 2361   9.440  16.827   8.852  0.1280  0.0750 -0.3425
  148loPI   C4A 2362   9.478  16.804   8.440  0.2496 -0.0447 -0.2069
  148loPI   C5A 2363   9.581  16.950   8.049 -0.1201  0.0272  0.0188
  148loPI   C6A 2364   9.610  17.227   7.713 -0.0071 -0.0563  0.2277
  148loPI   C1B 2365   9.526  16.333   9.686  0.1417  0.0428 -0.2879
  148loPI   C2B 2366   9.510  16.302   9.241 -0.0117  0.1852  0.1441
  148loPI   C3B 2367   9.585  16.351   8.736 -0.1833 -0.1664  0.0997
  148loPI   C4B 2368   9.761  16.478   8.296 -0.5243 -0.2224  0.1190
  149loPI    C1 2369  12.896  17.789  11.386  0.0079 -0.2791 -0.1524
  149loPI    C2 2370  12.613  17.609  11.603 -0.0356  0.0308  0.0552
  149loPI    C3 2371  12.999  17.551  11.690 -0.0364 -0.2618 -0.1237
  149loPI   PO4 2372  12.771  17.815  11.137  0.3887  0.1434 -0.1901
  149loPI   GL1 2373  12.867  17.977  10.782 -0.0684 -0.4190  0.0460
  149loPI   GL2 2374  12.728  18.299  10.681 -0.0230 -0.1189 -0.0808
  149loPI   C1A 2375  12.637  17.844  10.489 -0.0673  0.2612  0.2659
  149loPI   C2A 2376  12.769  17.797  10.013 -0.0337 -0.2113 -0.1205
  149loPI   C3A 2377  12.808  17.878   9.576 -0.1079 -0.1000 -0.0361
  149loPI   C4A 2378  12.780  17.937   9.112  0.1616 -0.1404  0.1751
  149loPI   C5A 2379  12.796  17.925   8.628  0.1793 -0.1739  0.0289
  149loPI   C6A 2380  12.617  17.711   8.314 -0.2464 -0.0094 -0.3436
  149loPI   C1B 2381  12.706  18.384  10.188 -0.1161  0.1196 -0.2044
  149loPI   C2B 2382  12.734  18.418   9.750  0.3311  0.1524  0.1247
  149loPI   C3B 2383  12.720  18.419   9.314 -0.1786  0.1528  0.2464
  149loPI   C4B 2384  12.751  18.402   8.829 -0.0741 -0.0583 -0.0797
  150loPI    C1 2385  17.621  17.577  11.306  0.1956  0.1237 -0.1217
  150loPI    C2 2386  17.283  17.497  11.505  0.2117 -0.1651 -0.2052
  150loPI    C3 2387  17.469  17.847  11.559 -0.0189 -0.0644 -0.0453
  150loPI   PO4 2388  17.551  17.524  11.043  0.0562  0.1525  0.4039
  150loPI   GL1 2389  17.512  17.455  10.655 -0.0463  0.0586  0.0427
  150loPI   GL2 2390  17.219  17.276  10.589 -0.2161  0.0087 -0.3931
  150loPI   C1A 2391  17.808  17.607  10.347  0.0254 -0.0105  0.0040
  150loPI   C2A 2392  17.796  17.610   9.841  0.1604  0.0441  0.2723
  150loPI   C3A 2393  17.805  17.630   9.471  0.2300 -0.2645 -0.2648
  150loPI   C4A 2394  17.741  17.614   9.072  0.1437  0.2056  0.0351
  150loPI   C5A 2395  17.545  17.668   8.700  0.0068  0.1451  0.2323
  150loPI   C6A 2396  17.324  17.437   8.459 -0.1772  0.4654 -0.0226
  150loPI   C1B 2397  17.389  17.281  10.206  0.0731 -0.0657  0.0862
  150loPI   C2B 2398  17.399  17.266   9.826 -0.1901  0.3504  0.0162
  150loPI   C3B 2399  17.340  17.228   9.369  0.1441  0.0611  0.2967
  150loPI   C4B 2400  17.358  17.308   8.923 -0.2040  0.0130  0.3435
  151loPI    C1 2401  11.003   6.558  11.211  0.0411  0.2889  0.0539
  151loPI    C2 2402  10.850   6.197  11.287  0.2352  0.1224 -0.3227
  151loPI    C3 2403  10.777   6.501  11.536 -0.0113 -0.1502 -0.0540
  151loPI   PO4 2404  10.877   6.600  10.902  0.1579 -0.1455  0.1264
  151loPI   GL1 2405  11.083   6.691  10.512  0.1634 -0.2319 -0.0172
  151loPI   GL2 2406  10.991   7.113  10.548  0.0095  0.1263  0.4185
  151loPI   C1A 2407  11.060   6.696  10.090 -0.1931  0.2314  0.0471
  151loPI   C2A 2408  11.010   6.655   9.610  0.0367 -0.0797 -0.1596
  151loPI   C3A 2409  11.054   6.672   9.128 -0.1796 -0.0809 -0.0146
  151loPI   C4A 2410  11.185   6.816   8.726  0.3443 -0.0345 -0.2161
  151loPI   C5A 2411  11.285   7.089   8.477 -0.1022 -0.3928  0.1097
  151loPI   C6A 2412  11.461   7.299   8.144 -0.0597 -0.1368 -0.0348
  151loPI   C1B 2413  11.044   7.203  10.137  0.0866 -0.0035 -0.1510
  151loPI   C2B 2414  11.045   7.176   9.766 -0.1261 -0.0377 -0.1287
  151loPI   C3B 2415  11.011   7.198   9.347  0.1683  0.1056  0.1122
  151loPI   C4B 2416  10.975   7.195   8.955 -0.0797  0.0810  0.0701
  152loPI    C1 2417   9.576  17.355  10.701  0.1479  0.0065  0.1421
  152loPI    C2 2418   9.199  17.221  10.709  0.1277  0.0610  0.1144
  152loPI    C3 2419   9.444  17.148  11.017  0.0328  0.2044  0.2255
  152loPI   PO4 2420   9.623  17.346  10.395  0.1593  0.2095  0.3505
  152loPI   GL1 2421   9.583  17.745  10.165  0.3420 -0.0665  0.3616
  152loPI   GL2 2422   9.847  17.651   9.993 -0.0053 -0.1549 -0.0813
  152loPI   C1A 2423   9.596  18.215   9.916 -0.0232  0.0130 -0.3580
  152loPI   C2A 2424   9.686  18.266   9.483  0.1842  0.3359 -0.1996
  152loPI   C3A 2425   9.690  18.308   9.061 -0.2437  0.1573  0.0049
  152loPI   C4A 2426   9.672  18.275   8.658  0.0380  0.1509 -0.1071
  152loPI   C5A 2427   9.459  18.174   8.234  0.1706 -0.2129  0.0466
  152loPI   C6A 2428   9.186  17.900   7.980 -0.2333  0.4205 -0.3394
  152loPI   C1B 2429   9.772  17.818   9.656 -0.1321  0.0091  0.1782
  152loPI   C2B 2430   9.774  17.800   9.206  0.0423  0.1982  0.0081
  152loPI   C3B 2431   9.840  17.819   8.763  0.0667  0.0645  0.0964
  152loPI   C4B 2432   9.942  17.922   8.315  0.3700  0.2235 -0.0477
  153loPI    C1 2433  15.377   5.720  11.220 -0.0278 -0.1605 -0.2307
  153loPI    C2 2434  15.617   5.672  11.537 -0.1057  0.2296 -0.1075
  153loPI    C3 2435  15.237   5.551  11.555 -0.0445  0.0281 -0.1413
  153loPI   PO4 2436  15.526   5.647  11.020  0.1991 -0.1835  0.1452
  153loPI   GL1 2437  15.699   5.580  10.542  0.0996 -0.2679  0.1271
  153loPI   GL2 2438  16.080   5.490  10.435  0.0096 -0.0240 -0.4510
  153loPI   C1A 2439  15.683   5.622  10.103 -0.2917 -0.0202  0.1473
  153loPI   C2A 2440  15.723   5.636   9.669 -0.1974  0.1006  0.3359
  153loPI   C3A 2441  15.711   5.649   9.203 -0.0292 -0.0217  0.2321
  153loPI   C4A 2442  15.731   5.712   8.840 -0.0827  0.0197  0.2017
  153loPI   C5A 2443  15.456   5.670   8.553 -0.1977 -0.4863 -0.2333
  153loPI   C6A 2444  15.469   5.560   8.102 -0.1620  0.2039 -0.0461
  153loPI   C1B 2445  16.119   5.415   9.991 -0.0327  0.2310  0.3225
  153loPI   C2B 2446  16.275   5.411   9.576 -0.0252 -0.0531 -0.3420
  153loPI   C3B 2447  16.176   5.483   9.133 -0.0830 -0.2465  0.1370
  153loPI   C4B 2448  16.150   5.391   8.737 -0.0550  0.0655  0.1389
  154loPI    C1 2449  14.513  11.049  10.911  0.2423 -0.1289  0.1093
  154loPI    C2 2450  14.416  10.946  11.285 -0.1214 -0.1590  0.0106
  154loPI    C3 2451  14.721  11.196  11.219 -0.0771 -0.1254  0.3279
  154loPI   PO4 2452  14.501  10.815  10.806 -0.1179 -0.3355  0.0043
  154loPI   GL1 2453  14.449  10.649  10.383  0.0214  0.1279 -0.0270
  154loPI   GL2 2454  14.279  10.804  10.176 -0.2732 -0.2096 -0.0446
  154loPI   C1A 2455  14.748  10.490  10.095  0.0523  0.1825  0.1089
  154loPI   C2A 2456  14.767  10.395   9.730 -0.2893 -0.2052  0.0343
  154loPI   C3A 2457  14.748  10.448   9.245 -0.0715 -0.1555 -0.1225
  154loPI   C4A 2458  14.606  10.572   8.874 -0.2117 -0.0296 -0.1217
  154loPI   C5A 2459  14.770  10.496   8.469 -0.2195  0.2446  0.1989
  154loPI   C6A 2460  14.802  10.071   8.257 -0.1488 -0.1025  0.1592
  154loPI   C1B 2461  14.232  10.771   9.825 -0.1520 -0.1185  0.1016
  154loPI   C2B 2462  14.204  10.786   9.424 -0.0797  0.0450  0.1508
  154loPI   C3B 2463  14.160  10.719   8.961  0.1462  0.0661 -0.0349
  154loPI   C4B 2464  14.154  10.674   8.547  0.0566 -0.4481  0.3215
  155loPI    C1 2465   9.786   5.502  11.072  0.0562 -0.0963  0.0500
  155loPI    C2 2466  10.033   5.777  11.225 -0.1254  0.0078  0.1601
  155loPI    C3 2467  10.046   5.400  11.358  0.2264 -0.0751 -0.0961
  155loPI   PO4 2468   9.760   5.658  10.856  0.0557  0.0911 -0.0494
  155loPI   GL1 2469  10.079   5.832  10.675 -0.3187 -0.1604  0.0782
  155loPI   GL2 2470  10.222   6.022  10.487  0.3295 -0.0654  0.0165
  155loPI   C1A 2471   9.873   5.667  10.235  0.2270 -0.1660  0.2273
  155loPI   C2A 2472   9.911   5.713   9.796  0.0067 -0.0589 -0.1454
  155loPI   C3A 2473   9.944   5.668   9.354  0.2878  0.0673 -0.2248
  155loPI   C4A 2474   9.926   5.704   8.970 -0.4380  0.1620 -0.0678
  155loPI   C5A 2475   9.965   5.556   8.621  0.0911  0.1033  0.1745
  155loPI   C6A 2476   9.945   5.379   8.147 -0.1608  0.1263 -0.1710
  155loPI   C1B 2477  10.258   6.002  10.053 -0.1487 -0.2258  0.0320
  155loPI   C2B 2478  10.303   5.980   9.634  0.2393 -0.3392 -0.1736
  155loPI   C3B 2479  10.252   6.024   9.190 -0.4562 -0.2275  0.1220
  155loPI   C4B 2480  10.273   6.073   8.773  0.1815 -0.0521  0.0989
  156loPI    C1 2481  11.273  14.774  11.035 -0.0252  0.1643 -0.0280
  156loPI    C2 2482  10.906  14.891  11.147 -0.0273  0.1999 -0.0724
  156loPI    C3 2483  11.153  14.724  11.414 -0.1553 -0.0256 -0.0925
  156loPI   PO4 2484  11.317  14.724  10.889  0.2207  0.0499  0.0361
  156loPI   GL1 2485  11.652  14.748  10.504 -0.1065  0.2358  0.1967
  156loPI   GL2 2486  11.450  14.519  10.320 -0.0930 -0.0246 -0.0052
  156loPI   C1A 2487  11.567  14.994  10.182  0.0420  0.0177 -0.1256
  156loPI   C2A 2488  11.453  14.932   9.757 -0.1250  0.1373  0.0136
  156loPI   C3A 2489  11.537  14.931   9.336 -0.0832 -0.1946  0.0626
  156loPI   C4A 2490  11.655  14.856   8.924  0.0935 -0.2945 -0.1080
  156loPI   C5A 2491  11.687  15.062   8.475 -0.3214  0.1284 -0.2096
  156loPI   C6A 2492  11.518  15.240   8.164  0.2239  0.0622  0.3498
  156loPI   C1B 2493  11.588  14.430   9.850  0.0818 -0.0838  0.2298
  156loPI   C2B 2494  11.680  14.359   9.444  0.2076  0.0602  0.2151
  156loPI   C3B 2495  11.697  14.301   9.011 -0.0607 -0.0452 -0.1769
  156loPI   C4B 2496  11.767  14.457   8.660 -0.0402  0.0237  0.2890
  157loPI    C1 2497   3.676  11.736  10.671  0.0036  0.0757 -0.0984
  157loPI    C2 2498   3.442  11.911  10.944 -0.0472 -0.1593  0.0116
  157loPI    C3 2499   3.677  11.605  11.049  0.1785 -0.0402 -0.1378
  157loPI   PO4 2500   3.678  11.619  10.479 -0.2558 -0.1443 -0.1641
  157loPI   GL1 2501   3.535  11.401  10.221  0.2276 -0.1021 -0.3566
  157loPI   GL2 2502   3.463  11.675  10.025  0.2387 -0.0418 -0.0737
  157loPI   C1A 2503   3.659  11.056   9.951  0.0619 -0.0847  0.2510
  157loPI   C2A 2504   3.681  11.014   9.523  0.1572 -0.4213  0.0171
  157loPI   C3A 2505   3.701  11.027   9.091 -0.0481 -0.1562  0.0440
  157loPI   C4A 2506   3.641  10.875   8.668  0.2465  0.0555 -0.1141
  157loPI   C5A 2507   3.524  10.630   8.298  0.2559  0.1269  0.0823
  157loPI   C6A 2508   3.188  10.537   8.092  0.1439  0.0230 -0.1447
  157loPI   C1B 2509   3.553  11.516   9.632  0.0369 -0.3321 -0.3712
  157loPI   C2B 2510   3.580  11.458   9.293  0.2609  0.1480  0.2547
  157loPI   C3B 2511   3.626  11.500   8.965  0.1727  0.2396  0.1182
  157loPI   C4B 2512   3.629  11.369   8.460 -0.0426  0.1559 -0.0896
  158loPI    C1 2513  17.334   8.280  11.160  0.0431  0.0560  0.0092
  158loPI    C2 2514  17.457   7.976  11.390 -0.2739 -0.1364 -0.0700
  158loPI    C3 2515  17.509   8.353  11.512  0.1813 -0.2163  0.0007
  158loPI   PO4 2516  17.339   8.272  10.955 -0.0493  0.0219 -0.2964
  158loPI   GL1 2517  17.320   8.208  10.486 -0.3538  0.0923  0.0805
  158loPI   GL2 2518  17.296   7.952  10.592  0.0984  0.1955  0.0039
  158loPI   C1A 2519  17.153   8.266   9.994  0.0028 -0.0208 -0.0112
  158loPI   C2A 2520  17.259   8.397   9.637 -0.0279  0.3129 -0.0348
  158loPI   C3A 2521  17.206   8.476   9.152 -0.0379  0.1562 -0.2652
  158loPI   C4A 2522  17.232   8.508   8.713 -0.0689 -0.1390  0.1245
  158loPI   C5A 2523  17.055   8.436   8.370 -0.0846  0.1556  0.0071
  158loPI   C6A 2524  16.704   8.133   8.277 -0.2106 -0.2413  0.2349
  158loPI   C1B 2525  17.441   7.850  10.158  0.1035 -0.1626 -0.5257
  158loPI   C2B 2526  17.325   7.846   9.733  0.2281  0.1105  0.1435
  158loPI   C3B 2527  17.175   7.942   9.329 -0.2313  0.3197 -0.1050
  158loPI   C4B 2528  17.285   7.952   9.025  0.2155  0.0958 -0.1959
  159loPI    C1 2529  17.184  10.960  11.305 -0.0385 -0.1107  0.0441
  159loPI    C2 2530  17.023  10.610  11.413 -0.1342 -0.0861 -0.0172
  159loPI    C3 2531  16.818  10.950  11.466  0.0442 -0.0154  0.2413
  159loPI   PO4 2532  17.204  10.966  11.093 -0.0467  0.2647  0.2458
  159loPI   GL1 2533  17.159  10.996  10.687 -0.0642 -0.4060  0.1510
  159loPI   GL2 2534  17.455  10.748  10.671 -0.1927  0.1120 -0.0105
  159loPI   C1A 2535  16.992  10.941  10.316  0.0200  0.0055  0.1070
  159loPI   C2A 2536  17.050  11.010   9.899  0.0467 -0.1084 -0.0702
  159loPI   C3A 2537  17.037  11.063   9.469  0.0477 -0.0362  0.0349
  159loPI   C4A 2538  17.015  11.025   9.058  0.1258 -0.0844  0.0684
  159loPI   C5A 2539  16.962  11.046   8.621  0.0011  0.3017 -0.0062
  159loPI   C6A 2540  16.638  11.234   8.412 -0.2798 -0.0381  0.0473
  159loPI   C1B 2541  17.478  10.763  10.229  0.0625 -0.0280  0.1753
  159loPI   C2B 2542  17.461  10.769   9.724  0.0004  0.1414  0.1955
  159loPI   C3B 2543  17.416  10.873   9.279 -0.3016 -0.1122 -0.0457
  159loPI   C4B 2544  17.392  10.834   8.760 -0.0414 -0.2591 -0.0752
  160loPI    C1 2545  16.507   6.075  11.235 -0.2481  0.0337 -0.0178
  160loPI    C2 2546  16.232   6.340  11.356  0.1092  0.3821  0.0539
  160loPI    C3 2547  16.486   6.179  11.621 -0.1545 -0.1017  0.0245
  160loPI   PO4 2548  16.373   6.000  11.019 -0.0753  0.1948 -0.2235
  160loPI   GL1 2549  16.437   5.802  10.645 -0.1916  0.1455 -0.1740
  160loPI   GL2 2550  16.203   5.956  10.580 -0.0332 -0.0466 -0.2253
  160loPI   C1A 2551  16.573   5.750  10.218 -0.0656  0.1206 -0.1349
  160loPI   C2A 2552  16.670   5.795   9.732 -0.2956  0.1009  0.1421
  160loPI   C3A 2553  16.622   5.741   9.380 -0.1364 -0.2359 -0.1708
  160loPI   C4A 2554  16.565   5.734   8.955  0.0921  0.2073  0.1076
  160loPI   C5A 2555  16.492   5.736   8.513  0.0967 -0.1701  0.0670
  160loPI   C6A 2556  16.387   5.633   8.109  0.1402  0.0520 -0.1188
  160loPI   C1B 2557  16.155   5.977  10.072 -0.1028 -0.0091  0.0176
  160loPI   C2B 2558  16.194   5.945   9.666 -0.1090  0.0351  0.0128
  160loPI   C3B 2559  16.160   5.951   9.282 -0.1808  0.0748  0.0206
  160loPI   C4B 2560  16.140   5.955   8.843 -0.1417 -0.0084  0.0971
  161loPI    C1 2561  12.464   7.034  10.947  0.0403 -0.2426 -0.3391
  161loPI    C2 2562  12.329   7.388  11.075  0.1314 -0.1801 -0.4146
  161loPI    C3 2563  12.111   7.058  11.134  0.0005 -0.0973 -0.4309
  161loPI   PO4 2564  12.492   7.015  10.752  0.2374  0.1327 -0.0020
  161loPI   GL1 2565  12.236   6.807  10.370  0.0992  0.0585 -0.2256
  161loPI   GL2 2566  11.945   7.019  10.206  0.1500  0.0181  0.0802
  161loPI   C1A 2567  12.459   6.542  10.026 -0.4296  0.2146 -0.1269
  161loPI   C2A 2568  12.404   6.476   9.550  0.0255 -0.1423  0.1395
  161loPI   C3A 2569  12.434   6.639   9.134 -0.2455 -0.3498  0.0954
  161loPI   C4A 2570  12.512   6.589   8.725  0.1916  0.0423  0.1930
  161loPI   C5A 2571  12.739   6.446   8.403 -0.1084  0.1481  0.3758
  161loPI   C6A 2572  12.716   6.101   8.120 -0.1251 -0.2484  0.0429
  161loPI   C1B 2573  11.876   6.971   9.707  0.1757 -0.0777 -0.0842
  161loPI   C2B 2574  11.931   6.711   9.276 -0.5653  0.1605 -0.0734
  161loPI   C3B 2575  12.007   6.618   8.798 -0.0051  0.1392  0.0546
  161loPI   C4B 2576  12.025   6.227   8.551  0.2037  0.0073  0.0329
  162loPI    C1 2577   3.212  11.440  10.979 -0.1001  0.0238 -0.0141
  162loPI    C2 2578   2.855  11.370  11.148 -0.0693 -0.0634  0.0156
  162loPI    C3 2579   3.141  11.091  11.161 -0.0092 -0.0047 -0.0330
  162loPI   PO4 2580   3.211  11.552  10.656  0.1239 -0.0503  0.1694
  162loPI   GL1 2581   2.962  11.499  10.348 -0.0545  0.1304  0.1203
  162loPI   GL2 2582   2.936  11.729  10.245 -0.2331 -0.0345 -0.2289
  162loPI   C1A 2583   3.128  11.376   9.968  0.2206 -0.0003  0.1025
  162loPI   C2A 2584   3.138  11.101   9.743 -0.2429  0.0694  0.1280
  162loPI   C3A 2585   3.146  11.179   9.330 -0.1750 -0.0539  0.0854
  162loPI   C4A 2586   3.230  11.167   8.917  0.1311 -0.1978  0.3203
  162loPI   C5A 2587   3.216  11.000   8.488 -0.0519 -0.0308 -0.1358
  162loPI   C6A 2588   3.082  10.993   7.996 -0.2220  0.0369 -0.1530
  162loPI   C1B 2589   3.122  11.904   9.731  0.1936  0.1540  0.1348
  162loPI   C2B 2590   3.093  11.752   9.335  0.1549  0.1716 -0.1538
  162loPI   C3B 2591   3.147  11.693   8.991 -0.2024  0.0458  0.0491
  162loPI   C4B 2592   3.141  11.522   8.559 -0.2491 -0.1330  0.1052
  163loPI    C1 2593  17.497   3.322  11.353 -0.2438 -0.2592 -0.0230
  163loPI    C2 2594  17.803   3.414  11.593 -0.2218  0.2141 -0.2210
  163loPI    C3 2595  17.441   3.569  11.662 -0.3127  0.0199 -0.2540
  163loPI   PO4 2596  17.660   3.064  11.255  0.1567 -0.1654  0.1180
  163loPI   GL1 2597  17.789   2.780  10.926  0.0531 -0.0327 -0.0640
  163loPI   GL2 2598  17.561   3.040  10.774 -0.2817 -0.1701 -0.0660
  163loPI   C1A 2599  17.952   2.782  10.473 -0.3015  0.0180 -0.1154
  163loPI   C2A 2600  17.852   2.728   9.989 -0.1923 -0.2260  0.4391
  163loPI   C3A 2601  17.852   2.767   9.525 -0.1439  0.0284  0.1353
  163loPI   C4A 2602  17.829   2.758   9.054 -0.0059  0.3390  0.0405
  163loPI   C5A 2603  17.841   2.755   8.658  0.2315 -0.2754  0.0357
  163loPI   C6A 2604  17.622   2.531   8.310 -0.1112  0.0080  0.0325
  163loPI   C1B 2605  17.429   2.989  10.354  0.0047 -0.0587 -0.1247
  163loPI   C2B 2606  17.375   2.952   9.931 -0.1294 -0.1203 -0.0652
  163loPI   C3B 2607  17.316   2.932   9.548  0.1517  0.2168  0.0468
  163loPI   C4B 2608  17.370   2.979   9.129 -0.1058 -0.0341  0.0583
  164loPI    C1 2609   9.596   6.096  11.087  0.0532 -0.2802  0.2625
  164loPI    C2 2610   9.497   6.235  11.449 -0.2521 -0.1588  0.1356
  164loPI    C3 2611   9.580   5.847  11.400  0.0621 -0.1278  0.3859
  164loPI   PO4 2612   9.491   6.239  10.880  0.2085 -0.1682 -0.0096
  164loPI   GL1 2613   9.604   6.029  10.472 -0.0659 -0.1463 -0.1232
  164loPI   GL2 2614   9.775   6.325  10.471  0.0002  0.1624 -0.0880
  164loPI   C1A 2615   9.429   5.920  10.021  0.1936 -0.0514 -0.1449
  164loPI   C2A 2616   9.457   5.820   9.592 -0.1033 -0.2911  0.0686
  164loPI   C3A 2617   9.446   5.804   9.188  0.1782  0.0744 -0.0799
  164loPI   C4A 2618   9.529   5.852   8.727  0.0874 -0.2238  0.2375
  164loPI   C5A 2619   9.521   5.836   8.274 -0.2984  0.0927  0.0087
  164loPI   C6A 2620   9.594   5.614   7.903  0.0548  0.0211  0.1950
  164loPI   C1B 2621   9.818   6.223   9.962  0.2911  0.0475  0.0915
  164loPI   C2B 2622   9.833   6.168   9.518 -0.0449 -0.2240  0.1090
  164loPI   C3B 2623   9.784   6.190   9.084  0.1490  0.1323  0.2077
  164loPI   C4B 2624   9.775   6.263   8.617  0.1302 -0.0179 -0.3123
  165loPI    C1 2625  11.506   8.626  10.772 -0.1119 -0.0156 -0.0204
  165loPI    C2 2626  11.275   8.804  11.046 -0.3418  0.0062 -0.2245
  165loPI    C3 2627  11.202   8.426  10.938 -0.0488 -0.1126 -0.0210
  165loPI   PO4 2628  11.574   8.796  10.625  0.0179  0.0043  0.0478
  165loPI   GL1 2629  11.598   8.722  10.190  0.4007 -0.1811 -0.0264
  165loPI   GL2 2630  11.309   8.941  10.221 -0.0403  0.0583 -0.0761
  165loPI   C1A 2631  11.723   8.843   9.848 -0.0768  0.0588  0.2098
  165loPI   C2A 2632  11.766   8.870   9.387 -0.0421 -0.0969  0.2012
  165loPI   C3A 2633  11.652   8.898   8.941 -0.2736 -0.0585  0.0296
  165loPI   C4A 2634  11.743   8.927   8.491 -0.0663  0.0753  0.1136
  165loPI   C5A 2635  11.506   8.700   8.070  0.3006  0.0731 -0.1351
  165loPI   C6A 2636  11.129   8.672   7.865  0.2329  0.0949  0.0190
  165loPI   C1B 2637  11.189   8.968   9.789 -0.1494  0.3080 -0.0212
  165loPI   C2B 2638  11.159   9.095   9.390 -0.1084 -0.1336  0.2723
  165loPI   C3B 2639  11.157   9.093   8.958 -0.1730  0.2505  0.0866
  165loPI   C4B 2640  11.133   9.264   8.544 -0.4197 -0.4569  0.3821
  166loPI    C1 2641   7.222  14.866  10.832 -0.2677 -0.1490 -0.1288
  166loPI    C2 2642   7.504  14.591  10.900 -0.1141  0.0461  0.0356
  166loPI    C3 2643   7.127  14.522  11.012 -0.1074 -0.1603 -0.0641
  166loPI   PO4 2644   7.254  14.942  10.550 -0.0195  0.1483  0.3311
  166loPI   GL1 2645   7.042  15.023  10.227  0.0877 -0.0269 -0.1579
  166loPI   GL2 2646   7.142  14.684  10.066 -0.1378  0.3250 -0.0399
  166loPI   C1A 2647   7.023  15.035   9.790 -0.2949 -0.0585 -0.0382
  166loPI   C2A 2648   7.010  14.960   9.319  0.2625  0.0334  0.0086
  166loPI   C3A 2649   7.006  14.904   8.926  0.1319  0.2356 -0.1775
  166loPI   C4A 2650   6.926  14.814   8.497 -0.0069 -0.0255 -0.2615
  166loPI   C5A 2651   6.772  14.958   8.166 -0.1413 -0.0992 -0.0793
  166loPI   C6A 2652   6.562  14.647   7.780  0.0244  0.0758 -0.1594
  166loPI   C1B 2653   7.163  14.558   9.648 -0.1464 -0.1018  0.3337
  166loPI   C2B 2654   7.037  14.469   9.242 -0.0200  0.0904  0.0111
  166loPI   C3B 2655   6.993  14.381   8.818  0.1169  0.0461  0.1094
  166loPI   C4B 2656   7.112  14.304   8.360 -0.0668  0.0527  0.0975
  167loPI    C1 2657  13.459  15.035  11.028  0.0787  0.1391  0.2368
  167loPI    C2 2658  13.063  14.987  11.007  0.1171 -0.0575 -0.1136
  167loPI    C3 2659  13.282  14.742  11.235  0.0505 -0.0207 -0.0093
  167loPI   PO4 2660  13.540  15.021  10.765 -0.0381 -0.0069  0.0305
  167loPI   GL1 2661  13.764  14.859  10.468 -0.1386 -0.2566 -0.0645
  167loPI   GL2 2662  14.058  14.759  10.561 -0.3252  0.2131 -0.1980
  167loPI   C1A 2663  13.778  14.785  10.096  0.1597  0.2665 -0.2219
  167loPI   C2A 2664  13.853  14.904   9.662  0.1103 -0.0861 -0.0163
  167loPI   C3A 2665  13.881  14.898   9.194 -0.0446  0.0445 -0.2299
  167loPI   C4A 2666  13.922  14.857   8.814  0.0129 -0.0896 -0.3682
  167loPI   C5A 2667  14.111  14.859   8.497 -0.2571  0.0456  0.0651
  167loPI   C6A 2668  14.503  15.050   8.451  0.1460  0.1234 -0.1255
  167loPI   C1B 2669  14.343  14.736  10.237  0.3686 -0.0914 -0.2178
  167loPI   C2B 2670  14.291  14.694   9.737  0.1798 -0.0435 -0.1241
  167loPI   C3B 2671  14.346  14.668   9.399  0.1063  0.0443  0.1594
  167loPI   C4B 2672  14.397  14.617   8.921 -0.0056 -0.2299  0.1867
  168loPI    C1 2673  16.605   6.529  11.088  0.1311 -0.1692  0.2940
  168loPI    C2 2674  16.898   6.381  11.317  0.0362  0.0210  0.5428
  168loPI    C3 2675  16.624   6.626  11.475 -0.1831 -0.0508  0.2826
  168loPI   PO4 2676  16.667   6.477  10.844  0.0735  0.1014 -0.1843
  168loPI   GL1 2677  16.639   6.266  10.613 -0.0233  0.0404  0.2648
  168loPI   GL2 2678  16.859   6.048  10.457 -0.1767 -0.2113  0.1865
  168loPI   C1A 2679  16.508   6.337  10.211 -0.0870  0.1472 -0.0814
  168loPI   C2A 2680  16.538   6.282   9.768 -0.1680  0.1007  0.2766
  168loPI   C3A 2681  16.596   6.299   9.391  0.2693  0.0074 -0.1378
  168loPI   C4A 2682  16.555   6.269   8.979  0.0626  0.1703 -0.1686
  168loPI   C5A 2683  16.422   6.240   8.476 -0.1728  0.3048  0.0606
  168loPI   C6A 2684  16.609   6.073   8.048  0.1638 -0.1421  0.2027
  168loPI   C1B 2685  16.961   6.098  10.056 -0.1764  0.1163 -0.0968
  168loPI   C2B 2686  17.094   6.020   9.635  0.3471 -0.3307  0.1543
  168loPI   C3B 2687  16.986   6.021   9.178  0.1176  0.3419 -0.1607
  168loPI   C4B 2688  16.986   6.041   8.744 -0.0146 -0.2021 -0.0495
  169loPI    C1 2689   8.148   7.213  10.797 -0.0581  0.1032 -0.1254
  169loPI    C2 2690   7.768   7.328  10.847  0.0294  0.3693 -0.0580
  169loPI    C3 2691   8.051   7.458  11.098  0.1904  0.2992 -0.2012
  169loPI   PO4 2692   8.195   7.226  10.578 -0.1063  0.0022  0.2501
  169loPI   GL1 2693   8.432   6.892  10.322 -0.2177 -0.1614  0.0931
  169loPI   GL2 2694   8.168   6.936  10.168  0.1597 -0.2262  0.0664
  169loPI   C1A 2695   8.537   6.751   9.864 -0.0371 -0.0327  0.0183
  169loPI   C2A 2696   8.508   6.685   9.340  0.1919  0.0429 -0.2198
  169loPI   C3A 2697   8.356   6.658   8.921 -0.2699  0.1291  0.0108
  169loPI   C4A 2698   8.467   6.792   8.537  0.2263 -0.0048  0.3940
  169loPI   C5A 2699   8.575   6.964   8.171  0.0022 -0.0241 -0.0082
  169loPI   C6A 2700   8.785   7.287   8.002  0.0211  0.3233 -0.0019
  169loPI   C1B 2701   8.097   6.991   9.716 -0.0603  0.0001 -0.1496
  169loPI   C2B 2702   8.066   6.902   9.236  0.2794 -0.1969 -0.0884
  169loPI   C3B 2703   7.950   6.878   8.748  0.0552  0.0779 -0.0917
  169loPI   C4B 2704   7.982   6.678   8.372  0.0908  0.0307 -0.1595
  170loPI    C1 2705  15.383   4.520  11.191  0.1628  0.0143 -0.0366
  170loPI    C2 2706  15.666   4.760  11.339  0.1926 -0.0586  0.0250
  170loPI    C3 2707  15.350   4.662  11.563  0.1388 -0.0101 -0.0294
  170loPI   PO4 2708  15.599   4.409  10.975  0.5965 -0.0582  0.0982
  170loPI   GL1 2709  15.736   4.369  10.568  0.0504 -0.3109 -0.1479
  170loPI   GL2 2710  15.888   4.629  10.519  0.1481  0.1367 -0.1166
  170loPI   C1A 2711  15.864   4.142  10.274  0.1685  0.3056  0.1907
  170loPI   C2A 2712  15.810   4.096   9.843  0.1465  0.3386 -0.1079
  170loPI   C3A 2713  15.930   4.104   9.423  0.0241  0.0208  0.0321
  170loPI   C4A 2714  15.815   4.037   9.011  0.4113  0.2139 -0.0898
  170loPI   C5A 2715  15.583   4.066   8.646 -0.0619 -0.0056 -0.3529
  170loPI   C6A 2716  15.191   4.161   8.509 -0.2809 -0.1122 -0.3118
  170loPI   C1B 2717  15.847   4.623  10.076  0.0238  0.3657 -0.2314
  170loPI   C2B 2718  15.849   4.633   9.606 -0.3909 -0.0273  0.3368
  170loPI   C3B 2719  15.797   4.572   9.187  0.1713 -0.1234 -0.0393
  170loPI   C4B 2720  15.906   4.599   8.812  0.1114 -0.1195  0.0470
  171loPI    C1 2721  10.380  16.783  10.692  0.0818 -0.1446 -0.1498
  171loPI    C2 2722  10.763  16.870  10.769  0.0359 -0.0350 -0.0418
  171loPI    C3 2723  10.539  16.692  11.048  0.0233 -0.1511 -0.1253
  171loPI   PO4 2724  10.419  16.784  10.359  0.0231 -0.2452 -0.2151
  171loPI   GL1 2725  10.403  17.048  10.006 -0.3027  0.3145  0.0235
  171loPI   GL2 2726  10.185  17.187   9.820  0.1324  0.0010  0.4208
  171loPI   C1A 2727  10.771  17.213   9.718  0.0090 -0.0715 -0.2362
  171loPI   C2A 2728  10.976  16.891   9.420 -0.1903 -0.0295  0.1020
  171loPI   C3A 2729  10.989  16.823   8.940  0.2554  0.0528 -0.1944
  171loPI   C4A 2730  10.776  17.003   8.550 -0.1689 -0.1482  0.4654
  171loPI   C5A 2731  10.565  16.867   8.142  0.1882 -0.1370 -0.0512
  171loPI   C6A 2732  10.531  17.075   7.810  0.2770 -0.2291 -0.3959
  171loPI   C1B 2733   9.802  17.222   9.442  0.1533 -0.2891 -0.0211
  171loPI   C2B 2734   9.786  17.211   9.047 -0.1184  0.3295  0.0302
  171loPI   C3B 2735   9.867  17.027   8.757 -0.2158  0.1637 -0.1307
  171loPI   C4B 2736  10.026  16.929   8.362  0.0521  0.1714 -0.0566
  172loPI    C1 2737  13.910   3.954  11.303 -0.0044 -0.1876 -0.0190
  172loPI    C2 2738  14.229   3.824  11.506 -0.0459 -0.0249  0.1536
  172loPI    C3 2739  14.074   4.184  11.586 -0.0999  0.0168 -0.1278
  172loPI   PO4 2740  13.945   3.902  11.104 -0.0882 -0.2943  0.1855
  172loPI   GL1 2741  13.630   4.086  10.817  0.1027 -0.1407 -0.0358
  172loPI   GL2 2742  13.548   4.471  10.771  0.2002  0.0810  0.1920
  172loPI   C1A 2743  13.734   4.133  10.432 -0.0581  0.1194  0.2172
  172loPI   C2A 2744  13.624   4.077  10.059  0.0884 -0.2639 -0.2405
  172loPI   C3A 2745  13.670   4.129   9.620 -0.1914  0.1734  0.0369
  172loPI   C4A 2746  13.536   4.143   9.280 -0.1603 -0.1919 -0.1032
  172loPI   C5A 2747  13.633   4.154   8.844  0.1110  0.3744  0.1956
  172loPI   C6A 2748  13.492   3.876   8.554  0.1623 -0.1536  0.1888
  172loPI   C1B 2749  13.584   4.603  10.363  0.2756 -0.1232  0.0381
  172loPI   C2B 2750  13.603   4.655   9.914  0.0029  0.0153  0.1157
  172loPI   C3B 2751  13.575   4.656   9.430  0.1886 -0.0111 -0.1609
  172loPI   C4B 2752  13.518   4.596   9.044 -0.0193 -0.0737 -0.1543
  173loPI    C1 2753   5.379  17.183  11.102  0.0827  0.2261  0.1418
  173loPI    C2 2754   5.390  17.370  11.455 -0.0197  0.2573  0.1285
  173loPI    C3 2755   5.422  16.972  11.440 -0.1831  0.2412  0.1869
  173loPI   PO4 2756   5.504  17.243  10.963  0.0434 -0.1239 -0.1969
  173loPI   GL1 2757   5.602  17.332  10.565  0.0296  0.1547 -0.0446
  173loPI   GL2 2758   5.357  17.176  10.472  0.0444 -0.2539  0.0346
  173loPI   C1A 2759   5.799  17.279  10.270 -0.0811  0.2591 -0.0005
  173loPI   C2A 2760   5.802  17.478   9.819  0.0807 -0.1778  0.0495
  173loPI   C3A 2761   5.772  17.446   9.435 -0.0103 -0.3302  0.0661
  173loPI   C4A 2762   5.732  17.384   8.976  0.3018 -0.1178 -0.0657
  173loPI   C5A 2763   5.740  17.358   8.466 -0.0439  0.4245 -0.0574
  173loPI   C6A 2764   5.781  17.601   8.063 -0.0308 -0.0718  0.2489
  173loPI   C1B 2765   5.327  17.141  10.089 -0.1065  0.2562  0.0845
  173loPI   C2B 2766   5.400  17.148   9.654  0.0300  0.0296  0.1521
  173loPI   C3B 2767   5.352  17.145   9.157 -0.1505 -0.0732  0.3478
  173loPI   C4B 2768   5.387  17.108   8.743 -0.1637 -0.0354 -0.2528
  174loPI    C1 2769   7.084   4.886  11.333 -0.1479 -0.1701 -0.0769
  174loPI    C2 2770   7.221   4.593  11.097  0.1734 -0.1100  0.0311
  174loPI    C3 2771   7.110   4.512  11.473 -0.1392 -0.1672 -0.0708
  174loPI   PO4 2772   7.034   5.077  11.153 -0.0236  0.0335  0.1070
  174loPI   GL1 2773   6.966   5.139  10.654  0.1631 -0.1547  0.2645
  174loPI   GL2 2774   7.008   5.516  10.527 -0.0389 -0.1326  0.0170
  174loPI   C1A 2775   7.001   5.095  10.161  0.0112  0.2168 -0.0652
  174loPI   C2A 2776   6.815   5.054   9.746  0.2431  0.2679  0.2199
  174loPI   C3A 2777   6.916   5.004   9.385  0.4323 -0.1454 -0.0077
  174loPI   C4A 2778   6.881   5.023   8.981  0.1343 -0.0429 -0.2490
  174loPI   C5A 2779   6.846   4.731   8.683 -0.1385 -0.2858  0.1908
  174loPI   C6A 2780   6.688   4.367   8.356  0.0912  0.1778 -0.1634
  174loPI   C1B 2781   6.904   5.567  10.094  0.1670 -0.1116 -0.0051
  174loPI   C2B 2782   6.864   5.544   9.695 -0.3319  0.2624 -0.2661
  174loPI   C3B 2783   6.785   5.491   9.250  0.2860  0.1789  0.0708
  174loPI   C4B 2784   6.803   5.461   8.810 -0.0683  0.0674  0.0073
  175loPI    C1 2785   7.295   2.502  11.159 -0.0874  0.0989 -0.0728
  175loPI    C2 2786   7.656   2.615  11.291 -0.0722  0.0249 -0.0500
  175loPI    C3 2787   7.388   2.464  11.547 -0.0288 -0.1558 -0.1096
  175loPI   PO4 2788   7.298   2.526  10.897  0.1419 -0.0110  0.4572
  175loPI   GL1 2789   7.255   2.793  10.526  0.0063 -0.2618 -0.2783
  175loPI   GL2 2790   7.544   2.674  10.399 -0.1517 -0.3722 -0.1074
  175loPI   C1A 2791   7.124   2.935  10.107 -0.2107 -0.1703 -0.0433
  175loPI   C2A 2792   7.076   3.002   9.662 -0.1562  0.3483  0.1543
  175loPI   C3A 2793   7.105   2.928   9.222  0.1600  0.1470 -0.1921
  175loPI   C4A 2794   7.029   2.940   8.834 -0.0281 -0.0792 -0.2423
  175loPI   C5A 2795   7.028   2.673   8.515 -0.1511 -0.1009  0.1882
  175loPI   C6A 2796   7.246   2.333   8.396  0.0840 -0.0027  0.0113
  175loPI   C1B 2797   7.642   2.749   9.968  0.0797  0.1054 -0.2663
  175loPI   C2B 2798   7.557   2.654   9.538 -0.4479 -0.2375 -0.1969
  175loPI   C3B 2799   7.520   2.694   9.132 -0.1812 -0.0361  0.2255
  175loPI   C4B 2800   7.583   2.596   8.661  0.0264 -0.4348  0.0079
  176loPI    C1 2801   4.897   7.077  11.289 -0.0211  0.2242 -0.0960
  176loPI    C2 2802   5.152   7.385  11.285  0.2435  0.0134  0.1118
  176loPI    C3 2803   5.254   7.044  11.468 -0.0284 -0.2139 -0.1507
  176loPI   PO4 2804   4.815   7.015  11.003 -0.1365  0.0263 -0.2881
  176loPI   GL1 2805   4.873   6.724  10.720 -0.0083  0.0890  0.2230
  176loPI   GL2 2806   5.163   6.638  10.592  0.0650 -0.0249  0.2674
  176loPI   C1A 2807   4.846   6.874  10.271 -0.0099 -0.2778  0.0381
  176loPI   C2A 2808   4.867   6.857   9.864  0.2670 -0.1517  0.0266
  176loPI   C3A 2809   4.812   6.810   9.423  0.2995 -0.1406  0.1706
  176loPI   C4A 2810   4.850   6.905   9.059 -0.0943 -0.0117 -0.0303
  176loPI   C5A 2811   4.921   6.695   8.692 -0.1782  0.3567 -0.1620
  176loPI   C6A 2812   5.278   6.523   8.474 -0.0045  0.0429 -0.0186
  176loPI   C1B 2813   5.300   6.658  10.168 -0.0637 -0.1368  0.0614
  176loPI   C2B 2814   5.317   6.733   9.780  0.3458 -0.1353 -0.1461
  176loPI   C3B 2815   5.317   6.739   9.392 -0.0707  0.1082 -0.0168
  176loPI   C4B 2816   5.393   6.715   8.952 -0.1151 -0.1335  0.0639
  177loPI    C1 2817   0.037   7.331  10.883 -0.0230 -0.2111 -0.1156
  177loPI    C2 2818  -0.190   7.493  11.170 -0.0511 -0.3139 -0.0796
  177loPI    C3 2819  -0.315   7.498  10.790  0.0108 -0.1300 -0.0984
  177loPI   PO4 2820   0.124   7.058  10.899 -0.1420  0.1248 -0.0325
  177loPI   GL1 2821   0.371   6.994  10.513  0.2138 -0.0782 -0.0729
  177loPI   GL2 2822   0.343   7.305  10.444  0.0042 -0.4670  0.0792
  177loPI   C1A 2823   0.471   6.929  10.125  0.0235  0.0607 -0.2145
  177loPI   C2A 2824   0.474   7.030   9.751 -0.0029  0.0641  0.1395
  177loPI   C3A 2825   0.367   6.940   9.244  0.2784  0.2766 -0.3039
  177loPI   C4A 2826   0.416   6.980   8.762  0.1338 -0.0914  0.0197
  177loPI   C5A 2827   0.164   7.108   8.468  0.2223 -0.2105  0.0984
  177loPI   C6A 2828   0.136   6.919   8.088 -0.0434 -0.1847 -0.1499
  177loPI   C1B 2829   0.403   7.540  10.049 -0.2036 -0.0686  0.1491
  177loPI   C2B 2830   0.480   7.504   9.589  0.1457  0.0770  0.4054
  177loPI   C3B 2831   0.296   7.458   9.217 -0.0473 -0.3351 -0.0586
  177loPI   C4B 2832   0.366   7.477   8.825  0.0448 -0.1672 -0.0412
  178loPI    C1 2833  11.125  12.223  10.788 -0.1287 -0.0141 -0.0966
  178loPI    C2 2834  11.003  12.460  11.087  0.0788  0.0140 -0.0327
  178loPI    C3 2835  10.953  12.064  11.112 -0.2178  0.0444 -0.1151
  178loPI   PO4 2836  11.361  12.262  10.754 -0.0794  0.0607 -0.0330
  178loPI   GL1 2837  11.751  12.498  10.614  0.0469  0.3430  0.1998
  178loPI   GL2 2838  11.507  12.578  10.373  0.1786 -0.0942 -0.1481
  178loPI   C1A 2839  11.971  12.548  10.141 -0.1174 -0.0064  0.1255
  178loPI   C2A 2840  12.138  12.651   9.776  0.1803  0.0555  0.1087
  178loPI   C3A 2841  12.164  12.554   9.420  0.0615 -0.0596  0.0361
  178loPI   C4A 2842  12.259  12.667   9.023 -0.0966 -0.1331  0.0581
  178loPI   C5A 2843  12.374  12.648   8.596 -0.1439 -0.1238 -0.1316
  178loPI   C6A 2844  12.329  12.662   8.146 -0.1902 -0.1702  0.3131
  178loPI   C1B 2845  11.326  12.485  10.003 -0.1975  0.4168  0.0239
  178loPI   C2B 2846  11.256  12.576   9.602 -0.1008  0.0150 -0.1753
  178loPI   C3B 2847  11.279  12.473   9.157 -0.1377 -0.0900 -0.1917
  178loPI   C4B 2848  11.388  12.575   8.851 -0.2174 -0.2017 -0.0489
  179loPI    C1 2849  17.253   6.635  11.105  0.0703  0.0214  0.0466
  179loPI    C2 2850  17.012   6.879  11.312 -0.1449 -0.0813 -0.0787
  179loPI    C3 2851  17.332   6.716  11.488 -0.2345 -0.0398  0.1249
  179loPI   PO4 2852  17.149   6.680  10.870 -0.0623  0.1540  0.3638
  179loPI   GL1 2853  17.043   6.573  10.497  0.1079  0.4371  0.1651
  179loPI   GL2 2854  17.307   6.448  10.475 -0.1472  0.0557 -0.1561
  179loPI   C1A 2855  16.902   6.636  10.060  0.1261 -0.2536 -0.2089
  179loPI   C2A 2856  16.985   6.554   9.610  0.1360 -0.0332 -0.2119
  179loPI   C3A 2857  16.966   6.593   9.188  0.0501 -0.0770  0.0206
  179loPI   C4A 2858  16.933   6.513   8.785 -0.2585  0.0188  0.0715
  179loPI   C5A 2859  16.836   6.553   8.356 -0.2951 -0.4204  0.0671
  179loPI   C6A 2860  16.995   6.497   7.901  0.0695  0.1716  0.1615
  179loPI   C1B 2861  17.294   6.436  10.055 -0.2768  0.0349 -0.3409
  179loPI   C2B 2862  17.506   6.338   9.838  0.0382 -0.0579 -0.0041
  179loPI   C3B 2863  17.390   6.378   9.387 -0.3271  0.2113  0.2765
  179loPI   C4B 2864  17.360   6.341   8.994 -0.3601  0.3385 -0.1832
  180loPI    C1 2865  13.802  13.965  11.124  0.0411  0.0566 -0.3438
  180loPI    C2 2866  13.766  13.568  11.094  0.0949  0.0320 -0.1071
  180loPI    C3 2867  13.498  13.778  11.303  0.1563  0.1011 -0.0973
  180loPI   PO4 2868  13.777  13.959  10.823  0.1313 -0.0485  0.3339
  180loPI   GL1 2869  13.824  13.875  10.444  0.2027 -0.0940 -0.2023
  180loPI   GL2 2870  13.650  13.614  10.460 -0.0664  0.2210  0.0919
  180loPI   C1A 2871  13.843  13.729   9.974  0.0222  0.0061  0.1866
  180loPI   C2A 2872  13.849  13.810   9.571 -0.2259 -0.0309  0.0146
  180loPI   C3A 2873  14.002  13.798   9.161  0.0321  0.1847  0.0893
  180loPI   C4A 2874  14.083  13.867   8.777 -0.2796 -0.4488  0.0437
  180loPI   C5A 2875  13.898  13.776   8.456  0.1043  0.2699 -0.2427
  180loPI   C6A 2876  13.795  13.994   8.144 -0.0374  0.0199  0.2085
  180loPI   C1B 2877  13.828  13.273  10.225 -0.0240  0.1186 -0.0612
  180loPI   C2B 2878  14.001  13.309   9.737 -0.0271 -0.1798 -0.0545
  180loPI   C3B 2879  13.981  13.267   9.269 -0.2987 -0.0982  0.0669
  180loPI   C4B 2880  14.089  13.369   8.866 -0.0515 -0.2951  0.3743
  181loPI    C1 2881   4.351   8.786  11.272 -0.0655 -0.1991  0.2460
  181loPI    C2 2882   4.734   8.891  11.321 -0.0687 -0.1504  0.1677
  181loPI    C3 2883   4.450   9.064  11.542 -0.0884  0.1072 -0.0545
  181loPI   PO4 2884   4.368   8.721  11.002 -0.5274 -0.0010 -0.0157
  181loPI   GL1 2885   4.129   8.898  10.649  0.1043 -0.0329 -0.1004
  181loPI   GL2 2886   4.340   8.615  10.485  0.2436  0.0772 -0.2115
  181loPI   C1A 2887   3.869   8.912  10.341 -0.1634 -0.0325  0.1016
  181loPI   C2A 2888   3.864   8.925   9.834  0.0404  0.1882  0.2179
  181loPI   C3A 2889   3.930   8.835   9.439  0.0417 -0.1837  0.0213
  181loPI   C4A 2890   3.880   8.812   9.033  0.3155  0.2661  0.1890
  181loPI   C5A 2891   3.914   8.831   8.632 -0.2416  0.0413 -0.2307
  181loPI   C6A 2892   4.334   9.024   8.393  0.0452  0.1355  0.0419
  181loPI   C1B 2893   4.297   8.693  10.009  0.0058 -0.0968 -0.1138
  181loPI   C2B 2894   4.359   8.620   9.668  0.0020 -0.0145 -0.1840
  181loPI   C3B 2895   4.401   8.637   9.272  0.0988 -0.1468  0.1161
  181loPI   C4B 2896   4.357   8.627   8.851  0.1193 -0.2740  0.0977
  182loPI    C1 2897   5.782  14.269  10.912 -0.1651  0.1546  0.0374
  182loPI    C2 2898   6.039  14.462  11.150 -0.2549  0.1098  0.1717
  182loPI    C3 2899   5.877  14.117  11.269 -0.0785 -0.0620 -0.0761
  182loPI   PO4 2900   5.869  14.328  10.684  0.4446 -0.0214 -0.4275
  182loPI   GL1 2901   5.972  14.295  10.266 -0.0599 -0.1245  0.1824
  182loPI   GL2 2902   5.743  14.487  10.208 -0.1829  0.0670  0.0912
  182loPI   C1A 2903   5.911  14.053   9.860 -0.1493 -0.2485 -0.2698
  182loPI   C2A 2904   5.707  14.081   9.465 -0.0015  0.0769 -0.3944
  182loPI   C3A 2905   5.745  14.075   8.991  0.4858  0.0193 -0.3638
  182loPI   C4A 2906   5.667  14.037   8.561  0.0535 -0.1473 -0.2381
  182loPI   C5A 2907   5.878  13.816   8.143 -0.3473  0.0075 -0.0520
  182loPI   C6A 2908   6.155  13.568   8.047 -0.1237 -0.0484 -0.0914
  182loPI   C1B 2909   5.806  14.525   9.816 -0.0937 -0.2932 -0.1037
  182loPI   C2B 2910   5.753  14.661   9.350 -0.0612 -0.0793 -0.0841
  182loPI   C3B 2911   5.601  14.572   8.910 -0.1784  0.0446 -0.1948
  182loPI   C4B 2912   5.775  14.554   8.420  0.3553  0.1114 -0.1194
  183loPI    C1 2913   3.736   5.027  11.004 -0.1483  0.0815 -0.2039
  183loPI    C2 2914   3.881   5.367  10.849  0.0184  0.0637 -0.0900
  183loPI    C3 2915   3.897   5.304  11.244 -0.0910 -0.0396 -0.1014
  183loPI   PO4 2916   3.457   4.985  10.942  0.1204  0.0331  0.0454
  183loPI   GL1 2917   3.374   5.182  10.610  0.0812  0.3094 -0.1239
  183loPI   GL2 2918   3.300   5.064  10.444  0.1533  0.1422 -0.1666
  183loPI   C1A 2919   3.697   5.372  10.336  0.0693 -0.2374 -0.1317
  183loPI   C2A 2920   3.709   5.453   9.877  0.0816 -0.0731  0.0523
  183loPI   C3A 2921   3.704   5.521   9.406  0.1476 -0.0374 -0.0443
  183loPI   C4A 2922   3.689   5.382   8.977  0.1154 -0.3300  0.1021
  183loPI   C5A 2923   3.754   5.498   8.520  0.3118 -0.1765 -0.2155
  183loPI   C6A 2924   3.470   5.523   8.241  0.0614  0.3966 -0.1183
  183loPI   C1B 2925   3.395   5.124  10.015 -0.0021  0.1906  0.1700
  183loPI   C2B 2926   3.317   5.177   9.584 -0.0488  0.0326 -0.1416
  183loPI   C3B 2927   3.227   5.220   9.166 -0.0375 -0.2061  0.3803
  183loPI   C4B 2928   3.257   5.198   8.668 -0.0073  0.1951  0.0667
  184loPI    C1 2929  16.309  11.070  11.370 -0.0465  0.0549 -0.0827
  184loPI    C2 2930  15.967  10.895  11.485 -0.0038 -0.0162 -0.0628
  184loPI    C3 2931  16.165  11.133  11.738  0.0364 -0.0904 -0.0245
  184loPI   PO4 2932  16.227  11.119  11.097 -0.1008 -0.3431 -0.0842
  184loPI   GL1 2933  16.045  11.072  10.700 -0.1443  0.1406 -0.0491
  184loPI   GL2 2934  16.040  11.352  10.574 -0.3339 -0.0345  0.1744
  184loPI   C1A 2935  16.130  10.894  10.325  0.0264 -0.1693  0.3073
  184loPI   C2A 2936  16.093  10.929   9.894 -0.1583  0.0161 -0.0053
  184loPI   C3A 2937  16.138  10.920   9.501 -0.2675 -0.1801  0.2523
  184loPI   C4A 2938  16.125  10.927   8.991  0.0034  0.1318 -0.0930
  184loPI   C5A 2939  15.964  10.922   8.516 -0.0656 -0.3106 -0.1340
  184loPI   C6A 2940  15.669  10.644   8.240  0.0776 -0.2634 -0.0130
  184loPI   C1B 2941  16.035  11.388  10.110 -0.0865  0.0742  0.2241
  184loPI   C2B 2942  15.968  11.432   9.652  0.0485  0.1199 -0.0014
  184loPI   C3B 2943  16.009  11.436   9.153  0.0731 -0.0390  0.2570
  184loPI   C4B 2944  16.112  11.367   8.718 -0.1729 -0.0167 -0.2417
  185loPI    C1 2945  12.064   3.973  11.133  0.0943 -0.0855  0.0331
  185loPI    C2 2946  11.857   4.254  11.330  0.0106  0.0383 -0.2264
  185loPI    C3 2947  12.256   4.278  11.308  0.0042  0.1337 -0.2425
  185loPI   PO4 2948  11.935   3.933  10.936 -0.0297 -0.1683 -0.0359
  185loPI   GL1 2949  11.804   4.132  10.545  0.0857  0.0319 -0.2058
  185loPI   GL2 2950  11.734   4.399  10.493 -0.1916  0.1027  0.0651
  185loPI   C1A 2951  11.927   3.954  10.158  0.1490  0.1019  0.1140
  185loPI   C2A 2952  11.943   3.935   9.771 -0.0352  0.2351  0.1119
  185loPI   C3A 2953  11.940   3.926   9.340  0.5136  0.2275  0.0291
  185loPI   C4A 2954  11.945   3.799   8.938 -0.0506 -0.1324 -0.0977
  185loPI   C5A 2955  11.811   3.741   8.521  0.2168 -0.0779 -0.0896
  185loPI   C6A 2956  11.443   3.760   8.283 -0.0092  0.1219  0.2823
  185loPI   C1B 2957  11.868   4.433  10.067  0.0905  0.2461  0.0629
  185loPI   C2B 2958  11.811   4.374   9.596  0.0763  0.1001  0.2568
  185loPI   C3B 2959  11.765   4.379   9.099 -0.1368  0.1499 -0.0331
  185loPI   C4B 2960  11.808   4.505   8.721  0.2193 -0.2147 -0.3548
  186loPI    C1 2961   3.631   2.160  11.125 -0.0887  0.1016  0.0858
  186loPI    C2 2962   3.303   2.200  11.349 -0.0818 -0.1350  0.1407
  186loPI    C3 2963   3.637   2.050  11.509  0.0405  0.0604  0.0724
  186loPI   PO4 2964   3.496   2.294  10.926  0.1711 -0.1261 -0.0768
  186loPI   GL1 2965   3.578   2.427  10.505  0.5364 -0.3296 -0.4117
  186loPI   GL2 2966   3.421   2.685  10.613  0.1537  0.1068 -0.0678
  186loPI   C1A 2967   3.555   2.561  10.060  0.0103  0.0159  0.2160
  186loPI   C2A 2968   3.593   2.543   9.602 -0.0906 -0.0872 -0.1129
  186loPI   C3A 2969   3.579   2.602   9.115  0.2125  0.0481 -0.4457
  186loPI   C4A 2970   3.408   2.507   8.714 -0.1870  0.1009  0.1467
  186loPI   C5A 2971   3.197   2.377   8.487  0.1895 -0.2641 -0.2770
  186loPI   C6A 2972   3.105   2.533   8.137  0.1520 -0.0867  0.2147
  186loPI   C1B 2973   3.470   2.964  10.308  0.3782 -0.0315  0.2733
  186loPI   C2B 2974   3.475   3.062   9.870  0.2218  0.0728 -0.1289
  186loPI   C3B 2975   3.537   3.057   9.429 -0.0973  0.1600  0.0026
  186loPI   C4B 2976   3.509   3.144   9.045  0.0040 -0.0731  0.1921
  187loPI    C1 2977  16.447  14.862  11.425  0.0836  0.0419 -0.3005
  187loPI    C2 2978  16.225  15.026  11.715  0.0363  0.0195 -0.3240
  187loPI    C3 2979  16.624  15.041  11.736  0.0332 -0.0032 -0.2455
  187loPI   PO4 2980  16.380  14.903  11.157  0.0750  0.0897 -0.2184
  187loPI   GL1 2981  16.175  15.204  10.857 -0.1372  0.0872 -0.0476
  187loPI   GL2 2982  16.575  15.111  10.701 -0.2014  0.1558  0.0609
  187loPI   C1A 2983  16.168  15.454  10.532  0.0598  0.2655  0.0863
  187loPI   C2A 2984  16.096  15.370  10.121  0.2648  0.0562  0.1898
  187loPI   C3A 2985  16.105  15.314   9.663 -0.2634 -0.2482 -0.0452
  187loPI   C4A 2986  16.067  15.390   9.163  0.0440 -0.0435  0.0809
  187loPI   C5A 2987  16.169  15.399   8.781  0.0101 -0.0048 -0.0977
  187loPI   C6A 2988  16.078  15.560   8.347 -0.2605 -0.1080 -0.0285
  187loPI   C1B 2989  16.596  15.265  10.310  0.1186 -0.1146 -0.1002
  187loPI   C2B 2990  16.501  15.100   9.886 -0.2065  0.0594  0.0574
  187loPI   C3B 2991  16.557  15.083   9.489 -0.1272  0.3512  0.0771
  187loPI   C4B 2992  16.481  15.108   9.024 -0.0354 -0.1870 -0.2859
  188loPI    C1 2993   6.966   7.161  10.883 -0.1164  0.1409  0.1192
  188loPI    C2 2994   7.233   7.338  11.123 -0.0663  0.0878  0.1028
  188loPI    C3 2995   6.977   7.069  11.272 -0.1215  0.1504  0.1216
  188loPI   PO4 2996   6.878   7.535  10.753  0.0998  0.1612 -0.4741
  188loPI   GL1 2997   6.833   7.650  10.381  0.0836 -0.0652 -0.1221
  188loPI   GL2 2998   7.177   7.828  10.394 -0.0295  0.0445  0.3983
  188loPI   C1A 2999   6.692   7.687   9.965  0.0201 -0.0226  0.1760
  188loPI   C2A 3000   6.625   7.613   9.588 -0.1859  0.1071 -0.1960
  188loPI   C3A 3001   6.647   7.609   9.162  0.2840 -0.0335  0.5251
  188loPI   C4A 3002   6.684   7.477   8.800  0.0782 -0.0216  0.0168
  188loPI   C5A 3003   6.402   7.609   8.524 -0.0829 -0.1366  0.1169
  188loPI   C6A 3004   6.092   7.614   8.200  0.3044 -0.2460 -0.1672
  188loPI   C1B 3005   7.082   8.000   9.968 -0.0945  0.0816 -0.2440
  188loPI   C2B 3006   7.036   7.924   9.533 -0.1402 -0.1287 -0.0526
  188loPI   C3B 3007   7.037   7.942   9.215 -0.2178 -0.2233  0.0363
  188loPI   C4B 3008   7.214   7.758   8.942  0.0302  0.1570 -0.0191
  189loPI    C1 3009  16.904  12.179  11.305 -0.0772  0.0425 -0.0743
  189loPI    C2 3010  17.101  12.109  11.646  0.0602 -0.0511 -0.1715
  189loPI    C3 3011  16.827  11.848  11.516 -0.1156  0.0694 -0.0465
  189loPI   PO4 3012  17.127  12.250  11.165 -0.0344 -0.4691 -0.0507
  189loPI   GL1 3013  17.176  12.399  10.728  0.1378  0.1416  0.0919
  189loPI   GL2 3014  17.396  12.268  10.509 -0.0729  0.1288 -0.2757
  189loPI   C1A 3015  16.842  12.621  10.466  0.1087  0.1685 -0.1602
  189loPI   C2A 3016  16.753  12.578   9.970 -0.2644 -0.1016  0.1254
  189loPI   C3A 3017  16.797  12.587   9.514  0.3208  0.1133  0.0051
  189loPI   C4A 3018  16.833  12.548   9.146 -0.1543  0.0107  0.0679
  189loPI   C5A 3019  16.769  12.480   8.791 -0.0226 -0.1336 -0.2088
  189loPI   C6A 3020  16.718  12.442   8.368  0.0963 -0.0156 -0.2189
  189loPI   C1B 3021  17.343  12.395  10.130 -0.0480 -0.0268  0.1209
  189loPI   C2B 3022  17.196  12.402   9.722  0.0554 -0.1074 -0.1545
  189loPI   C3B 3023  17.372  12.387   9.253 -0.0139  0.1892 -0.2857
  189loPI   C4B 3024  17.266  12.304   8.951  0.0823 -0.2139  0.2484
  190loPI    C1 3025   9.930  10.980  10.678 -0.0799  0.1189 -0.1393
  190loPI    C2 3026  10.080  10.923  11.044  0.4492  0.1930 -0.3355
  190loPI    C3 3027   9.883  11.260  10.959 -0.1421 -0.0475  0.0184
  190loPI   PO4 3028  10.125  11.000  10.481  0.4117  0.0327 -0.0486
  190loPI   GL1 3029  10.446  10.666  10.223 -0.2622  0.0722  0.0921
  190loPI   GL2 3030  10.615  10.944  10.292  0.0482 -0.2779 -0.1864
  190loPI   C1A 3031  10.389  10.756   9.864 -0.1327  0.1162 -0.1911
  190loPI   C2A 3032  10.601  10.887   9.441 -0.0812  0.1612  0.1160
  190loPI   C3A 3033  10.594  10.848   8.986 -0.1182 -0.0984  0.1586
  190loPI   C4A 3034  10.613  10.913   8.574 -0.0582 -0.1939 -0.0718
  190loPI   C5A 3035  10.637  10.752   8.176  0.1652 -0.0939 -0.0226
  190loPI   C6A 3036  10.794  10.572   7.861 -0.3468  0.0568 -0.0217
  190loPI   C1B 3037  10.827  11.068   9.971  0.0800 -0.3628 -0.3830
  190loPI   C2B 3038  10.933  11.215   9.615 -0.1909  0.2638  0.2485
  190loPI   C3B 3039  10.902  11.194   9.202 -0.0159  0.0369  0.1088
  190loPI   C4B 3040  10.981  11.197   8.738  0.0826  0.0414 -0.5720
  191loPI    C1 3041  14.902  10.157  11.035 -0.1320 -0.1455 -0.0157
  191loPI    C2 3042  14.705   9.864  11.223 -0.1723 -0.1016  0.0106
  191loPI    C3 3043  14.875  10.158  11.434 -0.0527 -0.1553 -0.0099
  191loPI   PO4 3044  14.997  10.070  10.830  0.1994  0.1281 -0.1669
  191loPI   GL1 3045  15.437  10.097  10.646 -0.1389 -0.0934 -0.0487
  191loPI   GL2 3046  15.678   9.991  10.304 -0.1665  0.3648  0.0451
  191loPI   C1A 3047  15.281  10.272  10.255 -0.0656  0.0361  0.0760
  191loPI   C2A 3048  15.216  10.284   9.907 -0.0037  0.1963  0.0114
  191loPI   C3A 3049  15.187  10.257   9.406 -0.0645  0.0869  0.0345
  191loPI   C4A 3050  15.217  10.378   9.012 -0.2670  0.0342 -0.0345
  191loPI   C5A 3051  15.249  10.393   8.611 -0.1636 -0.3349  0.3485
  191loPI   C6A 3052  15.193  10.484   8.172  0.2397  0.2057  0.2325
  191loPI   C1B 3053  15.666  10.110   9.840  0.3401 -0.1400  0.2471
  191loPI   C2B 3054  15.703  10.134   9.433  0.0921  0.0373  0.0051
  191loPI   C3B 3055  15.681  10.174   9.012  0.2285  0.1995  0.3677
  191loPI   C4B 3056  15.702  10.217   8.623 -0.2139  0.3681 -0.1468
  192loPI    C1 3057   2.291  15.176  10.847 -0.0040 -0.1331  0.2920
  192loPI    C2 3058   2.035  14.928  11.029 -0.0614 -0.1811  0.1471
  192loPI    C3 3059   2.154  15.263  11.212 -0.0918 -0.2462  0.2864
  192loPI   PO4 3060   2.215  15.189  10.626 -0.2158 -0.1047  0.1035
  192loPI   GL1 3061   2.455  15.302  10.167  0.1767 -0.3587 -0.0284
  192loPI   GL2 3062   2.310  14.970  10.201  0.1891 -0.0921  0.1666
  192loPI   C1A 3063   2.286  15.538   9.787 -0.2529  0.0954 -0.0720
  192loPI   C2A 3064   2.397  15.495   9.409  0.1495 -0.2139  0.2418
  192loPI   C3A 3065   2.302  15.492   8.954  0.1046 -0.2520  0.3504
  192loPI   C4A 3066   2.365  15.748   8.592 -0.3580 -0.0045 -0.3301
  192loPI   C5A 3067   2.376  15.745   8.289  0.3716  0.0325 -0.1450
  192loPI   C6A 3068   2.590  15.754   7.862 -0.1971  0.0412 -0.0229
  192loPI   C1B 3069   2.449  15.059   9.688 -0.0673 -0.0156 -0.0268
  192loPI   C2B 3070   2.314  14.921   9.322 -0.4618  0.1198 -0.0890
  192loPI   C3B 3071   2.299  15.025   8.886 -0.0704 -0.0040  0.0963
  192loPI   C4B 3072   2.091  15.223   8.448  0.2369 -0.2217  0.0928
  193loPI    C1 3073  15.120  13.845  11.449  0.0462 -0.1453  0.0767
  193loPI    C2 3074  15.488  13.765  11.583  0.0524 -0.1133  0.0784
  193loPI    C3 3075  15.174  13.721  11.826  0.0710  0.0163  0.1268
  193loPI   PO4 3076  15.128  14.118  11.284  0.0062 -0.0504 -0.0601
  193loPI   GL1 3077  15.180  14.197  10.880  0.0203 -0.1204 -0.0640
  193loPI   GL2 3078  15.021  14.484  10.801  0.1964 -0.1002 -0.0971
  193loPI   C1A 3079  14.849  14.084  10.546 -0.2527 -0.1613 -0.3410
  193loPI   C2A 3080  14.861  14.032  10.147  0.0544  0.0561 -0.0904
  193loPI   C3A 3081  14.838  13.941   9.760 -0.1225 -0.1745 -0.1648
  193loPI   C4A 3082  14.883  13.912   9.307 -0.0888 -0.0907  0.3112
  193loPI   C5A 3083  14.944  13.925   8.824  0.0960 -0.1468 -0.0955
  193loPI   C6A 3084  14.826  13.988   8.463  0.3253 -0.1156 -0.0773
  193loPI   C1B 3085  15.328  14.271  10.426 -0.0034 -0.0540  0.0923
  193loPI   C2B 3086  15.318  14.253   9.935 -0.0162 -0.3204 -0.3450
  193loPI   C3B 3087  15.240  14.224   9.538 -0.2851  0.0531  0.1742
  193loPI   C4B 3088  15.287  14.194   9.109  0.3221  0.3806  0.1305
  194loPI    C1 3089   8.046   8.305  10.811 -0.0453 -0.1088 -0.1649
  194loPI    C2 3090   8.018   8.036  11.106 -0.1509 -0.0363 -0.1083
  194loPI    C3 3091   8.158   8.402  11.182  0.0885 -0.1061 -0.2056
  194loPI   PO4 3092   7.855   8.151  10.599 -0.1221 -0.0384  0.4026
  194loPI   GL1 3093   7.836   8.061  10.231 -0.0049 -0.1157  0.2161
  194loPI   GL2 3094   8.089   7.889  10.139  0.0536  0.0397 -0.1009
  194loPI   C1A 3095   7.578   8.254   9.981 -0.0742 -0.0545 -0.0408
  194loPI   C2A 3096   7.506   8.206   9.601  0.2629 -0.0193  0.2739
  194loPI   C3A 3097   7.534   8.134   9.207 -0.5168 -0.1261 -0.0753
  194loPI   C4A 3098   7.619   8.004   8.789  0.0098  0.1256  0.1652
  194loPI   C5A 3099   7.432   7.758   8.369 -0.0483 -0.1054 -0.1608
  194loPI   C6A 3100   7.484   7.542   7.992 -0.2123 -0.0247 -0.1541
  194loPI   C1B 3101   8.133   7.948   9.709 -0.0527 -0.3276 -0.2466
  194loPI   C2B 3102   8.041   7.893   9.258  0.0339 -0.2826 -0.3262
  194loPI   C3B 3103   8.143   7.868   8.819 -0.1539 -0.0293 -0.0851
  194loPI   C4B 3104   7.980   7.762   8.390  0.0010 -0.0832  0.0853
  195loPI    C1 3105  12.005   0.225  11.376 -0.0828  0.2324 -0.0849
  195loPI    C2 3106  12.402   0.217  11.323 -0.0825 -0.0341 -0.0560
  195loPI    C3 3107  12.240   0.048  11.647 -0.2339 -0.0884 -0.1587
  195loPI   PO4 3108  11.934   0.176  11.096  0.1457 -0.0286  0.2623
  195loPI   GL1 3109  11.896   0.154  10.615 -0.1238 -0.3238  0.1308
  195loPI   GL2 3110  12.001  -0.153  10.511 -0.1601 -0.0775  0.2010
  195loPI   C1A 3111  12.296   0.275  10.282 -0.0524 -0.0665 -0.1771
  195loPI   C2A 3112  12.370   0.215   9.916 -0.1332  0.2124  0.0817
  195loPI   C3A 3113  12.344   0.264   9.419 -0.0879 -0.3201  0.1951
  195loPI   C4A 3114  12.319   0.250   8.962  0.3509 -0.2024 -0.3833
  195loPI   C5A 3115  12.250   0.219   8.499 -0.1635 -0.1376  0.0880
  195loPI   C6A 3116  11.924   0.019   8.267 -0.0577  0.3023 -0.1525
  195loPI   C1B 3117  11.902  -0.140  10.094 -0.1198 -0.0986 -0.1074
  195loPI   C2B 3118  11.973  -0.053   9.660 -0.0289  0.0441  0.0187
  195loPI   C3B 3119  11.887   0.004   9.162 -0.2126  0.2826  0.1871
  195loPI   C4B 3120  11.921  -0.088   8.794 -0.0375  0.0078  0.0462
  196loPI    C1 3121   0.699   0.133  11.227 -0.0476 -0.0761 -0.0154
  196loPI    C2 3122   0.444   0.377  11.039  0.1414  0.0185 -0.1528
  196loPI    C3 3123   0.455   0.368  11.439 -0.1755 -0.0918 -0.1441
  196loPI   PO4 3124   0.669  -0.095  11.074 -0.0727 -0.1376 -0.1056
  196loPI   GL1 3125   0.699  -0.129  10.673 -0.0233 -0.1531  0.0511
  196loPI   GL2 3126   0.701  -0.398  10.628 -0.1912 -0.1912 -0.1093
  196loPI   C1A 3127   0.738  -0.113  10.254 -0.0057 -0.1713 -0.2890
  196loPI   C2A 3128   0.779  -0.069   9.794 -0.0263  0.1950  0.0446
  196loPI   C3A 3129   0.760  -0.121   9.396 -0.0897 -0.0249 -0.0305
  196loPI   C4A 3130   0.738  -0.185   9.036  0.0581  0.0391  0.2259
  196loPI   C5A 3131   0.593  -0.212   8.602  0.0536 -0.1972 -0.0134
  196loPI   C6A 3132   0.170  -0.174   8.534  0.1626 -0.1537 -0.0257
  196loPI   C1B 3133   0.448  -0.472  10.308  0.2202  0.1257 -0.1751
  196loPI   C2B 3134   0.393  -0.405   9.894 -0.1548  0.1906 -0.4833
  196loPI   C3B 3135   0.401  -0.500   9.467  0.0750 -0.3525 -0.1195
  196loPI   C4B 3136   0.307  -0.389   9.020 -0.0466 -0.2781 -0.0465
  197loPI    C1 3137  16.929  10.129  11.223  0.1468 -0.0187  0.1991
  197loPI    C2 3138  16.645   9.887  11.367  0.1486 -0.1083  0.0531
  197loPI    C3 3139  16.618  10.282  11.424 -0.1950 -0.0802 -0.2667
  197loPI   PO4 3140  16.984  10.097  10.989  0.1332  0.3997 -0.1734
  197loPI   GL1 3141  16.867   9.905  10.607  0.0899  0.0280  0.1479
  197loPI   GL2 3142  16.684   9.660  10.664  0.1792  0.1521 -0.0769
  197loPI   C1A 3143  17.055  10.000  10.303 -0.0556  0.0096  0.3688
  197loPI   C2A 3144  17.053   9.986   9.839  0.1059 -0.1330 -0.0569
  197loPI   C3A 3145  17.101  10.065   9.404 -0.0210  0.0380 -0.1784
  197loPI   C4A 3146  17.039  10.004   9.001  0.1560 -0.1114 -0.0101
  197loPI   C5A 3147  17.027  10.021   8.546  0.0878 -0.1824  0.0828
  197loPI   C6A 3148  17.315   9.961   8.278 -0.0919  0.4832  0.0831
  197loPI   C1B 3149  16.541   9.738  10.292  0.2918  0.0703 -0.1620
  197loPI   C2B 3150  16.613   9.720   9.905  0.0158  0.1383  0.1757
  197loPI   C3B 3151  16.718   9.685   9.505 -0.1998 -0.0155 -0.0818
  197loPI   C4B 3152  16.648   9.657   9.135 -0.3224  0.0985 -0.1611
  198loPI    C1 3153   3.112  17.467  11.001 -0.0649  0.0557  0.2062
  198loPI    C2 3154   3.460  17.475  11.197  0.0907 -0.1820 -0.0538
  198loPI    C3 3155   3.236  17.144  11.201  0.0265 -0.1400 -0.1580
  198loPI   PO4 3156   3.190  17.517  10.727  0.2466 -0.0938  0.2616
  198loPI   GL1 3157   3.354  17.432  10.354 -0.2009 -0.2533  0.0164
  198loPI   GL2 3158   3.564  17.221  10.256  0.0562 -0.2312 -0.1680
  198loPI   C1A 3159   3.393  17.537   9.816 -0.1332  0.1656  0.0727
  198loPI   C2A 3160   3.419  17.501   9.404  0.0918  0.1066  0.1323
  198loPI   C3A 3161   3.475  17.437   8.949 -0.0552 -0.2949  0.0258
  198loPI   C4A 3162   3.448  17.512   8.443  0.0305  0.1421 -0.0709
  198loPI   C5A 3163   3.512  17.235   8.048 -0.1808  0.4163  0.0344
  198loPI   C6A 3164   3.878  16.974   7.825 -0.4805  0.0448 -0.0782
  198loPI   C1B 3165   3.496  17.051   9.897  0.1806 -0.1349 -0.0068
  198loPI   C2B 3166   3.589  16.999   9.455  0.0946 -0.2463  0.1044
  198loPI   C3B 3167   3.607  16.980   9.001 -0.1092 -0.3935  0.2015
  198loPI   C4B 3168   3.555  17.042   8.584  0.0712  0.0504 -0.3215
  199loPI    C1 3169   7.741   8.622  11.351  0.1780  0.0337 -0.0888
  199loPI    C2 3170   7.441   8.486  11.577  0.1712 -0.0465 -0.1456
  199loPI    C3 3171   7.753   8.670  11.748  0.1304 -0.0391 -0.0785
  199loPI   PO4 3172   7.664   8.764  11.126 -0.1357  0.1414 -0.1620
  199loPI   GL1 3173   7.735   8.641  10.632  0.0924  0.1281  0.2837
  199loPI   GL2 3174   7.775   9.040  10.664 -0.0856  0.0396  0.1315
  199loPI   C1A 3175   7.453   8.752  10.349 -0.1023 -0.1117 -0.2620
  199loPI   C2A 3176   7.473   8.794   9.950  0.2058  0.4502  0.3554
  199loPI   C3A 3177   7.502   8.725   9.509  0.0732 -0.1973  0.2230
  199loPI   C4A 3178   7.517   8.683   9.109 -0.2760 -0.1091  0.0196
  199loPI   C5A 3179   7.614   8.543   8.708 -0.2142  0.4095 -0.0969
  199loPI   C6A 3180   7.668   8.855   8.378  0.0708  0.2102 -0.2779
  199loPI   C1B 3181   7.896   8.981  10.204 -0.0100  0.0387 -0.3818
  199loPI   C2B 3182   7.962   9.111   9.769 -0.0331  0.1423 -0.2415
  199loPI   C3B 3183   8.021   8.904   9.358 -0.1252  0.0069 -0.1766
  199loPI   C4B 3184   8.006   8.834   8.921 -0.1793 -0.0480  0.1031
  200loPI    C1 3185  13.140   3.206  11.166  0.0356  0.0082  0.0624
  200loPI    C2 3186  12.845   2.946  11.243 -0.1475  0.2614  0.2326
  200loPI    C3 3187  13.101   3.050  11.532  0.0327  0.1405  0.1188
  200loPI   PO4 3188  13.262   3.157  10.898  0.0029  0.0348  0.0599
  200loPI   GL1 3189  13.497   3.305  10.617  0.0013  0.1535  0.1068
  200loPI   GL2 3190  13.189   3.287  10.394 -0.0388 -0.0566 -0.1179
  200loPI   C1A 3191  13.616   3.127  10.202 -0.2807  0.1919 -0.0054
  200loPI   C2A 3192  13.774   3.139   9.844  0.2304 -0.2223  0.2933
  200loPI   C3A 3193  13.770   3.143   9.392  0.2358  0.2034  0.1592
  200loPI   C4A 3194  13.723   3.091   8.999  0.2879 -0.1564 -0.1918
  200loPI   C5A 3195  13.798   2.869   8.569 -0.2690  0.0527 -0.2529
  200loPI   C6A 3196  13.802   2.763   8.140  0.1832 -0.0102 -0.2546
  200loPI   C1B 3197  13.282   3.222   9.829 -0.1996 -0.0586 -0.1682
  200loPI   C2B 3198  13.314   3.271   9.407 -0.0207  0.0309  0.3662
  200loPI   C3B 3199  13.283   3.207   8.907  0.0890  0.1091 -0.0446
  200loPI   C4B 3200  13.610   3.329   8.560 -0.0893  0.0092 -0.4013
  201loPI    C1 3201  17.298  16.305  11.421  0.0298  0.2209  0.0825
  201loPI    C2 3202  17.549  16.303  11.732  0.0303  0.0125  0.0821
  201loPI    C3 3203  17.174  16.435  11.779  0.0389  0.0082  0.1642
  201loPI   PO4 3204  17.468  16.180  11.242 -0.0406  0.0294  0.3736
  201loPI   GL1 3205  17.487  16.211  10.853  0.2294  0.1331 -0.0729
  201loPI   GL2 3206  17.728  16.196  10.765 -0.0687  0.0980 -0.0260
  201loPI   C1A 3207  17.438  16.348  10.421  0.0737  0.4420  0.1390
  201loPI   C2A 3208  17.368  16.228   9.929  0.0733 -0.3131  0.2246
  201loPI   C3A 3209  17.399  16.296   9.434  0.4607 -0.0909  0.0676
  201loPI   C4A 3210  17.335  16.284   9.025  0.0175  0.4243 -0.2193
  201loPI   C5A 3211  17.342  16.127   8.631 -0.0341  0.2658  0.0721
  201loPI   C6A 3212  17.152  16.314   8.259  0.1729 -0.0690  0.1376
  201loPI   C1B 3213  17.803  16.074  10.269  0.3133  0.4029 -0.0682
  201loPI   C2B 3214  17.795  16.066   9.771  0.0651  0.2215 -0.0822
  201loPI   C3B 3215  17.841  16.066   9.297 -0.0988 -0.1839 -0.0832
  201loPI   C4B 3216  17.787  16.075   8.866  0.0322 -0.1799  0.0513
  202loPI    C1 3217  11.579  15.627  11.047 -0.0747  0.0625 -0.0852
  202loPI    C2 3218  11.568  16.025  11.088 -0.1272  0.0588 -0.0619
  202loPI    C3 3219  11.627  15.792  11.408  0.0394  0.0533 -0.0955
  202loPI   PO4 3220  11.727  15.533  10.796 -0.1644  0.0974 -0.0220
  202loPI   GL1 3221  11.838  15.333  10.388 -0.4627  0.2892  0.0259
  202loPI   GL2 3222  11.576  15.506  10.288 -0.0084 -0.2408 -0.0322
  202loPI   C1A 3223  11.943  15.221   9.984  0.3861 -0.0721  0.0387
  202loPI   C2A 3224  11.942  15.157   9.663  0.0255  0.0944  0.0322
  202loPI   C3A 3225  11.974  15.159   9.200  0.2029  0.0340 -0.0695
  202loPI   C4A 3226  12.045  15.224   8.783  0.1171  0.1678  0.3621
  202loPI   C5A 3227  12.038  15.503   8.537 -0.2316  0.0304 -0.0385
  202loPI   C6A 3228  12.158  15.881   8.298 -0.3222  0.1339  0.1219
  202loPI   C1B 3229  11.489  15.425   9.905 -0.2595 -0.3216 -0.1091
  202loPI   C2B 3230  11.486  15.397   9.509  0.1007 -0.1134  0.1358
  202loPI   C3B 3231  11.597  15.453   9.086 -0.2214 -0.1507 -0.0725
  202loPI   C4B 3232  11.579  15.505   8.731 -0.0278 -0.0024  0.3782
  203loPI    C1 3233  15.321  14.668  11.198 -0.0859 -0.0407  0.1526
  203loPI    C2 3234  15.435  14.450  11.514  0.1944 -0.0155  0.0719
  203loPI    C3 3235  15.161  14.738  11.558  0.2077 -0.0338  0.2849
  203loPI   PO4 3236  15.545  14.776  11.153  0.0538  0.1319  0.0574
  203loPI   GL1 3237  15.632  15.042  10.796  0.2373  0.2640  0.0629
  203loPI   GL2 3238  15.373  14.809  10.686  0.1046 -0.0458  0.0483
  203loPI   C1A 3239  15.655  15.091  10.312 -0.1039 -0.1407  0.0162
  203loPI   C2A 3240  15.710  15.060   9.953 -0.1012 -0.2090  0.0210
  203loPI   C3A 3241  15.670  15.038   9.483 -0.0835 -0.3408 -0.0942
  203loPI   C4A 3242  15.693  15.046   9.099  0.1921  0.0340 -0.0720
  203loPI   C5A 3243  15.716  15.198   8.664 -0.0480  0.1224 -0.0776
  203loPI   C6A 3244  15.576  15.548   8.425  0.2855  0.1413  0.1215
  203loPI   C1B 3245  15.254  14.740  10.232  0.1406 -0.1939 -0.1128
  203loPI   C2B 3246  15.320  14.777   9.752  0.0084 -0.1355 -0.3132
  203loPI   C3B 3247  15.271  14.667   9.332 -0.1375  0.1678 -0.1140
  203loPI   C4B 3248  15.291  14.827   8.991 -0.0971  0.0639  0.2397
  204loPI    C1 3249   7.401   3.045  11.135 -0.1334 -0.1963 -0.0057
  204loPI    C2 3250   7.568   3.144  11.485 -0.4166 -0.0378  0.0877
  204loPI    C3 3251   7.227   2.934  11.478 -0.3368 -0.1639 -0.0968
  204loPI   PO4 3252   7.308   3.198  10.989  0.3270  0.0318 -0.1139
  204loPI   GL1 3253   7.156   3.276  10.602 -0.0404 -0.2284  0.0511
  204loPI   GL2 3254   7.111   3.427  10.399  0.3503  0.1057  0.0020
  204loPI   C1A 3255   7.524   3.190  10.241  0.1483 -0.0079  0.2416
  204loPI   C2A 3256   7.559   3.227   9.829 -0.0856 -0.0123 -0.1069
  204loPI   C3A 3257   7.514   3.242   9.430  0.1557  0.2384  0.1010
  204loPI   C4A 3258   7.466   3.199   8.944 -0.2641  0.2563  0.0707
  204loPI   C5A 3259   7.386   3.017   8.533  0.1820 -0.4483 -0.2938
  204loPI   C6A 3260   7.212   3.240   8.149 -0.0004 -0.0451  0.3416
  204loPI   C1B 3261   7.169   3.477  10.027  0.6020 -0.1472  0.1476
  204loPI   C2B 3262   7.095   3.520   9.578 -0.1536  0.2747 -0.0746
  204loPI   C3B 3263   6.976   3.430   9.200 -0.2218 -0.0907 -0.0385
  204loPI   C4B 3264   7.099   3.426   8.651 -0.4210 -0.1480 -0.1682
  205loPI    C1 3265   5.216  12.119  11.101  0.0694 -0.2932  0.0787
  205loPI    C2 3266   5.530  12.125  11.348 -0.0520 -0.4001  0.2378
  205loPI    C3 3267   5.183  12.288  11.462  0.0150 -0.0551 -0.0358
  205loPI   PO4 3268   5.273  12.104  10.910  0.0296 -0.0066 -0.0109
  205loPI   GL1 3269   5.200  12.112  10.497 -0.1201  0.1508  0.1562
  205loPI   GL2 3270   5.263  12.410  10.452  0.0255  0.1985  0.0827
  205loPI   C1A 3271   5.226  11.832  10.127 -0.0974 -0.0409 -0.0678
  205loPI   C2A 3272   5.322  11.678   9.721 -0.0849 -0.1517  0.1050
  205loPI   C3A 3273   5.346  11.625   9.267 -0.1330  0.2681  0.0755
  205loPI   C4A 3274   5.439  11.627   8.829 -0.1384  0.1325 -0.0564
  205loPI   C5A 3275   5.491  11.572   8.398  0.3600  0.0317 -0.2064
  205loPI   C6A 3276   5.629  11.834   8.039  0.0676 -0.2356 -0.2780
  205loPI   C1B 3277   5.013  12.505  10.066  0.1604 -0.1409  0.0134
  205loPI   C2B 3278   4.867  12.447   9.647 -0.1709 -0.3455 -0.1957
  205loPI   C3B 3279   4.899  12.423   9.208 -0.0977  0.1355  0.0002
  205loPI   C4B 3280   4.900  12.234   8.846 -0.0327 -0.0193  0.0980
  206loPI    C1 3281  11.882  13.979  11.120  0.1191  0.2487  0.0094
  206loPI    C2 3282  12.123  13.695  11.265 -0.2589 -0.0778  0.0147
  206loPI    C3 3283  12.094  14.047  11.453  0.1089 -0.0810  0.0866
  206loPI   PO4 3284  11.952  13.960  10.832  0.0737 -0.0370 -0.1016
  206loPI   GL1 3285  11.761  13.940  10.408  0.1743 -0.0313  0.0255
  206loPI   GL2 3286  11.554  14.053  10.248 -0.1164 -0.0887  0.1157
  206loPI   C1A 3287  12.031  14.159  10.101 -0.2654 -0.1879 -0.0934
  206loPI   C2A 3288  12.166  14.129   9.673  0.2030 -0.1258  0.1608
  206loPI   C3A 3289  12.125  14.125   9.238 -0.1642  0.1776 -0.2084
  206loPI   C4A 3290  12.208  14.209   8.759 -0.0131  0.0089 -0.1514
  206loPI   C5A 3291  12.193  14.158   8.366 -0.2201 -0.1921 -0.0352
  206loPI   C6A 3292  11.782  14.209   8.144  0.0253  0.1122 -0.1569
  206loPI   C1B 3293  11.614  13.930   9.877 -0.3121  0.0694  0.0807
  206loPI   C2B 3294  11.686  13.840   9.462 -0.0529 -0.2580  0.0883
  206loPI   C3B 3295  11.731  13.834   9.077 -0.1981  0.2268  0.2759
  206loPI   C4B 3296  11.786  13.905   8.496 -0.2478 -0.0024 -0.1673
  207loPI    C1 3297  14.471   9.959  10.825 -0.0674  0.1096  0.1537
  207loPI    C2 3298  14.579  10.191  10.518  0.1523 -0.0643  0.0969
  207loPI    C3 3299  14.307  10.321  10.780 -0.0183  0.0964 -0.1551
  207loPI   PO4 3300  14.526   9.667  10.690  0.0616 -0.0769 -0.1024
  207loPI   GL1 3301  14.580   9.435  10.345  0.0292  0.0389 -0.2702
  207loPI   GL2 3302  14.371   9.738  10.236  0.1230  0.3237 -0.1035
  207loPI   C1A 3303  14.852   9.400   9.939  0.2287  0.1298  0.1094
  207loPI   C2A 3304  14.863   9.421   9.444  0.1539 -0.0387 -0.2945
  207loPI   C3A 3305  14.788   9.436   9.078  0.0670 -0.4108  0.1182
  207loPI   C4A 3306  14.950   9.549   8.674  0.1139  0.0976  0.1458
  207loPI   C5A 3307  15.137   9.580   8.332 -0.0639 -0.0161 -0.1027
  207loPI   C6A 3308  15.351   9.973   8.244  0.0987  0.1609  0.0623
  207loPI   C1B 3309  14.388   9.581   9.742 -0.1204 -0.2359  0.0919
  207loPI   C2B 3310  14.334   9.582   9.290  0.1478 -0.0816  0.0873
  207loPI   C3B 3311  14.354   9.682   8.933  0.1689 -0.4801  0.0848
  207loPI   C4B 3312  14.504   9.806   8.482  0.1129  0.0668  0.0045
  208loPI    C1 3313   6.147  15.518  10.790  0.2457  0.0341 -0.0529
  208loPI    C2 3314   5.970  15.715  10.490  0.1784  0.1618  0.0695
  208loPI    C3 3315   5.924  15.319  10.525 -0.0192  0.1830  0.0551
  208loPI   PO4 3316   6.429  15.541  10.705  0.0898 -0.0548 -0.0551
  208loPI   GL1 3317   6.580  15.624  10.341  0.0481  0.1059  0.0861
  208loPI   GL2 3318   6.430  15.823  10.207  0.1787  0.0634 -0.0147
  208loPI   C1A 3319   6.151  15.423  10.123  0.1035  0.1005 -0.1142
  208loPI   C2A 3320   6.007  15.378   9.680 -0.0249  0.1830 -0.2539
  208loPI   C3A 3321   6.149  15.446   9.281  0.1579  0.1639  0.1699
  208loPI   C4A 3322   6.046  15.404   8.908 -0.3489 -0.0053  0.0337
  208loPI   C5A 3323   6.048  15.371   8.533  0.0412 -0.2486  0.2257
  208loPI   C6A 3324   5.788  15.084   8.369 -0.1074 -0.0968 -0.0253
  208loPI   C1B 3325   6.505  15.685   9.816  0.2110 -0.1275  0.0629
  208loPI   C2B 3326   6.503  15.765   9.455 -0.1360  0.1605 -0.0760
  208loPI   C3B 3327   6.482  15.638   8.949 -0.2261  0.1861 -0.0251
  208loPI   C4B 3328   6.383  15.719   8.545  0.1101 -0.0918 -0.0619
  209loPI    C1 3329  14.050   6.476  11.076 -0.1487  0.0632 -0.0965
  209loPI    C2 3330  13.991   6.652  11.430  0.1522  0.0143 -0.0196
  209loPI    C3 3331  13.722   6.392  11.290  0.1961 -0.2315  0.3367
  209loPI   PO4 3332  14.280   6.655  10.923  0.1068  0.2173  0.0379
  209loPI   GL1 3333  14.510   6.769  10.621 -0.1928  0.0646  0.0852
  209loPI   GL2 3334  14.209   6.799  10.478 -0.0302 -0.2594 -0.1360
  209loPI   C1A 3335  14.619   6.669  10.228 -0.3260 -0.1397  0.0655
  209loPI   C2A 3336  14.655   6.586   9.896  0.0125  0.1114 -0.0939
  209loPI   C3A 3337  14.740   6.512   9.480  0.0716  0.1855  0.1370
  209loPI   C4A 3338  14.752   6.578   9.075 -0.0788  0.1068 -0.0339
  209loPI   C5A 3339  14.741   6.545   8.613  0.0721  0.1677 -0.0762
  209loPI   C6A 3340  14.978   6.555   8.303  0.3033 -0.0543  0.1235
  209loPI   C1B 3341  14.205   6.810   9.994 -0.1541 -0.1894 -0.1587
  209loPI   C2B 3342  14.257   6.702   9.539  0.1782  0.0119 -0.3102
  209loPI   C3B 3343  14.294   6.754   9.094 -0.1007 -0.3267  0.3660
  209loPI   C4B 3344  14.195   6.800   8.629 -0.0855  0.0421 -0.2470
  210loPI    C1 3345   7.141  13.890  10.683 -0.0841  0.0605 -0.0381
  210loPI    C2 3346   7.465  14.061  10.524 -0.0128  0.1081  0.1549
  210loPI    C3 3347   7.377  14.120  10.909 -0.1631 -0.0348  0.1439
  210loPI   PO4 3348   7.072  13.759  10.477 -0.4364 -0.0754 -0.1097
  210loPI   GL1 3349   7.202  13.937  10.134 -0.0679  0.3422  0.3171
  210loPI   GL2 3350   7.312  14.136   9.928 -0.0702  0.0719  0.1056
  210loPI   C1A 3351   6.894  13.727   9.882  0.1433  0.2344  0.1888
  210loPI   C2A 3352   6.779  13.612   9.518 -0.0669  0.0614  0.1515
  210loPI   C3A 3353   6.664  13.649   9.032  0.0593  0.0685  0.0205
  210loPI   C4A 3354   6.649  13.604   8.547  0.0835 -0.0689  0.0212
  210loPI   C5A 3355   6.701  13.508   8.187  0.0659  0.0914 -0.0134
  210loPI   C6A 3356   7.081  13.388   8.056 -0.4130  0.0588  0.2064
  210loPI   C1B 3357   7.166  13.986   9.532  0.1491 -0.1883 -0.2349
  210loPI   C2B 3358   7.057  13.935   9.142 -0.1204 -0.0286  0.2759
  210loPI   C3B 3359   7.100  13.887   8.682  0.1196 -0.0213  0.1809
  210loPI   C4B 3360   7.151  13.823   8.234 -0.2372 -0.0370  0.1122
  211loPI    C1 3361  10.295  16.274  10.755  0.0591  0.1333 -0.0120
  211loPI    C2 3362  10.540  16.040  10.966  0.0133  0.0803 -0.0171
  211loPI    C3 3363  10.208  16.185  11.135 -0.0968 -0.0779 -0.0947
  211loPI   PO4 3364  10.456  16.297  10.499 -0.3663 -0.0476 -0.1644
  211loPI   GL1 3365  10.577  16.111  10.100  0.2051 -0.1201  0.1167
  211loPI   GL2 3366  10.505  16.401  10.019 -0.0088  0.0923 -0.1569
  211loPI   C1A 3367  10.659  15.876   9.821 -0.0726 -0.2353  0.0271
  211loPI   C2A 3368  10.709  15.783   9.391  0.1271 -0.2725  0.4122
  211loPI   C3A 3369  10.670  15.820   8.960 -0.0065  0.0504  0.4020
  211loPI   C4A 3370  10.688  15.917   8.544 -0.1950 -0.0478 -0.1786
  211loPI   C5A 3371  10.758  16.153   8.233  0.2815  0.0476 -0.0342
  211loPI   C6A 3372  10.613  16.112   7.732 -0.0403  0.2348  0.1677
  211loPI   C1B 3373  10.384  16.285   9.647  0.1079 -0.0225 -0.0523
  211loPI   C2B 3374  10.433  16.176   9.286  0.1615 -0.1513  0.0693
  211loPI   C3B 3375  10.604  16.447   8.849  0.1713  0.0336 -0.0645
  211loPI   C4B 3376  10.883  16.550   8.549  0.0643 -0.0338  0.1370
  212loPI    C1 3377  17.512   4.770  11.366  0.0184  0.2834  0.1186
  212loPI    C2 3378  17.342   4.905  11.702 -0.0306 -0.0437  0.2286
  212loPI    C3 3379  17.632   4.630  11.722  0.0264 -0.0011  0.0066
  212loPI   PO4 3380  17.412   5.004  11.204  0.1549 -0.0211 -0.3842
  212loPI   GL1 3381  17.296   5.062  10.790  0.1195 -0.3213 -0.2293
  212loPI   GL2 3382  17.531   4.882  10.657 -0.2703 -0.0069 -0.0492
  212loPI   C1A 3383  17.168   5.091  10.367 -0.0423 -0.1598  0.0477
  212loPI   C2A 3384  17.152   4.999   9.943  0.0847 -0.0725  0.0177
  212loPI   C3A 3385  17.153   5.049   9.440 -0.1312 -0.1392  0.1210
  212loPI   C4A 3386  17.083   5.007   8.959 -0.1478  0.0143 -0.0518
  212loPI   C5A 3387  16.868   4.758   8.636  0.1994 -0.0214 -0.3718
  212loPI   C6A 3388  16.445   4.610   8.640 -0.0033 -0.1648 -0.0874
  212loPI   C1B 3389  17.673   4.816  10.207 -0.2651  0.1597 -0.2114
  212loPI   C2B 3390  17.618   4.868   9.683  0.1866 -0.0321 -0.1720
  212loPI   C3B 3391  17.589   4.812   9.259 -0.1743 -0.0366 -0.0237
  212loPI   C4B 3392  17.555   4.842   8.886 -0.0192 -0.1242  0.0894
  213loPI    C1 3393  13.402  16.985  11.346 -0.0150 -0.0960  0.0973
  213loPI    C2 3394  13.477  17.142  11.706  0.0160  0.2390 -0.0512
  213loPI    C3 3395  13.100  17.062  11.597  0.0279 -0.1260  0.1583
  213loPI   PO4 3396  13.396  17.136  11.147  0.2841 -0.4102  0.0803
  213loPI   GL1 3397  13.622  17.246  10.759  0.0982 -0.2540  0.3908
  213loPI   GL2 3398  13.735  16.997  10.588 -0.1316  0.1731  0.0137
  213loPI   C1A 3399  13.726  17.471  10.446  0.1811  0.0018 -0.0926
  213loPI   C2A 3400  13.708  17.460   9.986  0.0649  0.3125  0.0023
  213loPI   C3A 3401  13.741  17.489   9.549  0.2624 -0.2372  0.1009
  213loPI   C4A 3402  13.730  17.394   9.094  0.0939  0.0916 -0.4020
  213loPI   C5A 3403  13.747  17.434   8.655  0.0969 -0.2475 -0.0281
  213loPI   C6A 3404  13.657  17.703   8.324 -0.1831 -0.1566  0.2762
  213loPI   C1B 3405  13.759  16.873  10.217 -0.0657 -0.3161  0.0778
  213loPI   C2B 3406  13.769  16.967   9.737  0.0320  0.0593 -0.0947
  213loPI   C3B 3407  13.727  16.941   9.287  0.0271 -0.0586  0.1497
  213loPI   C4B 3408  13.660  16.858   8.804 -0.2540 -0.0355 -0.0968
  214loPI    C1 3409  12.415   4.713  11.209 -0.1223  0.0515 -0.0542
  214loPI    C2 3410  12.283   5.055  11.050 -0.1820  0.1200  0.1400
  214loPI    C3 3411  12.520   5.063  11.372  0.1102 -0.0103 -0.0681
  214loPI   PO4 3412  12.561   4.650  11.054 -0.1581  0.2292  0.1530
  214loPI   GL1 3413  12.423   4.681  10.602  0.0439 -0.0276 -0.0923
  214loPI   GL2 3414  12.668   4.468  10.572 -0.2468 -0.1126  0.0000
  214loPI   C1A 3415  12.316   4.696  10.179  0.4717  0.2061 -0.1362
  214loPI   C2A 3416  12.211   4.694   9.700 -0.4615 -0.4045  0.0514
  214loPI   C3A 3417  12.217   4.648   9.225  0.2098 -0.1139 -0.0913
  214loPI   C4A 3418  12.229   4.747   8.752  0.3175 -0.1795  0.2440
  214loPI   C5A 3419  12.327   4.611   8.338 -0.1589 -0.0625  0.0622
  214loPI   C6A 3420  12.179   4.705   7.972  0.0304 -0.0632  0.0722
  214loPI   C1B 3421  12.807   4.551  10.139 -0.2085 -0.1416 -0.0263
  214loPI   C2B 3422  12.714   4.513   9.680 -0.2502  0.1664 -0.1295
  214loPI   C3B 3423  12.732   4.522   9.229 -0.3375  0.2338  0.0675
  214loPI   C4B 3424  12.651   4.446   8.855  0.1639 -0.1492  0.0610
  215loPI    C1 3425  16.933  15.724  11.286  0.2238  0.0572 -0.1114
  215loPI    C2 3426  17.223  15.483  11.420  0.2468  0.0979 -0.0878
  215loPI    C3 3427  16.859  15.469  11.585  0.2212  0.0115 -0.1511
  215loPI   PO4 3428  17.050  15.865  11.175  0.0572  0.2308  0.3626
  215loPI   GL1 3429  17.064  15.905  10.805  0.2738 -0.3774 -0.1590
  215loPI   GL2 3430  17.036  15.576  10.756  0.1257  0.1155  0.0207
  215loPI   C1A 3431  17.086  16.027  10.334  0.0468 -0.0741  0.1916
  215loPI   C2A 3432  16.989  15.922   9.954 -0.0077 -0.0698 -0.1273
  215loPI   C3A 3433  16.900  15.982   9.440 -0.2879 -0.2989 -0.3165
  215loPI   C4A 3434  16.940  15.884   9.003  0.1933  0.3469  0.2810
  215loPI   C5A 3435  16.936  15.871   8.567 -0.0839  0.4290  0.0705
  215loPI   C6A 3436  17.189  15.702   8.295  0.2203 -0.1160 -0.0557
  215loPI   C1B 3437  17.051  15.567  10.367 -0.0006  0.2251 -0.2582
  215loPI   C2B 3438  16.998  15.412   9.954 -0.2215  0.0480 -0.0169
  215loPI   C3B 3439  16.972  15.421   9.555 -0.2058  0.2076 -0.0896
  215loPI   C4B 3440  16.942  15.383   9.146  0.0339 -0.0941 -0.1903
  216loPI    C1 3441   7.938   0.699  10.852  0.2060  0.0552  0.4257
  216loPI    C2 3442   8.150   0.508  10.571 -0.0946 -0.0459  0.2626
  216loPI    C3 3443   8.196   0.902  10.624 -0.0239 -0.0293  0.0822
  216loPI   PO4 3444   7.697   0.628  10.798 -0.0648 -0.0551  0.1471
  216loPI   GL1 3445   7.772   0.650  10.302  0.2611  0.3196  0.1302
  216loPI   GL2 3446   7.720   0.833  10.319  0.0754  0.1349 -0.2209
  216loPI   C1A 3447   7.811   0.603   9.850  0.3144  0.2188  0.2086
  216loPI   C2A 3448   7.805   0.660   9.405 -0.0417 -0.0209 -0.4672
  216loPI   C3A 3449   7.811   0.706   9.000 -0.3203  0.1322  0.0094
  216loPI   C4A 3450   7.823   0.573   8.559  0.2107  0.1639 -0.2277
  216loPI   C5A 3451   8.020   0.753   8.204 -0.3771  0.0374 -0.0657
  216loPI   C6A 3452   8.214   0.579   7.861 -0.3186 -0.1660 -0.3585
  216loPI   C1B 3453   7.775   1.149   9.904  0.0745  0.1036 -0.2944
  216loPI   C2B 3454   7.791   1.201   9.424 -0.2130  0.2639 -0.0671
  216loPI   C3B 3455   7.730   1.208   9.085 -0.2799 -0.0459 -0.0538
  216loPI   C4B 3456   7.762   1.076   8.594  0.2958 -0.2232 -0.1356
  217loPI    C1 3457   7.872  10.780  10.982  0.1904 -0.0058 -0.1480
  217loPI    C2 3458   8.240  10.925  10.922  0.2401  0.0642  0.2910
  217loPI    C3 3459   8.040  11.019  11.255 -0.2178  0.1054  0.0134
  217loPI   PO4 3460   7.886  10.576  10.752  0.0064 -0.1031  0.0308
  217loPI   GL1 3461   7.661  10.436  10.355 -0.1406 -0.0765 -0.1988
  217loPI   GL2 3462   7.857  10.666  10.268 -0.0404 -0.0331  0.0290
  217loPI   C1A 3463   7.478  10.376  10.032 -0.0150 -0.0842 -0.1835
  217loPI   C2A 3464   7.274  10.315   9.574 -0.3638  0.0963  0.0115
  217loPI   C3A 3465   7.440  10.201   9.162 -0.1373  0.0077 -0.1902
  217loPI   C4A 3466   7.574  10.333   8.721 -0.2100 -0.0135  0.1375
  217loPI   C5A 3467   7.738  10.397   8.305  0.1242  0.0163  0.0204
  217loPI   C6A 3468   7.997  10.667   8.128 -0.1802  0.0674 -0.1104
  217loPI   C1B 3469   7.855  10.617   9.844 -0.1591 -0.2670  0.1936
  217loPI   C2B 3470   7.794  10.558   9.451  0.1668 -0.1574 -0.1521
  217loPI   C3B 3471   7.873  10.509   9.129  0.2137  0.0392  0.2400
  217loPI   C4B 3472   7.995  10.545   8.719  0.0205 -0.0769  0.0974
  218loPI    C1 3473  14.691   4.048  11.504  0.0955  0.2648 -0.2324
  218loPI    C2 3474  14.961   4.313  11.634  0.1560 -0.0875  0.3963
  218loPI    C3 3475  14.608   4.280  11.819 -0.2230  0.1733 -0.2454
  218loPI   PO4 3476  14.686   4.040  11.237 -0.1738 -0.2267 -0.2963
  218loPI   GL1 3477  14.594   4.039  10.752 -0.0676  0.0302 -0.1849
  218loPI   GL2 3478  14.353   4.156  10.910 -0.0400 -0.2069 -0.0123
  218loPI   C1A 3479  14.514   4.286  10.358  0.0378  0.1335 -0.0585
  218loPI   C2A 3480  14.458   4.270   9.904 -0.1741  0.1846 -0.0104
  218loPI   C3A 3481  14.526   4.191   9.507 -0.2358  0.0721 -0.0818
  218loPI   C4A 3482  14.479   4.109   9.085 -0.1948 -0.3586 -0.3340
  218loPI   C5A 3483  14.212   4.075   8.739 -0.0238 -0.2046 -0.0409
  218loPI   C6A 3484  13.905   4.153   8.322 -0.0370 -0.4094 -0.0058
  218loPI   C1B 3485  14.181   3.909  10.532 -0.0545 -0.2221  0.0989
  218loPI   C2B 3486  14.090   3.934  10.018  0.2524 -0.2553 -0.4082
  218loPI   C3B 3487  14.152   3.851   9.586 -0.2503  0.1522 -0.0368
  218loPI   C4B 3488  14.077   3.780   9.116  0.2164  0.0287  0.0031
  219loPI    C1 3489   5.709   3.076  11.484  0.1899  0.0055  0.0632
  219loPI    C2 3490   5.953   2.820  11.671  0.0154 -0.1671  0.0585
  219loPI    C3 3491   5.634   2.967  11.862  0.0804  0.0012  0.0403
  219loPI   PO4 3492   5.923   3.116  11.251  0.0480 -0.0455 -0.0472
  219loPI   GL1 3493   5.948   3.058  10.827 -0.0466 -0.1690  0.0654
  219loPI   GL2 3494   5.790   3.211  10.664  0.2456  0.3293 -0.1674
  219loPI   C1A 3495   6.250   2.986  10.594  0.0103 -0.1511 -0.0031
  219loPI   C2A 3496   6.280   2.828  10.222  0.1263 -0.1317 -0.0570
  219loPI   C3A 3497   6.230   2.883   9.818  0.3251  0.1705 -0.1191
  219loPI   C4A 3498   6.127   2.808   9.423 -0.1672  0.0574 -0.0770
  219loPI   C5A 3499   6.257   2.885   9.004 -0.0538  0.0551  0.1299
  219loPI   C6A 3500   6.426   2.765   8.615 -0.1079 -0.2903 -0.0145
  219loPI   C1B 3501   5.810   3.021  10.228 -0.0530  0.0883 -0.3636
  219loPI   C2B 3502   5.763   3.022   9.871 -0.1615 -0.0930 -0.0027
  219loPI   C3B 3503   5.791   3.116   9.504 -0.0410  0.0651  0.1377
  219loPI   C4B 3504   5.755   3.007   9.085 -0.3347 -0.0374  0.1810
  220loPI    C1 3505  11.025   3.459  10.795  0.0385  0.1208 -0.0885
  220loPI    C2 3506  10.689   3.247  10.840  0.1276 -0.0004  0.0137
  220loPI    C3 3507  10.815   3.487  11.134  0.0068  0.2266 -0.1162
  220loPI   PO4 3508  11.129   3.341  10.634  0.1090 -0.1410 -0.0783
  220loPI   GL1 3509  11.135   3.233  10.296 -0.1516  0.1018 -0.0262
  220loPI   GL2 3510  11.480   3.515  10.307 -0.0332  0.2240 -0.3371
  220loPI   C1A 3511  11.147   3.307   9.879 -0.3940  0.1661  0.0219
  220loPI   C2A 3512  11.144   3.260   9.410  0.1466 -0.3005  0.0032
  220loPI   C3A 3513  11.031   3.181   8.973 -0.0786 -0.2262 -0.2628
  220loPI   C4A 3514  10.940   3.218   8.575 -0.0181  0.1420 -0.1434
  220loPI   C5A 3515  10.826   2.983   8.203 -0.1642  0.0331  0.1078
  220loPI   C6A 3516  10.711   2.681   7.891  0.0349  0.1791  0.1409
  220loPI   C1B 3517  11.515   3.654   9.909 -0.1244  0.1362 -0.1463
  220loPI   C2B 3518  11.583   3.566   9.526 -0.0040 -0.5722  0.0331
  220loPI   C3B 3519  11.483   3.519   9.145 -0.1236  0.0800 -0.0946
  220loPI   C4B 3520  11.363   3.470   8.664  0.2408  0.1023 -0.2082
  221loPI    C1 3521   0.420  15.053  10.820 -0.2385  0.1024  0.2674
  221loPI    C2 3522   0.371  14.722  10.601  0.0056  0.1641  0.1152
  221loPI    C3 3523   0.459  14.693  10.990 -0.0350  0.0511  0.1164
  221loPI   PO4 3524   0.616  15.145  10.662 -0.0046  0.1300 -0.2650
  221loPI   GL1 3525   0.606  15.273  10.248 -0.0274  0.1594  0.1760
  221loPI   GL2 3526   0.544  14.955  10.148 -0.0681 -0.3065  0.0959
  221loPI   C1A 3527   0.580  15.431   9.936 -0.0100  0.1478  0.1252
  221loPI   C2A 3528   0.515  15.379   9.468  0.0293  0.2316 -0.1015
  221loPI   C3A 3529   0.520  15.357   9.003  0.3489 -0.1156  0.0691
  221loPI   C4A 3530   0.362  15.394   8.713  0.0965 -0.2040  0.2675
  221loPI   C5A 3531   0.137  15.238   8.296 -0.1060 -0.2122  0.2513
  221loPI   C6A 3532  -0.049  14.897   8.209  0.0397 -0.2339 -0.4076
  221loPI   C1B 3533   0.545  14.891   9.729  0.1350 -0.2518  0.2325
  221loPI   C2B 3534   0.507  14.930   9.328  0.1290 -0.0822  0.0676
  221loPI   C3B 3535   0.474  14.851   8.975 -0.0528  0.2448 -0.1633
  221loPI   C4B 3536   0.546  14.877   8.489 -0.0442  0.1883 -0.2831
  222loPI    C1 3537  15.299  17.584  11.464 -0.2492  0.1697  0.0480
  222loPI    C2 3538  15.674  17.542  11.598 -0.1324  0.1800 -0.2677
  222loPI    C3 3539  15.383  17.308  11.742 -0.0316  0.2577  0.0713
  222loPI   PO4 3540  15.340  17.623  11.194  0.2643 -0.1319 -0.0834
  222loPI   GL1 3541  15.446  17.679  10.830 -0.0961  0.1988  0.2618
  222loPI   GL2 3542  15.625  17.988  10.730 -0.1407 -0.0449  0.2518
  222loPI   C1A 3543  15.708  17.419  10.603 -0.0904 -0.0593  0.2136
  222loPI   C2A 3544  15.817  17.452  10.149 -0.1791 -0.5268  0.1906
  222loPI   C3A 3545  15.902  17.462   9.654 -0.0211 -0.1533 -0.2968
  222loPI   C4A 3546  15.984  17.412   9.341 -0.1377  0.0130 -0.1816
  222loPI   C5A 3547  16.016  17.579   8.887 -0.2924  0.3095 -0.1873
  222loPI   C6A 3548  16.210  17.636   8.519 -0.2285 -0.3434  0.0434
  222loPI   C1B 3549  15.446  17.748  10.296  0.0786 -0.1580  0.0962
  222loPI   C2B 3550  15.484  17.619   9.781  0.3812 -0.1807 -0.3150
  222loPI   C3B 3551  15.463  17.701   9.473 -0.1574 -0.0102  0.0525
  222loPI   C4B 3552  15.382  17.662   9.002 -0.1559 -0.0155  0.0934
  223loPI    C1 3553  12.191   2.284  11.353  0.0462  0.2340 -0.1731
  223loPI    C2 3554  11.808   2.278  11.468  0.1070  0.1151  0.0293
  223loPI    C3 3555  12.084   2.445  11.703  0.1657  0.2946 -0.1640
  223loPI   PO4 3556  12.143   2.397  11.061  0.2782  0.1861  0.2693
  223loPI   GL1 3557  12.176   2.299  10.617 -0.0009 -0.2970 -0.1848
  223loPI   GL2 3558  12.458   2.453  10.510 -0.2921 -0.3265 -0.0696
  223loPI   C1A 3559  12.014   2.164  10.296  0.0213  0.1040  0.0385
  223loPI   C2A 3560  12.092   2.227   9.914  0.1999  0.0814 -0.0582
  223loPI   C3A 3561  12.116   2.262   9.506 -0.3454 -0.0529  0.3274
  223loPI   C4A 3562  12.115   2.277   9.059 -0.1815  0.0000  0.0229
  223loPI   C5A 3563  12.092   2.201   8.609  0.0442  0.1089 -0.1530
  223loPI   C6A 3564  12.246   1.955   8.310  0.1618 -0.1488  0.1575
  223loPI   C1B 3565  12.516   2.453  10.086 -0.0313 -0.1277 -0.1977
  223loPI   C2B 3566  12.471   2.636   9.645  0.1037  0.0048  0.1112
  223loPI   C3B 3567  12.484   2.579   9.274  0.1113 -0.0460 -0.2839
  223loPI   C4B 3568  12.487   2.581   8.757 -0.1070  0.2205 -0.2833
  224loPI    C1 3569  13.276  12.415  11.143 -0.0815  0.0168  0.0669
  224loPI    C2 3570  13.373  12.041  11.244 -0.1835  0.0066  0.1280
  224loPI    C3 3571  13.097  12.240  11.455 -0.0872  0.1372  0.1320
  224loPI   PO4 3572  13.103  12.387  10.875 -0.1367  0.0009 -0.0150
  224loPI   GL1 3573  12.994  12.570  10.393 -0.0342 -0.0491  0.3467
  224loPI   GL2 3574  12.892  12.275  10.423  0.1462 -0.0353 -0.0995
  224loPI   C1A 3575  13.047  12.749   9.992 -0.0020 -0.2394  0.0098
  224loPI   C2A 3576  13.115  12.807   9.543 -0.0747 -0.0452 -0.0872
  224loPI   C3A 3577  13.109  12.650   9.081  0.1607 -0.3407  0.2917
  224loPI   C4A 3578  13.209  12.719   8.586 -0.0600  0.1467  0.2435
  224loPI   C5A 3579  13.595  12.818   8.266  0.1261  0.1328 -0.0113
  224loPI   C6A 3580  14.038  12.906   8.191  0.2346 -0.1224 -0.0937
  224loPI   C1B 3581  13.016  12.256   9.932  0.1233 -0.5388 -0.1778
  224loPI   C2B 3582  13.172  12.256   9.488 -0.1700  0.2912  0.0961
  224loPI   C3B 3583  13.155  12.158   9.037  0.0181  0.2763  0.2756
  224loPI   C4B 3584  13.199  12.044   8.613  0.1770 -0.4357  0.0686
  225loPI    C1 3585  12.632  15.807  10.970  0.1446 -0.1009  0.0565
  225loPI    C2 3586  12.711  15.416  10.985 -0.2962 -0.2031 -0.1185
  225loPI    C3 3587  12.452  15.577  11.243  0.0132  0.0105  0.0652
  225loPI   PO4 3588  12.613  15.852  10.708  0.2641  0.0384 -0.0983
  225loPI   GL1 3589  12.841  15.613  10.420 -0.2662  0.2016  0.2217
  225loPI   GL2 3590  13.114  15.696  10.395  0.2424  0.2338 -0.4010
  225loPI   C1A 3591  12.859  15.763   9.991 -0.3318 -0.0151  0.3851
  225loPI   C2A 3592  12.791  15.815   9.531 -0.1392 -0.1245  0.1264
  225loPI   C3A 3593  12.834  15.733   9.070  0.2820 -0.1904  0.0325
  225loPI   C4A 3594  12.929  15.778   8.627 -0.2936 -0.1126  0.0968
  225loPI   C5A 3595  12.698  15.758   8.277 -0.3755 -0.1987  0.1187
  225loPI   C6A 3596  12.482  15.569   8.026  0.0018 -0.0650  0.0555
  225loPI   C1B 3597  13.367  15.645   9.925 -0.0102 -0.0139 -0.1809
  225loPI   C2B 3598  13.403  15.606   9.439  0.2208 -0.0729  0.3825
  225loPI   C3B 3599  13.423  15.658   8.985  0.1490 -0.0831 -0.4909
  225loPI   C4B 3600  13.461  15.654   8.598 -0.2493  0.0539 -0.1334
  226loPI    C1 3601  10.549   1.202  11.085  0.0045  0.1440  0.0905
  226loPI    C2 3602  10.842   1.432  11.232  0.1079  0.0098  0.0964
  226loPI    C3 3603  10.828   1.043  11.324 -0.1255  0.0345  0.1703
  226loPI   PO4 3604  10.503   1.303  10.820  0.1237  0.1947 -0.2683
  226loPI   GL1 3605  10.287   1.115  10.408 -0.3020  0.2333  0.0464
  226loPI   GL2 3606   9.967   1.097  10.431 -0.1198  0.0578  0.1962
  226loPI   C1A 3607  10.130   1.230   9.927  0.0874  0.0908  0.2162
  226loPI   C2A 3608   9.992   1.267   9.467  0.1565 -0.0395  0.1385
  226loPI   C3A 3609   9.948   1.193   9.094  0.0678  0.4426 -0.2081
  226loPI   C4A 3610   9.984   1.158   8.677 -0.0264 -0.0794  0.0665
  226loPI   C5A 3611   9.906   0.966   8.435  0.1421  0.1360  0.2097
  226loPI   C6A 3612   9.860   0.596   8.083 -0.0470  0.3551  0.0547
  226loPI   C1B 3613   9.713   0.828  10.153 -0.0295 -0.0522 -0.0827
  226loPI   C2B 3614   9.564   0.812   9.749  0.1885 -0.0925  0.2042
  226loPI   C3B 3615   9.600   0.877   9.305 -0.1326  0.4392 -0.0719
  226loPI   C4B 3616   9.621   0.882   8.833 -0.1718  0.1436 -0.2758
  227loPI    C1 3617   4.192   3.426  11.285  0.2323  0.2231  0.2864
  227loPI    C2 3618   3.853   3.614  11.383 -0.1625 -0.2371 -0.1395
  227loPI    C3 3619   4.030   3.369  11.646 -0.0833  0.1008  0.1290
  227loPI   PO4 3620   4.087   3.243  11.047 -0.0247 -0.1161 -0.0061
  227loPI   GL1 3621   3.924   3.123  10.677 -0.0763  0.0117  0.0245
  227loPI   GL2 3622   3.809   3.354  10.422 -0.1242  0.0668 -0.1002
  227loPI   C1A 3623   4.042   2.942  10.285  0.0795  0.2871 -0.0476
  227loPI   C2A 3624   4.013   2.795   9.816 -0.1573  0.0978 -0.1261
  227loPI   C3A 3625   3.965   2.759   9.378 -0.2040 -0.0545  0.2094
  227loPI   C4A 3626   4.025   2.838   8.908 -0.2797 -0.4168  0.1086
  227loPI   C5A 3627   4.248   2.794   8.505 -0.1404  0.1913  0.2462
  227loPI   C6A 3628   4.481   2.889   8.079  0.0173  0.0057  0.0587
  227loPI   C1B 3629   3.877   3.284   9.975 -0.3141  0.1804  0.0603
  227loPI   C2B 3630   4.024   3.314   9.515  0.0963  0.0541  0.2045
  227loPI   C3B 3631   3.932   3.382   9.085 -0.0023 -0.2145  0.0247
  227loPI   C4B 3632   3.937   3.396   8.641  0.0352  0.1308 -0.2444
  228loPI    C1 3633   1.822   2.409  11.210  0.0354 -0.0644  0.0902
  228loPI    C2 3634   1.983   2.698  11.435  0.0702 -0.0065 -0.0083
  228loPI    C3 3635   1.810   2.382  11.609  0.1182  0.0259  0.0992
  228loPI   PO4 3636   1.841   2.490  10.987 -0.0069 -0.0168 -0.0116
  228loPI   GL1 3637   2.082   2.465  10.638  0.3537 -0.2595 -0.1528
  228loPI   GL2 3638   2.395   2.524  10.680  0.0408  0.0365  0.0838
  228loPI   C1A 3639   1.809   2.390  10.289  0.0705 -0.0445 -0.2414
  228loPI   C2A 3640   1.791   2.424   9.844  0.3228  0.1126  0.0316
  228loPI   C3A 3641   1.836   2.359   9.355  0.1096 -0.0965  0.0258
  228loPI   C4A 3642   1.820   2.443   8.879 -0.3263  0.0628 -0.1507
  228loPI   C5A 3643   1.768   2.395   8.445 -0.0236 -0.0509 -0.0378
  228loPI   C6A 3644   1.515   2.642   8.262 -0.0521 -0.2166  0.2334
  228loPI   C1B 3645   2.294   2.591  10.208  0.0881 -0.1178 -0.2553
  228loPI   C2B 3646   2.169   2.678   9.692 -0.2998 -0.1613 -0.1306
  228loPI   C3B 3647   2.150   2.746   9.197 -0.1278 -0.3389 -0.2516
  228loPI   C4B 3648   2.261   2.754   8.782  0.0924 -0.4134  0.1546
  229loPI    C1 3649   2.055   4.420  11.075  0.0083  0.2788 -0.0468
  229loPI    C2 3650   2.070   4.298  11.456  0.2074  0.0794 -0.1166
  229loPI    C3 3651   1.785   4.553  11.339 -0.3217 -0.4353 -0.0002
  229loPI   PO4 3652   2.260   4.481  10.940 -0.1692 -0.5558 -0.2530
  229loPI   GL1 3653   2.449   4.356  10.588  0.2643 -0.0468 -0.1102
  229loPI   GL2 3654   2.418   4.037  10.684 -0.0141 -0.0875 -0.0414
  229loPI   C1A 3655   2.484   4.490  10.177 -0.1962 -0.2386 -0.2125
  229loPI   C2A 3656   2.437   4.623   9.711 -0.0844  0.3928  0.1332
  229loPI   C3A 3657   2.463   4.615   9.311 -0.0065 -0.2021  0.0649
  229loPI   C4A 3658   2.386   4.578   8.904  0.0805 -0.1016  0.0120
  229loPI   C5A 3659   2.547   4.637   8.553 -0.0206 -0.2248  0.1025
  229loPI   C6A 3660   2.466   4.827   8.254  0.0044  0.2765 -0.2186
  229loPI   C1B 3661   2.509   3.976  10.307  0.1778  0.0786 -0.2614
  229loPI   C2B 3662   2.547   4.012   9.877 -0.0831 -0.0695  0.0563
  229loPI   C3B 3663   2.589   4.007   9.515 -0.2866  0.0517 -0.0860
  229loPI   C4B 3664   2.451   4.097   9.116 -0.0591  0.2828  0.4758
  230loPI    C1 3665  12.921   4.779  11.433 -0.0143 -0.0051  0.1779
  230loPI    C2 3666  13.226   4.883  11.670 -0.0689 -0.2299  0.3513
  230loPI    C3 3667  12.861   4.831  11.825 -0.2675  0.3292  0.0994
  230loPI   PO4 3668  12.970   4.985  11.144  0.5314  0.4396 -0.2321
  230loPI   GL1 3669  12.874   4.963  10.746 -0.2148  0.0449  0.2080
  230loPI   GL2 3670  13.072   4.829  10.583 -0.1121 -0.1402 -0.2413
  230loPI   C1A 3671  12.703   5.067  10.358  0.1566  0.1919 -0.0435
  230loPI   C2A 3672  12.628   4.988   9.902  0.1407  0.2344 -0.0093
  230loPI   C3A 3673  12.691   4.950   9.528 -0.1539  0.0152  0.3241
  230loPI   C4A 3674  12.541   5.020   8.983  0.0841 -0.2120 -0.0408
  230loPI   C5A 3675  12.556   5.056   8.508  0.0693 -0.0233 -0.1750
  230loPI   C6A 3676  12.396   5.155   8.151  0.0841 -0.1667  0.2154
  230loPI   C1B 3677  13.176   4.835  10.109 -0.0648  0.1937  0.3425
  230loPI   C2B 3678  13.145   4.788   9.711 -0.3225 -0.1114  0.2802
  230loPI   C3B 3679  13.141   4.913   9.318 -0.2417  0.2264 -0.0782
  230loPI   C4B 3680  13.040   4.798   8.916  0.3969  0.0704  0.1516
  231loPI    C1 3681   8.757   8.385  11.079  0.0340 -0.0678 -0.2105
  231loPI    C2 3682   8.472   8.113  11.010 -0.0326 -0.0257 -0.1034
  231loPI    C3 3683   8.844   7.996  11.101 -0.0491 -0.0809 -0.1069
  231loPI   PO4 3684   8.540   8.594  10.881 -0.0030 -0.1057  0.2153
  231loPI   GL1 3685   8.380   8.734  10.496  0.3432  0.0153 -0.3126
  231loPI   GL2 3686   8.142   8.506  10.329  0.1459  0.0152 -0.1549
  231loPI   C1A 3687   8.481   8.765  10.070  0.1098 -0.0632 -0.0964
  231loPI   C2A 3688   8.447   8.812   9.660  0.0179  0.2431  0.0032
  231loPI   C3A 3689   8.466   8.806   9.198  0.0740  0.1081  0.2008
  231loPI   C4A 3690   8.455   8.662   8.808  0.1903  0.0823  0.1183
  231loPI   C5A 3691   8.096   8.575   8.465  0.0082 -0.1292  0.3436
  231loPI   C6A 3692   7.780   8.273   8.331  0.3881 -0.0871  0.1754
  231loPI   C1B 3693   8.062   8.647   9.917 -0.2872  0.0042  0.0587
  231loPI   C2B 3694   8.039   8.449   9.639 -0.0391 -0.0295  0.0883
  231loPI   C3B 3695   7.908   8.468   9.235  0.1789  0.1308 -0.0200
  231loPI   C4B 3696   8.042   8.336   8.909 -0.2520 -0.1076  0.0304
  232loPI    C1 3697   8.272   1.799  11.080 -0.0838  0.1131  0.1996
  232loPI    C2 3698   8.104   1.942  11.414 -0.1761  0.0311  0.1887
  232loPI    C3 3699   8.466   1.772  11.429 -0.1723  0.0437  0.2437
  232loPI   PO4 3700   8.186   1.880  10.823 -0.2181 -0.2522 -0.1679
  232loPI   GL1 3701   8.398   1.891  10.483 -0.1711 -0.0505 -0.2663
  232loPI   GL2 3702   8.133   1.947  10.307  0.1917 -0.0193  0.2598
  232loPI   C1A 3703   8.583   1.743  10.190 -0.1801  0.1706  0.0836
  232loPI   C2A 3704   8.608   1.751   9.753  0.1576  0.2441  0.0930
  232loPI   C3A 3705   8.569   1.848   9.350  0.2033  0.2985 -0.2411
  232loPI   C4A 3706   8.562   1.750   8.995 -0.2186  0.1040  0.1795
  232loPI   C5A 3707   8.514   1.731   8.559 -0.0117  0.0023  0.2261
  232loPI   C6A 3708   8.484   1.496   8.156  0.3597 -0.2309  0.0320
  232loPI   C1B 3709   8.127   1.987   9.779 -0.4117 -0.0830 -0.0666
  232loPI   C2B 3710   8.109   1.995   9.264 -0.2270  0.0610  0.4622
  232loPI   C3B 3711   8.120   1.883   8.834  0.3071  0.0860 -0.1294
  232loPI   C4B 3712   8.012   1.874   8.327 -0.1550  0.0326 -0.2627
  233loPI    C1 3713   9.519   9.998  10.899 -0.2624 -0.0918 -0.0490
  233loPI    C2 3714   9.174   9.996  11.101 -0.1066  0.3079  0.2338
  233loPI    C3 3715   9.508   9.862  11.275 -0.1041 -0.0285 -0.0208
  233loPI   PO4 3716   9.482   9.978  10.729 -0.0793  0.2872 -0.0265
  233loPI   GL1 3717   9.640  10.037  10.291 -0.1268  0.3162  0.1118
  233loPI   GL2 3718   9.449  10.203  10.242  0.1351  0.0355 -0.1014
  233loPI   C1A 3719   9.629  10.031   9.846  0.1532 -0.0683  0.1343
  233loPI   C2A 3720   9.755  10.160   9.413 -0.0361  0.1948 -0.0986
  233loPI   C3A 3721   9.694  10.149   8.944 -0.1289  0.3415 -0.0729
  233loPI   C4A 3722   9.858  10.292   8.607 -0.0031  0.1071  0.0927
  233loPI   C5A 3723   9.946  10.345   8.176 -0.0270  0.0026 -0.0021
  233loPI   C6A 3724  10.035  10.212   7.716  0.1385  0.0180 -0.2068
  233loPI   C1B 3725   9.251  10.368   9.931 -0.2236  0.1772 -0.1321
  233loPI   C2B 3726   9.177  10.451   9.550 -0.3016  0.0148  0.1055
  233loPI   C3B 3727   9.330  10.396   9.195  0.0993 -0.0661 -0.0558
  233loPI   C4B 3728   9.350  10.455   8.762  0.1855  0.1991  0.0634
  234loPI    C1 3729   0.277  16.882  11.016 -0.1634  0.2913  0.1841
  234loPI    C2 3730  -0.042  16.734  10.825  0.0788 -0.2102  0.1517
  234loPI    C3 3731  -0.072  17.077  11.027 -0.4004 -0.1001 -0.0908
  234loPI   PO4 3732   0.473  17.023  10.847  0.0808  0.1270  0.3002
  234loPI   GL1 3733   0.439  16.887  10.452 -0.2381  0.0704 -0.0776
  234loPI   GL2 3734   0.084  17.109  10.505  0.1907  0.0315 -0.0422
  234loPI   C1A 3735   0.491  16.954  10.002  0.2232  0.1102 -0.1323
  234loPI   C2A 3736   0.397  16.884   9.469  0.0602  0.1694  0.3358
  234loPI   C3A 3737   0.366  16.908   9.024 -0.0009 -0.0600  0.3121
  234loPI   C4A 3738   0.451  17.063   8.559  0.1102  0.2065  0.0171
  234loPI   C5A 3739   0.458  17.312   8.229 -0.3055 -0.0613 -0.2066
  234loPI   C6A 3740   0.737  17.599   8.156 -0.1258 -0.0662  0.3352
  234loPI   C1B 3741  -0.047  17.068  10.108 -0.0595 -0.1384 -0.0376
  234loPI   C2B 3742   0.016  17.097   9.655  0.1673  0.0666 -0.2296
  234loPI   C3B 3743  -0.057  17.093   9.246  0.1227  0.3021  0.0412
  234loPI   C4B 3744  -0.023  17.201   8.758  0.0983 -0.0607 -0.1369
  235loPI    C1 3745  13.422  17.776  11.552  0.2620 -0.0983 -0.0608
  235loPI    C2 3746  13.638  17.571  11.819 -0.0810 -0.0539  0.2582
  235loPI    C3 3747  13.366  17.837  11.943 -0.0085  0.2170 -0.1443
  235loPI   PO4 3748  13.388  17.651  11.383  0.0901  0.2882 -0.0929
  235loPI   GL1 3749  13.304  17.643  10.921 -0.3774  0.2531  0.4265
  235loPI   GL2 3750  13.546  17.757  10.917  0.1896  0.2543 -0.1058
  235loPI   C1A 3751  13.203  17.668  10.501 -0.0225 -0.2171 -0.1689
  235loPI   C2A 3752  13.216  17.698  10.118 -0.1276 -0.0659  0.1981
  235loPI   C3A 3753  13.255  17.637   9.711 -0.2739 -0.1797 -0.0294
  235loPI   C4A 3754  13.315  17.688   9.369  0.1711 -0.2368  0.2286
  235loPI   C5A 3755  13.285  17.659   8.888 -0.1561  0.1895 -0.1319
  235loPI   C6A 3756  13.186  17.624   8.521  0.2531  0.1341 -0.0911
  235loPI   C1B 3757  13.708  17.943  10.452  0.2403  0.0002  0.2382
  235loPI   C2B 3758  13.662  17.955   9.984  0.0519  0.1468  0.2315
  235loPI   C3B 3759  13.691  18.017   9.459  0.0648  0.0676  0.0331
  235loPI   C4B 3760  13.709  17.933   9.066 -0.1100  0.2341 -0.0622
  236loPI    C1 3761  17.332  10.067  11.457  0.0583 -0.0160 -0.1871
  236loPI    C2 3762  17.533  10.407  11.520  0.2032 -0.1076 -0.1501
  236loPI    C3 3763  17.357  10.219  11.826 -0.1193  0.0816 -0.2138
  236loPI   PO4 3764  17.420   9.956  11.235 -0.3542  0.0753  0.0576
  236loPI   GL1 3765  17.434  10.004  10.783 -0.2759  0.3627  0.0817
  236loPI   GL2 3766  17.552  10.268  10.619  0.1164  0.2580  0.1748
  236loPI   C1A 3767  17.637   9.812  10.403 -0.1640 -0.0932  0.0161
  236loPI   C2A 3768  17.578   9.734   9.961  0.3022  0.0718 -0.0337
  236loPI   C3A 3769  17.630   9.702   9.557 -0.1221 -0.0714 -0.1629
  236loPI   C4A 3770  17.544   9.819   9.147  0.1663  0.0931  0.0820
  236loPI   C5A 3771  17.535   9.785   8.692 -0.1933  0.0302 -0.2655
  236loPI   C6A 3772  17.557   9.419   8.515 -0.1016  0.0751  0.2857
  236loPI   C1B 3773  17.502  10.193  10.101  0.0173  0.2353  0.0097
  236loPI   C2B 3774  17.546  10.183   9.587 -0.0108 -0.2615 -0.1477
  236loPI   C3B 3775  17.535  10.318   9.254 -0.1216  0.0330  0.0010
  236loPI   C4B 3776  17.472  10.325   8.813 -0.1040 -0.0628 -0.1224
  237loPI    C1 3777   4.609  12.458  10.938 -0.0654 -0.0483 -0.0498
  237loPI    C2 3778   4.977  12.534  11.074 -0.0031 -0.1194 -0.1771
  237loPI    C3 3779   4.668  12.752  11.202  0.0635 -0.1438  0.0292
  237loPI   PO4 3780   4.663  12.397  10.702  0.1161 -0.1447 -0.0503
  237loPI   GL1 3781   4.582  12.730  10.370  0.0323 -0.0194  0.0465
  237loPI   GL2 3782   4.498  13.032  10.274  0.2322  0.0415 -0.0301
  237loPI   C1A 3783   4.527  12.699   9.914 -0.0794 -0.0739 -0.0310
  237loPI   C2A 3784   4.496  12.669   9.460 -0.0636 -0.0937 -0.4379
  237loPI   C3A 3785   4.460  12.585   9.022 -0.0342  0.3051 -0.1339
  237loPI   C4A 3786   4.402  12.498   8.624 -0.0720 -0.3409  0.4137
  237loPI   C5A 3787   4.675  12.608   8.285 -0.0887  0.1651 -0.0388
  237loPI   C6A 3788   5.083  12.552   8.021  0.1674 -0.2010 -0.1196
  237loPI   C1B 3789   4.559  13.272   9.778 -0.0367  0.1436 -0.0662
  237loPI   C2B 3790   4.543  13.163   9.333 -0.1935  0.2526  0.2832
  237loPI   C3B 3791   4.443  13.155   8.860  0.1024 -0.0614  0.2662
  237loPI   C4B 3792   4.330  13.079   8.423  0.1694 -0.0886 -0.1427
  238loPI    C1 3793   7.090  10.083  10.967  0.1601 -0.1169  0.0542
  238loPI    C2 3794   7.240  10.143  11.333 -0.0726  0.1709  0.1060
  238loPI    C3 3795   6.862  10.246  11.252 -0.0520  0.0240 -0.1914
  238loPI   PO4 3796   7.222   9.820  10.954  0.0179  0.0667  0.0095
  238loPI   GL1 3797   7.583   9.585  10.645 -0.0017  0.3182  0.0637
  238loPI   GL2 3798   7.639   9.815  10.460 -0.0128  0.1409  0.3564
  238loPI   C1A 3799   7.409   9.340  10.323 -0.3320  0.0378  0.1945
  238loPI   C2A 3800   7.482   9.269   9.996  0.0306 -0.2740 -0.0478
  238loPI   C3A 3801   7.419   9.278   9.529  0.1930  0.3321  0.0954
  238loPI   C4A 3802   7.576   9.171   9.112  0.1611  0.0816 -0.4055
  238loPI   C5A 3803   7.445   9.151   8.691  0.0339 -0.0497 -0.2144
  238loPI   C6A 3804   7.596   9.362   8.271 -0.3322  0.1998 -0.0912
  238loPI   C1B 3805   7.503   9.826  10.070 -0.1398 -0.0930  0.0344
  238loPI   C2B 3806   7.333   9.709   9.687 -0.0678  0.0017 -0.2467
  238loPI   C3B 3807   7.388   9.693   9.201  0.1071 -0.0547 -0.0163
  238loPI   C4B 3808   7.553   9.609   8.759 -0.0483  0.1181 -0.1574
  239loPI    C1 3809  17.450   3.892  11.279  0.2075  0.2041 -0.1944
  239loPI    C2 3810  17.372   4.272  11.378 -0.1974  0.1012 -0.0982
  239loPI    C3 3811  17.155   3.975  11.536  0.4596 -0.2173  0.2472
  239loPI   PO4 3812  17.514   3.950  11.040 -0.0598 -0.0195 -0.0589
  239loPI   GL1 3813  17.671   4.034  10.684  0.1146  0.1626  0.1320
  239loPI   GL2 3814  17.663   4.319  10.446  0.2538  0.2910  0.0336
  239loPI   C1A 3815  17.773   3.833  10.270  0.1007  0.0321 -0.1210
  239loPI   C2A 3816  17.768   3.826   9.784  0.0115 -0.4895  0.1841
  239loPI   C3A 3817  17.646   3.839   9.357 -0.0968 -0.0136  0.0310
  239loPI   C4A 3818  17.733   3.834   9.005 -0.0372 -0.3652 -0.4520
  239loPI   C5A 3819  17.680   3.780   8.553  0.1060  0.0028 -0.1057
  239loPI   C6A 3820  17.577   3.858   8.223 -0.3500 -0.0116  0.1379
  239loPI   C1B 3821  17.661   4.354   9.973 -0.5696 -0.0067  0.0775
  239loPI   C2B 3822  17.697   4.381   9.465 -0.2600  0.1745 -0.0448
  239loPI   C3B 3823  17.578   4.353   9.028 -0.0058 -0.1023  0.1173
  239loPI   C4B 3824  17.584   4.353   8.561  0.2543  0.0622  0.3093
  240loPI    C1 3825   7.331   7.804  10.940  0.0664  0.0007  0.0532
  240loPI    C2 3826   7.605   7.689  11.208 -0.1884 -0.2734  0.2019
  240loPI    C3 3827   7.287   7.902  11.325  0.0175  0.1517  0.0099
  240loPI   PO4 3828   7.537   7.755  10.680 -0.1762 -0.2350  0.1140
  240loPI   GL1 3829   7.701   7.617  10.357  0.0421  0.1539  0.3470
  240loPI   GL2 3830   7.818   7.380  10.294 -0.0074 -0.1487  0.4031
  240loPI   C1A 3831   7.553   7.758   9.998 -0.0260  0.1980 -0.0925
  240loPI   C2A 3832   7.676   7.741   9.580 -0.1511 -0.2556 -0.2271
  240loPI   C3A 3833   7.650   7.619   9.161  0.2078 -0.3075  0.0622
  240loPI   C4A 3834   7.656   7.465   8.696  0.2599 -0.0536 -0.0765
  240loPI   C5A 3835   7.763   7.313   8.368  0.1367 -0.0305 -0.0451
  240loPI   C6A 3836   8.002   7.098   8.120  0.0086 -0.0276 -0.0995
  240loPI   C1B 3837   7.636   7.267   9.854 -0.3342 -0.1221 -0.0804
  240loPI   C2B 3838   7.631   7.176   9.473  0.3179  0.2439  0.0095
  240loPI   C3B 3839   7.562   7.129   9.112  0.1696 -0.0918 -0.1028
  240loPI   C4B 3840   7.509   6.979   8.594  0.0432 -0.0190 -0.1306
  241loPI    C1 3841  15.762   6.802  10.884  0.0972  0.0119 -0.0054
  241loPI    C2 3842  15.443   6.640  11.064  0.0815 -0.0847 -0.1190
  241loPI    C3 3843  15.808   6.591  11.221  0.0343  0.0787  0.0454
  241loPI   PO4 3844  15.748   6.735  10.676 -0.1425  0.1536 -0.0149
  241loPI   GL1 3845  15.612   6.680  10.297  0.2216 -0.2680 -0.1347
  241loPI   GL2 3846  15.328   6.442  10.389 -0.0463  0.0101  0.0348
  241loPI   C1A 3847  15.638   6.639   9.865 -0.0460  0.1263  0.0517
  241loPI   C2A 3848  15.612   6.685   9.455  0.1717  0.1219  0.1633
  241loPI   C3A 3849  15.666   6.710   9.087 -0.3520 -0.1272 -0.2645
  241loPI   C4A 3850  15.576   6.659   8.582 -0.4312  0.1827  0.1079
  241loPI   C5A 3851  15.583   6.505   8.242 -0.0417  0.1674 -0.2027
  241loPI   C6A 3852  15.240   6.517   7.893 -0.2333 -0.2808 -0.3300
  241loPI   C1B 3853  15.282   6.255   9.975 -0.2691  0.1506 -0.1968
  241loPI   C2B 3854  15.293   6.298   9.614  0.2236  0.1073  0.3437
  241loPI   C3B 3855  15.308   6.353   9.206 -0.1760  0.0174  0.0428
  241loPI   C4B 3856  15.207   6.328   8.742 -0.1509  0.2428  0.1648
  242loPI    C1 3857  15.996   3.218  11.475  0.0874 -0.1938 -0.1671
  242loPI    C2 3858  15.638   3.282  11.309  0.0062  0.0936  0.1075
  242loPI    C3 3859  15.670   3.046  11.630  0.0639  0.0674  0.0826
  242loPI   PO4 3860  16.141   3.154  11.223 -0.1682 -0.0431  0.0290
  242loPI   GL1 3861  15.856   3.137  10.906 -0.1351  0.2774  0.2420
  242loPI   GL2 3862  16.169   3.193  10.747 -0.1980  0.0697 -0.0423
  242loPI   C1A 3863  15.669   3.246  10.568  0.0430  0.3118  0.0255
  242loPI   C2A 3864  15.548   3.274  10.193 -0.2775 -0.4473  0.3207
  242loPI   C3A 3865  15.523   3.306   9.811 -0.0997 -0.0885  0.1422
  242loPI   C4A 3866  15.521   3.332   9.449  0.4890  0.1567  0.0246
  242loPI   C5A 3867  15.509   3.152   9.078  0.0582  0.0779 -0.2756
  242loPI   C6A 3868  15.249   3.242   8.765  0.1499 -0.0996 -0.0200
  242loPI   C1B 3869  16.058   3.130  10.267 -0.0723 -0.0027 -0.1994
  242loPI   C2B 3870  16.015   3.095   9.834  0.0646  0.2315  0.0338
  242loPI   C3B 3871  15.948   3.017   9.409 -0.1215 -0.1094  0.1233
  242loPI   C4B 3872  16.042   3.055   9.057 -0.1460 -0.2584 -0.0006
  243loPI    C1 3873  12.302  16.221  10.943  0.2533  0.0059  0.0053
  243loPI    C2 3874  12.065  15.900  10.974  0.1430  0.0884  0.0208
  243loPI    C3 3875  12.233  16.056  11.301  0.0458  0.1590  0.0375
  243loPI   PO4 3876  12.208  16.307  10.702 -0.0387 -0.1907 -0.1031
  243loPI   GL1 3877  12.555  16.254  10.460  0.2109 -0.2069  0.0561
  243loPI   GL2 3878  12.876  16.168  10.416  0.0655 -0.0196 -0.0063
  243loPI   C1A 3879  12.445  16.015  10.110  0.2840 -0.2752  0.0255
  243loPI   C2A 3880  12.427  16.071   9.612 -0.1306 -0.2704 -0.3209
  243loPI   C3A 3881  12.393  16.004   9.163  0.1232 -0.0422  0.0386
  243loPI   C4A 3882  12.394  15.959   8.718 -0.1253  0.0452 -0.0425
  243loPI   C5A 3883  12.521  16.214   8.319  0.0818 -0.0209 -0.0891
  243loPI   C6A 3884  12.761  16.550   8.213 -0.0874 -0.1446  0.0777
  243loPI   C1B 3885  12.940  16.312  10.058 -0.1231  0.1692  0.0191
  243loPI   C2B 3886  12.934  16.336   9.551  0.1968 -0.2691 -0.3448
  243loPI   C3B 3887  12.922  16.256   9.160  0.0976  0.0614 -0.3326
  243loPI   C4B 3888  12.827  16.259   8.747 -0.0435 -0.0682 -0.3700
  244loPI    C1 3889  13.095   8.807  11.082 -0.3130 -0.0881 -0.2113
  244loPI    C2 3890  12.769   8.843  11.311 -0.1655  0.2693 -0.0496
  244loPI    C3 3891  13.126   8.779  11.480 -0.1210  0.0757 -0.2130
  244loPI   PO4 3892  13.036   8.610  10.840  0.0732  0.0328  0.0739
  244loPI   GL1 3893  13.121   8.401  10.293 -0.2763 -0.2153  0.1224
  244loPI   GL2 3894  13.269   8.072  10.335  0.1976 -0.5227 -0.2660
  244loPI   C1A 3895  13.180   8.285   9.832  0.2302 -0.0685  0.2437
  244loPI   C2A 3896  13.337   8.253   9.332  0.0574  0.0915 -0.0942
  244loPI   C3A 3897  13.174   8.217   8.936  0.0088  0.1830 -0.2282
  244loPI   C4A 3898  12.962   8.299   8.507 -0.0633 -0.2163 -0.0365
  244loPI   C5A 3899  12.913   8.490   8.097  0.0658  0.0078  0.1119
  244loPI   C6A 3900  12.670   8.881   8.071 -0.0270 -0.1713  0.1463
  244loPI   C1B 3901  13.301   7.775   9.955 -0.1737  0.3291 -0.1315
  244loPI   C2B 3902  13.283   7.711   9.556 -0.2420 -0.2096  0.0886
  244loPI   C3B 3903  13.266   7.732   9.123 -0.1209  0.0654  0.1863
  244loPI   C4B 3904  13.189   7.715   8.682  0.4372  0.0074  0.1312
  245loPI    C1 3905   0.139   4.156  11.030  0.1490 -0.1590  0.0117
  245loPI    C2 3906   0.374   4.251  11.339  0.1039  0.1320 -0.0407
  245loPI    C3 3907  -0.010   4.363  11.338  0.0422 -0.0758 -0.0951
  245loPI   PO4 3908   0.209   4.381  10.859 -0.3740 -0.2299  0.1440
  245loPI   GL1 3909   0.156   4.729  10.560  0.1786 -0.2554 -0.1260
  245loPI   GL2 3910   0.192   5.013  10.509 -0.2574  0.1012 -0.0798
  245loPI   C1A 3911   0.286   4.541  10.202  0.1474 -0.2746  0.2100
  245loPI   C2A 3912   0.203   4.592   9.741 -0.0071  0.0307 -0.1741
  245loPI   C3A 3913   0.208   4.645   9.281 -0.1826 -0.0708  0.1742
  245loPI   C4A 3914   0.126   4.622   8.779 -0.0111 -0.3205  0.1074
  245loPI   C5A 3915  -0.044   4.888   8.439  0.2191  0.1723 -0.1137
  245loPI   C6A 3916  -0.156   5.289   8.331  0.0357 -0.1303 -0.3573
  245loPI   C1B 3917   0.192   5.057  10.049  0.1518 -0.0683 -0.0675
  245loPI   C2B 3918   0.213   5.204   9.731 -0.2627 -0.0388  0.1306
  245loPI   C3B 3919   0.102   5.089   9.396 -0.2164  0.1634  0.1330
  245loPI   C4B 3920   0.080   5.114   8.897  0.1272 -0.1690  0.0431
  246loPI    C1 3921  12.239   5.559  11.365  0.0636  0.0777  0.2368
  246loPI    C2 3922  12.171   5.919  11.525  0.1437  0.2308 -0.0645
  246loPI    C3 3923  12.507   5.721  11.614  0.3124  0.4318 -0.2420
  246loPI   PO4 3924  12.248   5.572  11.170 -0.4646  0.0771  0.2557
  246loPI   GL1 3925  12.345   5.650  10.753  0.2303 -0.1756  0.1253
  246loPI   GL2 3926  12.091   5.761  10.511 -0.2661 -0.1090  0.0699
  246loPI   C1A 3927  12.596   5.557  10.401  0.1617  0.0544  0.1078
  246loPI   C2A 3928  12.545   5.532   9.959  0.0494 -0.0223  0.1749
  246loPI   C3A 3929  12.688   5.481   9.513 -0.1622 -0.0679 -0.1293
  246loPI   C4A 3930  12.555   5.515   9.102  0.0449 -0.0433 -0.3699
  246loPI   C5A 3931  12.559   5.537   8.677  0.0084  0.0101 -0.0880
  246loPI   C6A 3932  12.668   5.587   8.235 -0.3728  0.0783 -0.0624
  246loPI   C1B 3933  12.118   5.760  10.067 -0.0625  0.1730 -0.0431
  246loPI   C2B 3934  12.136   5.725   9.640 -0.1235 -0.3261  0.0465
  246loPI   C3B 3935  12.104   5.771   9.196  0.0910  0.1630 -0.1019
  246loPI   C4B 3936  12.083   5.762   8.833  0.0087  0.1324  0.1759
  247loPI    C1 3937   8.669   2.558  10.990 -0.1943  0.1406  0.1879
  247loPI    C2 3938   8.864   2.366  11.282  0.1643  0.2024 -0.0052
  247loPI    C3 3939   8.506   2.235  11.160  0.1143  0.0426  0.3043
  247loPI   PO4 3940   8.808   2.552  10.783  0.2220 -0.1303  0.2189
  247loPI   GL1 3941   8.950   2.680  10.417 -0.0616  0.0136 -0.0413
  247loPI   GL2 3942   8.966   2.579  10.218  0.0876 -0.1723 -0.0090
  247loPI   C1A 3943   8.895   3.122  10.129  0.0755  0.1779 -0.2837
  247loPI   C2A 3944   8.914   3.211   9.701 -0.0585 -0.0578  0.0894
  247loPI   C3A 3945   8.952   3.162   9.313 -0.0798  0.1565 -0.2076
  247loPI   C4A 3946   8.907   3.025   8.928 -0.1680  0.0992 -0.0576
  247loPI   C5A 3947   8.805   3.047   8.461  0.1986  0.1821  0.3904
  247loPI   C6A 3948   8.816   2.828   8.083 -0.0020 -0.1828  0.0759
  247loPI   C1B 3949   8.982   2.640   9.812 -0.1780  0.5903  0.0588
  247loPI   C2B 3950   8.980   2.678   9.417 -0.2002  0.0376 -0.0868
  247loPI   C3B 3951   8.911   2.475   8.913 -0.1091 -0.0871  0.0234
  247loPI   C4B 3952   8.891   2.447   8.553  0.0431 -0.1913  0.3581
  248loPI    C1 3953  12.165  10.613  11.030 -0.0251 -0.0023 -0.0677
  248loPI    C2 3954  12.231  10.692  11.417 -0.0139  0.1515 -0.1006
  248loPI    C3 3955  12.518  10.522  11.196 -0.0466 -0.0057 -0.0235
  248loPI   PO4 3956  12.128  10.776  10.897  0.2210  0.0994 -0.2230
  248loPI   GL1 3957  11.793  10.805  10.479 -0.0818 -0.0189 -0.3528
  248loPI   GL2 3958  12.082  10.789  10.400 -0.2481  0.1758 -0.1771
  248loPI   C1A 3959  11.812  10.687  10.042  0.0245  0.3497  0.1967
  248loPI   C2A 3960  11.870  10.690   9.633  0.1722 -0.2809 -0.1499
  248loPI   C3A 3961  11.884  10.712   9.220 -0.0369  0.0422  0.1305
  248loPI   C4A 3962  11.880  10.811   8.813 -0.0410  0.1754  0.0864
  248loPI   C5A 3963  11.766  10.979   8.286  0.0514  0.0124 -0.1544
  248loPI   C6A 3964  11.995  11.033   7.922  0.0350 -0.1507 -0.0194
  248loPI   C1B 3965  12.216  11.004   9.967  0.1584  0.0294  0.2857
  248loPI   C2B 3966  12.199  11.078   9.439  0.1361 -0.0049  0.0967
  248loPI   C3B 3967  12.310  11.036   8.969 -0.1715 -0.1726 -0.3134
  248loPI   C4B 3968  12.258  11.076   8.511  0.2001 -0.1506  0.1436
  249loPI    C1 3969  10.210   7.842  11.023  0.0632 -0.0103 -0.0432
  249loPI    C2 3970  10.579   7.833  11.176  0.0870  0.0183 -0.0986
  249loPI    C3 3971  10.334   7.521  11.228  0.0450  0.0859  0.1196
  249loPI   PO4 3972  10.335   7.930  10.745  0.2382  0.0128 -0.3923
  249loPI   GL1 3973  10.244   8.089  10.336 -0.0361 -0.2479  0.0974
  249loPI   GL2 3974  10.555   8.054  10.322 -0.2207  0.0700 -0.0339
  249loPI   C1A 3975   9.979   8.026   9.903 -0.0534 -0.0514 -0.2485
  249loPI   C2A 3976   9.975   8.092   9.437  0.3204 -0.2655  0.0552
  249loPI   C3A 3977  10.003   8.202   9.030 -0.2986  0.1646 -0.2077
  249loPI   C4A 3978   9.729   8.330   8.582  0.2214  0.0666 -0.0239
  249loPI   C5A 3979   9.351   8.282   8.382  0.0363  0.0078 -0.1591
  249loPI   C6A 3980   9.121   8.430   8.087 -0.0378  0.2520  0.2780
  249loPI   C1B 3981  10.479   7.827  10.000  0.0665 -0.1916 -0.1945
  249loPI   C2B 3982  10.414   7.868   9.669 -0.1416 -0.3175  0.1478
  249loPI   C3B 3983  10.466   7.880   9.259  0.1788  0.1055 -0.1759
  249loPI   C4B 3984  10.467   7.996   8.821 -0.1116 -0.0956  0.0374
  250loPI    C1 3985  16.350   8.131  10.854  0.2948  0.2215 -0.0131
  250loPI    C2 3986  16.197   7.932  11.165  0.1855  0.0053 -0.2018
  250loPI    C3 3987  16.372   8.287  11.221  0.3033 -0.1008  0.1271
  250loPI   PO4 3988  16.374   7.876  10.584 -0.1476 -0.1893 -0.0054
  250loPI   GL1 3989  16.284   7.656  10.251  0.0417 -0.3067 -0.0665
  250loPI   GL2 3990  16.119   7.449  10.373 -0.1169 -0.0024  0.1728
  250loPI   C1A 3991  16.362   7.763   9.745  0.1158 -0.0564 -0.0907
  250loPI   C2A 3992  16.395   7.863   9.315 -0.0936  0.2421 -0.3842
  250loPI   C3A 3993  16.370   7.876   8.879 -0.2838  0.2419 -0.0310
  250loPI   C4A 3994  16.251   7.801   8.459 -0.0477 -0.1285 -0.2558
  250loPI   C5A 3995  16.115   7.504   8.204  0.0687 -0.2474  0.2553
  250loPI   C6A 3996  16.458   7.411   7.806 -0.0194  0.0751  0.0060
  250loPI   C1B 3997  16.005   7.491   9.917 -0.1016 -0.2645  0.1646
  250loPI   C2B 3998  16.012   7.482   9.478 -0.3486  0.1543 -0.0575
  250loPI   C3B 3999  16.006   7.566   9.034  0.0800  0.0661 -0.0627
  250loPI   C4B 4000  15.885   7.515   8.654 -0.0201 -0.2118  0.0467
  251loPI    C1 4001   3.167  14.994  11.023  0.0300  0.4330 -0.0651
  251loPI    C2 4002   3.042  15.273  11.281 -0.1290  0.2104  0.1025
  251loPI    C3 4003   3.264  14.968  11.410 -0.5345 -0.1141  0.0553
  251loPI   PO4 4004   3.169  15.209  10.726 -0.1254  0.2271 -0.0621
  251loPI   GL1 4005   3.401  15.475  10.502  0.0272  0.0317  0.2371
  251loPI   GL2 4006   3.085  15.703  10.514 -0.2073  0.1923  0.2330
  251loPI   C1A 4007   3.692  15.479  10.199  0.0838  0.1895  0.0481
  251loPI   C2A 4008   3.786  15.445   9.830  0.2170 -0.0675  0.0906
  251loPI   C3A 4009   3.831  15.455   9.418  0.1285 -0.1359  0.2160
  251loPI   C4A 4010   3.749  15.371   8.987  0.0677  0.2141 -0.1552
  251loPI   C5A 4011   3.791  15.340   8.529  0.1847  0.0036  0.1166
  251loPI   C6A 4012   3.803  15.644   8.094 -0.3618  0.2062 -0.1742
  251loPI   C1B 4013   3.251  15.706  10.087  0.3184 -0.0079 -0.1246
  251loPI   C2B 4014   3.387  15.683   9.637 -0.0447 -0.0580 -0.2106
  251loPI   C3B 4015   3.394  15.637   9.232  0.0647 -0.0911 -0.3106
  251loPI   C4B 4016   3.194  15.619   8.785 -0.1911  0.1254  0.0150
  252loPI    C1 4017  10.144  15.255  10.874  0.1079  0.0366 -0.0777
  252loPI    C2 4018  10.247  15.636  10.939 -0.1880  0.1148 -0.0534
  252loPI    C3 4019   9.862  15.529  10.949 -0.0917 -0.2269  0.1556
  252loPI   PO4 4020  10.337  15.232  10.617 -0.2468 -0.0547 -0.1430
  252loPI   GL1 4021  10.294  15.127  10.189  0.2910  0.1125  0.0888
  252loPI   GL2 4022  10.617  15.000  10.167  0.1074  0.1741 -0.2016
  252loPI   C1A 4023  10.133  15.078   9.757 -0.1963 -0.2132 -0.0885
  252loPI   C2A 4024  10.139  15.036   9.417  0.1687  0.0753  0.0111
  252loPI   C3A 4025  10.301  15.032   9.050 -0.0966  0.1020 -0.2067
  252loPI   C4A 4026  10.260  15.049   8.591 -0.0664  0.0985 -0.0534
  252loPI   C5A 4027  10.185  14.879   8.149  0.0903 -0.1009 -0.3589
  252loPI   C6A 4028  10.130  15.063   7.788 -0.1165  0.2023 -0.2945
  252loPI   C1B 4029  10.573  14.805   9.842  0.4361  0.2888 -0.1327
  252loPI   C2B 4030  10.744  14.795   9.534 -0.1363  0.0230  0.1499
  252loPI   C3B 4031  10.814  14.836   9.085  0.0065 -0.0944  0.1254
  252loPI   C4B 4032  10.746  14.813   8.666 -0.0281 -0.0914  0.0159
  253loPI    C1 4033   7.874  11.671  10.692  0.2574 -0.0712 -0.0871
  253loPI    C2 4034   7.925  11.376  10.957  0.0424 -0.0706 -0.0432
  253loPI    C3 4035   7.635  11.645  11.011 -0.0082 -0.0742 -0.2830
  253loPI   PO4 4036   7.759  11.597  10.509 -0.1409  0.2621 -0.2081
  253loPI   GL1 4037   8.039  11.442  10.266  0.0899  0.0914 -0.1963
  253loPI   GL2 4038   7.985  11.150  10.137 -0.0599 -0.2090  0.2261
  253loPI   C1A 4039   8.075  11.647   9.926  0.0123  0.1803  0.2689
  253loPI   C2A 4040   8.067  11.869   9.519  0.3215  0.1351 -0.3515
  253loPI   C3A 4041   8.145  11.862   9.179 -0.2235 -0.0173  0.1699
  253loPI   C4A 4042   8.284  11.881   8.763  0.0399 -0.1340 -0.1525
  253loPI   C5A 4043   8.233  11.890   8.295  0.0883  0.0983 -0.1180
  253loPI   C6A 4044   8.346  12.088   7.860 -0.0822 -0.2448 -0.0409
  253loPI   C1B 4045   8.250  11.233   9.735 -0.0064 -0.0322 -0.1270
  253loPI   C2B 4046   8.200  11.359   9.268 -0.3959  0.2578  0.0087
  253loPI   C3B 4047   8.152  11.364   8.905 -0.1157  0.1895 -0.0466
  253loPI   C4B 4048   8.299  11.416   8.557  0.2879 -0.0910 -0.2932
  254loPI    C1 4049   2.300  11.844  10.929 -0.0487  0.1989 -0.0660
  254loPI    C2 4050   2.125  11.904  11.283  0.1104  0.0777  0.0345
  254loPI    C3 4051   2.482  11.725  11.265  0.1133  0.1037 -0.1861
  254loPI   PO4 4052   2.138  11.725  10.795  0.1413 -0.1477  0.0910
  254loPI   GL1 4053   1.942  11.665  10.484 -0.0701 -0.1285 -0.2063
  254loPI   GL2 4054   1.656  11.680  10.571  0.0751 -0.0999  0.1185
  254loPI   C1A 4055   2.152  11.628  10.166  0.0108 -0.0718 -0.0537
  254loPI   C2A 4056   2.198  11.603   9.784  0.1702  0.1248 -0.0027
  254loPI   C3A 4057   2.287  11.568   9.292 -0.2369  0.2190 -0.1737
  254loPI   C4A 4058   2.270  11.508   8.945  0.2693 -0.0455 -0.2060
  254loPI   C5A 4059   2.322  11.411   8.591  0.0414  0.1015  0.0390
  254loPI   C6A 4060   2.332  11.111   8.326  0.0919 -0.0461 -0.1910
  254loPI   C1B 4061   1.355  11.562  10.231  0.0663 -0.2970  0.1708
  254loPI   C2B 4062   1.319  11.513   9.812 -0.0957 -0.2497 -0.0016
  254loPI   C3B 4063   1.292  11.452   9.361  0.2241 -0.0886  0.1503
  254loPI   C4B 4064   1.330  11.425   8.813 -0.1424  0.0853 -0.0528
  255loPI    C1 4065  16.836   8.258  10.596  0.1478 -0.1320  0.1044
  255loPI    C2 4066  16.781   8.007  10.902 -0.3368 -0.1020  0.0509
  255loPI    C3 4067  16.734   8.400  10.956  0.0949 -0.0464  0.0559
  255loPI   PO4 4068  16.696   8.217  10.422  0.1672 -0.1212 -0.0192
  255loPI   GL1 4069  16.710   8.024  10.086  0.0199 -0.1872 -0.2464
  255loPI   GL2 4070  16.863   7.730   9.915  0.2105  0.1299  0.0962
  255loPI   C1A 4071  16.788   8.112   9.611 -0.1040  0.2774 -0.0359
  255loPI   C2A 4072  16.797   8.139   9.183  0.0443 -0.1008  0.2439
  255loPI   C3A 4073  16.890   8.132   8.753 -0.0777 -0.2701  0.0138
  255loPI   C4A 4074  17.228   7.980   8.431 -0.0571  0.1804  0.1170
  255loPI   C5A 4075  17.523   7.708   8.209  0.0211  0.0454 -0.2531
  255loPI   C6A 4076  17.963   7.598   8.284 -0.1589  0.0930  0.0223
  255loPI   C1B 4077  16.822   7.629   9.492  0.2226  0.0120  0.0750
  255loPI   C2B 4078  16.860   7.665   9.031 -0.0775 -0.1879  0.0553
  255loPI   C3B 4079  16.773   7.640   8.611  0.0947  0.0109  0.1956
  255loPI   C4B 4080  16.711   7.514   8.236  0.1587  0.1377  0.2310
  256loPI    C1 4081   2.701  14.922  10.828 -0.1968  0.2440  0.1466
  256loPI    C2 4082   2.480  14.658  11.032  0.0326  0.0708  0.1755
  256loPI    C3 4083   2.653  14.964  11.223 -0.1489  0.1858  0.1588
  256loPI   PO4 4084   2.671  14.899  10.512 -0.1094  0.2842  0.1181
  256loPI   GL1 4085   2.871  15.070  10.296 -0.1093 -0.0623  0.1160
  256loPI   GL2 4086   2.977  15.327  10.231  0.2299 -0.1131  0.2158
  256loPI   C1A 4087   2.920  14.859   9.964  0.1502 -0.0549  0.1363
  256loPI   C2A 4088   2.809  14.770   9.522 -0.1387 -0.0974 -0.3238
  256loPI   C3A 4089   2.772  14.799   9.026 -0.1333  0.2324  0.0173
  256loPI   C4A 4090   2.802  14.855   8.568  0.1832  0.0949  0.2210
  256loPI   C5A 4091   2.586  14.934   8.197 -0.0747 -0.1583  0.2195
  256loPI   C6A 4092   2.518  15.264   7.876  0.2122 -0.2953  0.0033
  256loPI   C1B 4093   2.810  15.358   9.870  0.0394  0.0552 -0.1756
  256loPI   C2B 4094   2.908  15.274   9.465  0.1668 -0.0931 -0.0134
  256loPI   C3B 4095   2.717  15.301   9.076 -0.0875 -0.0619 -0.1163
  256loPI   C4B 4096   2.649  15.321   8.620 -0.1442  0.1260  0.1344
  257loPI    C1 4097  11.214  13.183  10.675 -0.0711 -0.4260  0.3287
  257loPI    C2 4098  11.013  13.065  11.001  0.1255  0.0942  0.6514
  257loPI    C3 4099  11.162  13.436  10.981 -0.1672  0.1888 -0.1756
  257loPI   PO4 4100  11.144  13.036  10.429 -0.0398 -0.0227 -0.0022
  257loPI   GL1 4101  11.327  13.098  10.029 -0.1120 -0.0939  0.0468
  257loPI   GL2 4102  11.628  13.012  10.115  0.1726  0.1981  0.1553
  257loPI   C1A 4103  11.289  13.086   9.547  0.4798 -0.0679 -0.0122
  257loPI   C2A 4104  11.356  12.974   9.141  0.0478 -0.0698  0.0744
  257loPI   C3A 4105  11.428  13.062   8.707 -0.0091 -0.0654 -0.1368
  257loPI   C4A 4106  11.407  13.178   8.254  0.2149 -0.1421  0.2077
  257loPI   C5A 4107  11.670  13.098   7.988 -0.2372  0.1984  0.0618
  257loPI   C6A 4108  11.791  12.818   7.671  0.1357 -0.2278  0.1752
  257loPI   C1B 4109  11.651  12.773   9.792  0.1549  0.0580 -0.2938
  257loPI   C2B 4110  11.710  12.716   9.323  0.1050 -0.2082  0.0543
  257loPI   C3B 4111  11.830  12.860   8.961 -0.1663 -0.1582  0.0033
  257loPI   C4B 4112  11.861  12.969   8.493 -0.0540  0.0056  0.0250
  258loPI    C1 4113  16.120   2.338  11.339  0.0276 -0.0664 -0.0798
  258loPI    C2 4114  15.911   2.675  11.288  0.0080 -0.0799 -0.0890
  258loPI    C3 4115  15.790   2.403  11.555  0.1380  0.0137  0.0671
  258loPI   PO4 4116  16.157   2.303  11.090 -0.1715 -0.0373 -0.0062
  258loPI   GL1 4117  16.234   2.275  10.656  0.1395  0.3878 -0.0206
  258loPI   GL2 4118  16.592   2.259  10.721  0.2892 -0.0815  0.0869
  258loPI   C1A 4119  16.158   2.062  10.239  0.0052  0.0610  0.0119
  258loPI   C2A 4120  16.164   2.015   9.814  0.0625 -0.0229 -0.1826
  258loPI   C3A 4121  16.164   1.999   9.330  0.1006  0.0820  0.2200
  258loPI   C4A 4122  16.121   2.120   8.881 -0.4647 -0.0837 -0.1082
  258loPI   C5A 4123  16.208   2.160   8.403  0.2018  0.1646 -0.1988
  258loPI   C6A 4124  16.181   2.245   7.945  0.1680  0.2471  0.0667
  258loPI   C1B 4125  16.619   2.472  10.475  0.1698  0.1125 -0.1804
  258loPI   C2B 4126  16.590   2.357  10.076  0.0218  0.0595  0.0531
  258loPI   C3B 4127  16.596   2.323   9.632  0.1327  0.1428  0.2527
  258loPI   C4B 4128  16.594   2.393   9.232 -0.3000  0.0823 -0.2800
  259loPI    C1 4129  16.295  17.504  10.986 -0.0610  0.0915  0.1085
  259loPI    C2 4130  16.294  17.436  11.380  0.0620 -0.0195  0.0904
  259loPI    C3 4131  16.268  17.130  11.124  0.1778  0.0362  0.0110
  259loPI   PO4 4132  16.135  17.707  10.983  0.1130  0.2045  0.0146
  259loPI   GL1 4133  16.136  17.817  10.620 -0.2157 -0.3860 -0.0995
  259loPI   GL2 4134  16.379  18.050  10.588  0.0074  0.2524 -0.3574
  259loPI   C1A 4135  16.266  17.535  10.340  0.0205 -0.0631  0.1737
  259loPI   C2A 4136  16.280  17.521  10.001  0.1574 -0.1466  0.0471
  259loPI   C3A 4137  16.415  17.585   9.591  0.0412 -0.3649  0.0922
  259loPI   C4A 4138  16.454  17.751   9.127  0.1870 -0.0199  0.3101
  259loPI   C5A 4139  16.637  17.695   8.782  0.0172  0.1422 -0.1292
  259loPI   C6A 4140  16.876  17.720   8.419  0.0816  0.0914  0.1070
  259loPI   C1B 4141  16.428  17.980  10.182 -0.0100  0.2623 -0.0615
  259loPI   C2B 4142  16.556  17.980   9.863 -0.1545  0.2084  0.0398
  259loPI   C3B 4143  16.739  17.983   9.391  0.1304  0.0223  0.1070
  259loPI   C4B 4144  16.889  18.032   8.990  0.1785  0.0260  0.0706
  260loPI    C1 4145   1.033   4.656  11.304 -0.3110  0.2069  0.0285
  260loPI    C2 4146   1.349   4.657  11.549 -0.2468 -0.0343 -0.0510
  260loPI    C3 4147   1.015   4.852  11.652 -0.1276  0.0901  0.1049
  260loPI   PO4 4148   1.096   4.632  11.072  0.1954  0.0578 -0.0583
  260loPI   GL1 4149   1.200   4.740  10.706 -0.3294 -0.0933 -0.1122
  260loPI   GL2 4150   1.150   4.319  10.695 -0.4083 -0.0910 -0.1950
  260loPI   C1A 4151   1.186   4.689  10.346  0.3815  0.1932 -0.1772
  260loPI   C2A 4152   1.190   4.702   9.890 -0.0236 -0.1109 -0.0983
  260loPI   C3A 4153   1.045   4.705   9.570 -0.0502 -0.0478  0.2200
  260loPI   C4A 4154   1.063   4.766   9.054 -0.0046 -0.1101  0.3673
  260loPI   C5A 4155   1.017   4.526   8.673  0.1550  0.3505 -0.1306
  260loPI   C6A 4156   1.166   4.060   8.576 -0.0187 -0.1521  0.4313
  260loPI   C1B 4157   1.238   4.080  10.330  0.1385 -0.1514  0.3645
  260loPI   C2B 4158   1.213   4.180   9.934 -0.0639  0.0229  0.2020
  260loPI   C3B 4159   1.175   4.188   9.494 -0.4199 -0.0575 -0.1053
  260loPI   C4B 4160   1.100   4.185   9.066 -0.1671  0.0613 -0.2149
  261loPI    C1 4161  16.977   3.457  11.391 -0.2104  0.2380 -0.0328
  261loPI    C2 4162  16.700   3.708  11.532 -0.1969  0.1200  0.2097
  261loPI    C3 4163  16.993   3.580  11.771 -0.0333  0.1045  0.0043
  261loPI   PO4 4164  17.018   3.587  11.147 -0.1255  0.0486 -0.1443
  261loPI   GL1 4165  17.362   3.467  10.906  0.3037 -0.0260 -0.0086
  261loPI   GL2 4166  17.165   3.752  10.679  0.0823  0.2459 -0.3557
  261loPI   C1A 4167  17.457   3.457  10.462 -0.0612 -0.1174 -0.2342
  261loPI   C2A 4168  17.409   3.570  10.081 -0.1980 -0.0891 -0.0130
  261loPI   C3A 4169  17.255   3.461   9.637 -0.0424  0.0005  0.1907
  261loPI   C4A 4170  17.293   3.482   9.182 -0.0554 -0.1529 -0.2550
  261loPI   C5A 4171  17.263   3.589   8.745 -0.2278  0.0683 -0.1131
  261loPI   C6A 4172  17.265   3.442   8.369 -0.1174  0.0171  0.0874
  261loPI   C1B 4173  16.935   3.680  10.396 -0.2097 -0.0520  0.0804
  261loPI   C2B 4174  16.917   3.662  10.015  0.0864  0.1152 -0.1758
  261loPI   C3B 4175  16.805   3.713   9.614 -0.0122 -0.1437 -0.1355
  261loPI   C4B 4176  16.806   3.701   9.210  0.0978 -0.2524 -0.0067
  262loPI    C1 4177  11.093   4.333  11.221  0.0214  0.0417 -0.1724
  262loPI    C2 4178  10.933   3.980  11.321  0.3234 -0.0243  0.0955
  262loPI    C3 4179  11.093   4.214  11.603  0.3000  0.2412 -0.1073
  262loPI   PO4 4180  10.950   4.404  10.990 -0.3036  0.0183 -0.5247
  262loPI   GL1 4181  10.846   4.327  10.614  0.2709  0.0715 -0.2817
  262loPI   GL2 4182  10.522   4.432  10.635 -0.1864  0.2276  0.1652
  262loPI   C1A 4183  10.922   4.288  10.260 -0.1241  0.0826  0.1814
  262loPI   C2A 4184  11.029   4.287   9.777  0.0857  0.0761 -0.1225
  262loPI   C3A 4185  11.033   4.228   9.350 -0.0116 -0.0934  0.2862
  262loPI   C4A 4186  10.916   4.269   8.949  0.0930  0.2632 -0.2311
  262loPI   C5A 4187  10.596   4.219   8.636 -0.1783  0.1858  0.2999
  262loPI   C6A 4188  10.381   4.118   8.184  0.2346  0.1641 -0.1436
  262loPI   C1B 4189  10.430   4.458  10.224 -0.1226 -0.1735 -0.1265
  262loPI   C2B 4190  10.533   4.403   9.777  0.1553 -0.0491 -0.2258
  262loPI   C3B 4191  10.590   4.416   9.366  0.2195  0.0304 -0.0330
  262loPI   C4B 4192  10.452   4.536   8.989  0.3315 -0.2211  0.2336
  263loPI    C1 4193   4.602   3.718  11.265  0.1366  0.0575  0.1359
  263loPI    C2 4194   4.591   4.074  11.446 -0.1144  0.1006  0.0401
  263loPI    C3 4195   4.357   3.778  11.576 -0.0918  0.0474 -0.0397
  263loPI   PO4 4196   4.710   3.761  10.936  0.0924 -0.0043  0.0925
  263loPI   GL1 4197   4.677   3.946  10.622 -0.0353  0.3924  0.2561
  263loPI   GL2 4198   4.380   4.142  10.617 -0.4155  0.1861 -0.1389
  263loPI   C1A 4199   4.795   3.931  10.212  0.0013 -0.0316 -0.3168
  263loPI   C2A 4200   4.762   3.954   9.681  0.1808  0.0726 -0.3093
  263loPI   C3A 4201   4.788   3.933   9.331  0.1607 -0.1017 -0.0818
  263loPI   C4A 4202   4.809   3.970   8.960 -0.0738  0.2042 -0.0674
  263loPI   C5A 4203   4.540   3.817   8.594  0.0672  0.1864  0.0173
  263loPI   C6A 4204   4.509   3.958   8.072 -0.0703 -0.2327  0.3991
  263loPI   C1B 4205   4.309   4.156  10.262 -0.1740  0.2135 -0.0426
  263loPI   C2B 4206   4.357   4.108   9.891  0.3049 -0.1197  0.0758
  263loPI   C3B 4207   4.271   4.135   9.478  0.1522  0.0662  0.3010
  263loPI   C4B 4208   4.293   4.206   8.930  0.0034  0.0905  0.2904
  264loPI    C1 4209  16.625   1.690  11.161 -0.3770 -0.1878  0.0574
  264loPI    C2 4210  16.545   2.059  11.293 -0.1851 -0.1686  0.1234
  264loPI    C3 4211  16.782   1.817  11.506  0.0702 -0.1629 -0.1493
  264loPI   PO4 4212  16.633   1.776  10.880 -0.2288  0.1179  0.2689
  264loPI   GL1 4213  16.466   1.817  10.518  0.1798 -0.1601 -0.0710
  264loPI   GL2 4214  16.186   1.600  10.529 -0.2767 -0.0285 -0.0938
  264loPI   C1A 4215  16.567   1.814  10.060 -0.3189 -0.3562 -0.0741
  264loPI   C2A 4216  16.603   1.727   9.696  0.1405 -0.1830  0.0098
  264loPI   C3A 4217  16.651   1.915   9.374  0.1029 -0.1116 -0.1824
  264loPI   C4A 4218  16.594   1.906   8.920  0.0695 -0.1559  0.1915
  264loPI   C5A 4219  16.400   1.699   8.489 -0.0425  0.0683  0.1386
  264loPI   C6A 4220  16.161   1.762   8.127 -0.1721 -0.3033  0.1433
  264loPI   C1B 4221  16.138   1.542  10.071 -0.0998 -0.1529 -0.2771
  264loPI   C2B 4222  16.156   1.521   9.675  0.0962 -0.2251 -0.1636
  264loPI   C3B 4223  16.333   1.557   9.275 -0.1831  0.2714  0.0055
  264loPI   C4B 4224  16.122   1.656   8.880 -0.0729  0.4822  0.0918
  265loPI    C1 4225   1.384   5.845  11.300 -0.0729  0.1404  0.0727
  265loPI    C2 4226   0.994   5.916  11.349 -0.0822  0.0488  0.1323
  265loPI    C3 4227   1.139   5.547  11.403  0.0008  0.0670  0.0369
  265loPI   PO4 4228   1.337   5.949  10.979  0.0140 -0.1166 -0.3120
  265loPI   GL1 4229   1.530   5.783  10.645  0.3168  0.1318 -0.1442
  265loPI   GL2 4230   1.168   5.848  10.457  0.0485  0.2475  0.2694
  265loPI   C1A 4231   1.551   5.488  10.279  0.0502  0.1838  0.1116
  265loPI   C2A 4232   1.464   5.423   9.888  0.1730  0.0875  0.1474
  265loPI   C3A 4233   1.406   5.532   9.523  0.1232  0.2844 -0.2480
  265loPI   C4A 4234   1.386   5.487   9.116 -0.0292 -0.1229 -0.3234
  265loPI   C5A 4235   1.496   5.478   8.767 -0.1667 -0.1989  0.0610
  265loPI   C6A 4236   1.318   5.697   8.313 -0.2055  0.0703  0.3031
  265loPI   C1B 4237   1.056   5.678   9.999  0.2360 -0.0367  0.2171
  265loPI   C2B 4238   1.020   5.788   9.567 -0.1780  0.2455 -0.3795
  265loPI   C3B 4239   0.902   5.721   9.120 -0.0529  0.1660  0.1572
  265loPI   C4B 4240   0.909   5.744   8.692 -0.0404  0.2173 -0.0651
  266loPI    C1 4241   8.578   0.663  10.756  0.0903  0.1737  0.2360
  266loPI    C2 4242   8.551   0.286  10.888  0.0967  0.0377 -0.1410
  266loPI    C3 4243   8.386   0.584  11.098 -0.2429 -0.2210 -0.0335
  266loPI   PO4 4244   8.771   0.699  10.685  0.3480 -0.0931  0.2695
  266loPI   GL1 4245   8.787   0.364  10.381  0.1354 -0.1035  0.2047
  266loPI   GL2 4246   8.517   0.641  10.279  0.1204  0.1729 -0.1705
  266loPI   C1A 4247   8.718   0.341   9.954  0.3787  0.0693  0.4069
  266loPI   C2A 4248   8.724   0.212   9.546 -0.0016 -0.2286  0.1621
  266loPI   C3A 4249   8.674   0.265   9.128  0.0887  0.1936  0.1491
  266loPI   C4A 4250   8.801   0.205   8.714  0.0416  0.0605  0.0711
  266loPI   C5A 4251   8.811   0.215   8.291  0.4602 -0.1463 -0.1761
  266loPI   C6A 4252   8.763  -0.223   8.074 -0.0450  0.0883  0.1532
  266loPI   C1B 4253   8.624   0.875   9.885  0.2058  0.0792 -0.2175
  266loPI   C2B 4254   8.684   0.702   9.513  0.0811  0.2447 -0.0059
  266loPI   C3B 4255   8.604   0.799   9.101 -0.0346 -0.0211  0.4602
  266loPI   C4B 4256   8.729   0.741   8.622 -0.0840  0.0789 -0.0024
  267loPI    C1 4257   3.347   1.660  11.374 -0.0912 -0.1602 -0.1631
  267loPI    C2 4258   3.167   1.330  11.239 -0.2220 -0.1554 -0.0029
  267loPI    C3 4259   3.195   1.395  11.632  0.2357 -0.2142 -0.0211
  267loPI   PO4 4260   3.509   1.662  11.224 -0.2727  0.1033  0.1003
  267loPI   GL1 4261   3.518   1.830  10.759  0.1519 -0.0135 -0.0457
  267loPI   GL2 4262   3.629   1.963  10.583  0.0815 -0.1287 -0.1919
  267loPI   C1A 4263   3.279   1.695  10.310 -0.0383 -0.0032  0.1817
  267loPI   C2A 4264   3.146   1.771   9.930  0.2542 -0.0561 -0.0400
  267loPI   C3A 4265   3.128   1.722   9.456 -0.0271  0.1739  0.1620
  267loPI   C4A 4266   3.231   1.709   9.034 -0.1411  0.0726  0.0432
  267loPI   C5A 4267   3.161   1.889   8.551 -0.0263  0.1794 -0.0285
  267loPI   C6A 4268   3.461   2.010   8.278 -0.4843  0.0142  0.0225
  267loPI   C1B 4269   3.599   2.002  10.128  0.0712  0.1031 -0.4499
  267loPI   C2B 4270   3.656   1.954   9.709 -0.2043 -0.0406 -0.2321
  267loPI   C3B 4271   3.683   2.072   9.303 -0.1675  0.2363  0.2364
  267loPI   C4B 4272   3.611   2.043   8.879  0.1023  0.2260 -0.0634
  268loPI    C1 4273   0.468   9.595  11.236 -0.0227  0.1544 -0.0572
  268loPI    C2 4274   0.626   9.289  11.439 -0.0264  0.1484 -0.0633
  268loPI    C3 4275   0.252   9.407  11.515 -0.0991  0.0152 -0.2081
  268loPI   PO4 4276   0.557   9.647  10.971  0.2812  0.3039  0.1212
  268loPI   GL1 4277   0.604   9.810  10.526  0.1473  0.2060  0.1689
  268loPI   GL2 4278   0.621   9.534  10.445  0.0527 -0.0303  0.2279
  268loPI   C1A 4279   0.577   9.911  10.077  0.2097 -0.1128 -0.0356
  268loPI   C2A 4280   0.679   9.945   9.686  0.2794  0.3328 -0.2128
  268loPI   C3A 4281   0.579   9.967   9.106 -0.0900  0.0805 -0.2411
  268loPI   C4A 4282   0.559   9.966   8.790  0.0916  0.2216 -0.2628
  268loPI   C5A 4283   0.685   9.937   8.391  0.4248 -0.1786 -0.1057
  268loPI   C6A 4284   1.083  10.116   8.288 -0.1659 -0.0662 -0.2045
  268loPI   C1B 4285   0.669   9.396  10.082 -0.2860  0.1158 -0.3684
  268loPI   C2B 4286   0.699   9.355   9.658 -0.1298  0.1717  0.1367
  268loPI   C3B 4287   0.626   9.459   9.142  0.0528 -0.0215 -0.0169
  268loPI   C4B 4288   0.728   9.506   8.645 -0.3187  0.1763  0.0153
  269loPI    C1 4289   5.540  12.564  10.993 -0.0027  0.2297 -0.0532
  269loPI    C2 4290   5.855  12.744  11.160  0.0568  0.0297  0.0533
  269loPI    C3 4291   5.546  12.632  11.387 -0.0108  0.0607 -0.0231
  269loPI   PO4 4292   5.496  12.652  10.800  0.0810 -0.0012 -0.0403
  269loPI   GL1 4293   5.677  12.679  10.380 -0.0099 -0.2851  0.0630
  269loPI   GL2 4294   5.378  12.896  10.358 -0.1694 -0.0516  0.0567
  269loPI   C1A 4295   5.914  12.563   9.956 -0.2494  0.1277 -0.1152
  269loPI   C2A 4296   5.891  12.520   9.506 -0.2771 -0.2519  0.0422
  269loPI   C3A 4297   5.844  12.486   9.088 -0.2502 -0.0002  0.3127
  269loPI   C4A 4298   5.811  12.433   8.614 -0.0040  0.2160  0.0747
  269loPI   C5A 4299   5.733  12.116   8.468  0.0033 -0.0102 -0.0154
  269loPI   C6A 4300   5.980  11.806   8.363  0.2443 -0.0195 -0.5023
  269loPI   C1B 4301   5.456  12.808   9.897 -0.1441 -0.1216  0.0142
  269loPI   C2B 4302   5.443  12.848   9.449  0.3516  0.0929  0.1606
  269loPI   C3B 4303   5.387  12.717   8.996  0.2521  0.1330 -0.2330
  269loPI   C4B 4304   5.367  12.667   8.508 -0.0378  0.2400 -0.0179
  270loPI    C1 4305   6.366  14.824  11.022 -0.2292 -0.0409  0.0617
  270loPI    C2 4306   6.740  14.921  11.127 -0.1618 -0.0134 -0.1979
  270loPI    C3 4307   6.616  14.541  11.156 -0.1747  0.0092  0.0663
  270loPI   PO4 4308   6.283  15.029  10.757 -0.0779  0.1956 -0.1846
  270loPI   GL1 4309   6.401  15.091  10.410 -0.1465 -0.0718  0.0614
  270loPI   GL2 4310   6.101  14.784  10.395 -0.1750 -0.1469 -0.1182
  270loPI   C1A 4311   6.614  15.246  10.040 -0.0925  0.4159 -0.4183
  270loPI   C2A 4312   6.583  15.226   9.583 -0.0244  0.3814  0.1391
  270loPI   C3A 4313   6.598  15.165   9.135 -0.2848  0.0059 -0.0036
  270loPI   C4A 4314   6.517  15.122   8.770  0.1245 -0.0705  0.0425
  270loPI   C5A 4315   6.318  14.962   8.399 -0.0218 -0.2220 -0.1132
  270loPI   C6A 4316   6.146  14.734   8.061  0.0062 -0.0267  0.2132
  270loPI   C1B 4317   6.193  14.933   9.950 -0.4501 -0.2641  0.0473
  270loPI   C2B 4318   6.140  14.886   9.544 -0.1516 -0.0905  0.0197
  270loPI   C3B 4319   6.170  14.897   9.097 -0.1287  0.0300  0.1227
  270loPI   C4B 4320   6.012  14.865   8.746 -0.0580 -0.1156  0.0298
  271loPI    C1 4321  14.552  17.587  11.424  0.0613  0.0667  0.1579
  271loPI    C2 4322  14.541  17.948  11.595  0.0446  0.1732 -0.0644
  271loPI    C3 4323  14.860  17.838  11.381  0.0694  0.0374  0.0414
  271loPI   PO4 4324  14.265  17.503  11.363  0.0035  0.1868 -0.1963
  271loPI   GL1 4325  14.044  17.501  10.951 -0.2193  0.2457 -0.2613
  271loPI   GL2 4326  14.429  17.444  10.885  0.0865  0.1239  0.2934
  271loPI   C1A 4327  14.135  17.781  10.562 -0.2909  0.1412  0.0071
  271loPI   C2A 4328  14.141  17.746  10.138  0.0172  0.0512 -0.1602
  271loPI   C3A 4329  14.194  17.813   9.721  0.0266  0.0208 -0.1353
  271loPI   C4A 4330  14.081  17.728   9.317  0.1628 -0.0124 -0.0377
  271loPI   C5A 4331  14.159  17.844   8.930 -0.2725  0.0278  0.3804
  271loPI   C6A 4332  14.109  17.810   8.546  0.0394  0.4343 -0.0662
  271loPI   C1B 4333  14.625  17.521  10.438  0.1860  0.1081  0.0429
  271loPI   C2B 4334  14.644  17.598   9.944 -0.0113 -0.1727  0.2048
  271loPI   C3B 4335  14.512  17.507   9.486  0.0246 -0.0164  0.0329
  271loPI   C4B 4336  14.601  17.561   9.073  0.0360  0.1756 -0.0269
  272loPI    C1 4337   3.925  16.889  10.876 -0.1385 -0.0033 -0.0156
  272loPI    C2 4338   4.153  16.986  11.190  0.1346 -0.3237 -0.1097
  272loPI    C3 4339   3.761  17.063  11.197  0.2646  0.3973 -0.0172
  272loPI   PO4 4340   4.048  16.955  10.644  0.1009 -0.0832  0.0772
  272loPI   GL1 4341   4.184  16.682  10.369  0.0259  0.0342  0.0756
  272loPI   GL2 4342   4.384  16.914  10.232 -0.2546 -0.0968 -0.2522
  272loPI   C1A 4343   4.009  16.709  10.004 -0.3110 -0.2881  0.1644
  272loPI   C2A 4344   4.011  16.809   9.665  0.2709 -0.1967 -0.1419
  272loPI   C3A 4345   4.037  16.799   9.223  0.2523 -0.0034 -0.1864
  272loPI   C4A 4346   4.013  16.739   8.860 -0.0410 -0.1273 -0.2804
  272loPI   C5A 4347   3.878  16.735   8.389  0.1895  0.0301  0.0945
  272loPI   C6A 4348   3.470  16.700   8.221 -0.2896  0.0387 -0.1727
  272loPI   C1B 4349   4.469  17.059   9.818 -0.2940 -0.1331  0.0178
  272loPI   C2B 4350   4.462  17.079   9.448 -0.0239 -0.3374  0.2600
  272loPI   C3B 4351   4.433  17.144   8.990  0.1901  0.1735 -0.0672
  272loPI   C4B 4352   4.395  17.013   8.567 -0.1634  0.1926 -0.0205
  273loPI    C1 4353   9.546   7.189  10.877  0.1960 -0.1081  0.2301
  273loPI    C2 4354   9.167   7.084  10.949  0.1886 -0.1243  0.1686
  273loPI    C3 4355   9.357   7.333  11.199  0.0469  0.1067  0.0494
  273loPI   PO4 4356   9.541   7.333  10.608 -0.0062 -0.5672  0.0937
  273loPI   GL1 4357   9.056   7.274  10.418 -0.2605 -0.3063  0.1618
  273loPI   GL2 4358   8.823   7.115  10.225 -0.1730 -0.0035  0.0301
  273loPI   C1A 4359   9.117   7.434  10.017 -0.0977  0.4685 -0.1210
  273loPI   C2A 4360   8.987   7.388   9.639 -0.3589  0.0493 -0.0033
  273loPI   C3A 4361   9.003   7.388   9.274 -0.3076 -0.0265  0.0492
  273loPI   C4A 4362   9.206   7.523   8.936  0.0803 -0.0641 -0.3419
  273loPI   C5A 4363   9.134   7.374   8.553 -0.5118 -0.1473  0.1077
  273loPI   C6A 4364   9.395   7.085   8.298  0.1731  0.0999  0.1245
  273loPI   C1B 4365   8.545   7.237   9.925  0.0128  0.2418 -0.0343
  273loPI   C2B 4366   8.529   7.201   9.501 -0.0285  0.0906  0.2313
  273loPI   C3B 4367   8.515   7.107   9.058 -0.0427  0.2346  0.0563
  273loPI   C4B 4368   8.781   7.063   8.765  0.0346  0.0237  0.2791
  274loPI    C1 4369   0.287   8.256  11.040  0.1610  0.0918  0.2287
  274loPI    C2 4370  -0.004   8.490  11.182 -0.0402  0.1718 -0.2941
  274loPI    C3 4371   0.051   8.125  11.335 -0.2393  0.2573 -0.0099
  274loPI   PO4 4372   0.256   8.337  10.819 -0.3062  0.1179 -0.2958
  274loPI   GL1 4373   0.185   8.187  10.444 -0.1048  0.0222  0.2119
  274loPI   GL2 4374  -0.108   8.263  10.242 -0.0232 -0.0236 -0.0692
  274loPI   C1A 4375   0.391   8.041  10.140 -0.4449 -0.2160  0.1759
  274loPI   C2A 4376   0.424   7.976   9.811 -0.3193 -0.1327  0.1104
  274loPI   C3A 4377   0.363   8.019   9.301  0.4716  0.2659 -0.0978
  274loPI   C4A 4378   0.289   7.961   8.864 -0.0802 -0.1014  0.1266
  274loPI   C5A 4379   0.366   7.982   8.442 -0.0680  0.2238 -0.1939
  274loPI   C6A 4380   0.665   8.114   8.156  0.1291 -0.0566 -0.0547
  274loPI   C1B 4381  -0.146   8.199   9.755  0.0565 -0.1826 -0.1352
  274loPI   C2B 4382  -0.222   8.231   9.334  0.3064  0.0842 -0.0447
  274loPI   C3B 4383  -0.248   8.271   8.870 -0.1166  0.0732  0.0260
  274loPI   C4B 4384  -0.125   8.077   8.418  0.0924  0.2436  0.0259
  275loPI    C1 4385   0.510   5.820  11.065 -0.3321 -0.3357 -0.0920
  275loPI    C2 4386   0.224   6.099  11.074 -0.0655 -0.0594 -0.0136
  275loPI    C3 4387   0.300   5.880  11.400 -0.0129  0.0487  0.0472
  275loPI   PO4 4388   0.429   5.665  10.785 -0.0265  0.0894 -0.0534
  275loPI   GL1 4389   0.640   5.610  10.507 -0.0420 -0.2142 -0.1226
  275loPI   GL2 4390   0.672   5.356  10.488  0.0434  0.1722 -0.0654
  275loPI   C1A 4391   0.653   5.876  10.200  0.1079 -0.0162 -0.5299
  275loPI   C2A 4392   0.569   6.011   9.707  0.0734 -0.0282 -0.1571
  275loPI   C3A 4393   0.487   5.981   9.296  0.2674  0.0855 -0.3769
  275loPI   C4A 4394   0.505   6.004   8.856 -0.2202 -0.0144 -0.0406
  275loPI   C5A 4395   0.441   6.116   8.429  0.0553 -0.1112  0.3934
  275loPI   C6A 4396   0.493   6.622   8.349 -0.2749  0.0160  0.1898
  275loPI   C1B 4397   0.591   5.413  10.056  0.1618  0.0281  0.1204
  275loPI   C2B 4398   0.625   5.512   9.696 -0.0433  0.0119  0.1428
  275loPI   C3B 4399   0.504   5.424   9.297  0.4628  0.0057  0.3040
  275loPI   C4B 4400   0.503   5.459   8.842 -0.0977 -0.2326  0.1295
  276loPI    C1 4401   8.461   5.220  10.937  0.0755 -0.3144  0.0713
  276loPI    C2 4402   8.123   5.204  11.151  0.1545 -0.0542  0.2201
  276loPI    C3 4403   8.442   5.399  11.295  0.3104 -0.1430  0.0010
  276loPI   PO4 4404   8.464   5.288  10.663  0.2245 -0.2589  0.0450
  276loPI   GL1 4405   8.573   5.116  10.316 -0.0584  0.3100  0.1738
  276loPI   GL2 4406   8.703   4.822  10.571  0.0137 -0.0197 -0.1258
  276loPI   C1A 4407   8.572   5.226   9.801 -0.0112 -0.0637  0.2494
  276loPI   C2A 4408   8.602   5.245   9.321 -0.1089 -0.1240  0.1821
  276loPI   C3A 4409   8.625   5.186   8.903 -0.0770 -0.1140 -0.2758
  276loPI   C4A 4410   8.634   5.149   8.450  0.0963  0.1565 -0.0255
  276loPI   C5A 4411   9.022   4.953   8.277  0.3671 -0.2837 -0.0484
  276loPI   C6A 4412   9.429   4.800   8.370 -0.3756  0.4576  0.1449
  276loPI   C1B 4413   8.782   4.667  10.181 -0.0728 -0.0755  0.2426
  276loPI   C2B 4414   8.719   4.699   9.746  0.0601 -0.0653  0.1681
  276loPI   C3B 4415   8.660   4.715   9.411  0.0698 -0.2456  0.0158
  276loPI   C4B 4416   8.679   4.644   8.998 -0.0216  0.0595  0.2056
  277loPI    C1 4417   4.070   6.417  11.397  0.0725  0.2734 -0.0797
  277loPI    C2 4418   3.990   6.447  11.788 -0.1119 -0.0746 -0.0863
  277loPI    C3 4419   4.362   6.512  11.654 -0.0745  0.1712  0.1277
  277loPI   PO4 4420   3.832   6.341  11.268  0.0469  0.1689 -0.1480
  277loPI   GL1 4421   3.608   6.314  10.892 -0.2068  0.3397 -0.0972
  277loPI   GL2 4422   3.854   6.522  10.760  0.0466 -0.1511 -0.0263
  277loPI   C1A 4423   3.328   6.176  10.540  0.2772 -0.2218  0.0776
  277loPI   C2A 4424   3.193   6.205  10.114 -0.0490  0.0424 -0.0851
  277loPI   C3A 4425   3.145   6.226   9.724  0.2267 -0.1054  0.1193
  277loPI   C4A 4426   3.154   6.206   9.270  0.2404 -0.0229  0.2372
  277loPI   C5A 4427   3.118   6.132   8.879  0.0496 -0.0725  0.2591
  277loPI   C6A 4428   3.365   6.411   8.625 -0.1367 -0.0810  0.0098
  277loPI   C1B 4429   3.637   6.584  10.368 -0.2248 -0.1838  0.1943
  277loPI   C2B 4430   3.574   6.452   9.925 -0.1616  0.2822 -0.1434
  277loPI   C3B 4431   3.579   6.500   9.508  0.0460  0.0211  0.0971
  277loPI   C4B 4432   3.633   6.424   9.120  0.1218 -0.0340  0.2213
  278loPI    C1 4433   8.547  15.385  10.369 -0.0556  0.2879  0.1649
  278loPI    C2 4434   8.285  15.117  10.508  0.3628 -0.1559  0.1271
  278loPI    C3 4435   8.392  15.428  10.735 -0.0888 -0.0408  0.1926
  278loPI   PO4 4436   8.588  15.277  10.086  0.0306  0.1027  0.2528
  278loPI   GL1 4437   8.272  15.137   9.790 -0.1656 -0.2229 -0.0540
  278loPI   GL2 4438   8.345  15.468   9.708  0.1619  0.0577  0.0164
  278loPI   C1A 4439   8.389  14.824   9.418 -0.1770 -0.0614 -0.1972
  278loPI   C2A 4440   8.381  14.833   9.082 -0.1969 -0.1555  0.3844
  278loPI   C3A 4441   8.299  14.831   8.621  0.0066 -0.2779 -0.0397
  278loPI   C4A 4442   8.311  14.800   8.171 -0.0629  0.0716  0.1775
  278loPI   C5A 4443   8.416  14.469   7.789 -0.0696 -0.0820  0.0626
  278loPI   C6A 4444   8.495  14.082   7.693  0.2440  0.0118 -0.0562
  278loPI   C1B 4445   8.331  15.374   9.286 -0.0750 -0.1001  0.1147
  278loPI   C2B 4446   8.383  15.449   8.825 -0.1544 -0.1130  0.2192
  278loPI   C3B 4447   8.185  15.300   8.422 -0.1840 -0.4016 -0.1195
  278loPI   C4B 4448   8.278  15.273   7.902  0.0231 -0.2543 -0.1515
  279loPI    C1 4449  16.411   4.890  11.260  0.0650 -0.0601 -0.0384
  279loPI    C2 4450  16.502   4.678  11.586 -0.0800 -0.0226  0.0269
  279loPI    C3 4451  16.128   4.808  11.529 -0.0681 -0.0754 -0.1816
  279loPI   PO4 4452  16.484   4.764  11.055 -0.0351 -0.3159  0.0058
  279loPI   GL1 4453  16.376   4.516  10.688  0.1207  0.1438 -0.1211
  279loPI   GL2 4454  16.697   4.374  10.802 -0.0190  0.1132 -0.0623
  279loPI   C1A 4455  16.372   4.389  10.298  0.0869 -0.2545  0.3415
  279loPI   C2A 4456  16.230   4.385   9.901  0.0387 -0.0300  0.1651
  279loPI   C3A 4457  16.308   4.484   9.472 -0.0662  0.0584 -0.1139
  279loPI   C4A 4458  16.284   4.427   9.096 -0.2479 -0.1917  0.3013
  279loPI   C5A 4459  16.116   4.175   8.680 -0.0306  0.0448 -0.0892
  279loPI   C6A 4460  15.978   3.790   8.509  0.2081  0.1957  0.1000
  279loPI   C1B 4461  16.766   4.675  10.384  0.1989 -0.0056  0.3321
  279loPI   C2B 4462  16.718   4.656   9.950 -0.1556  0.0690  0.0478
  279loPI   C3B 4463  16.778   4.704   9.598 -0.4939 -0.1587 -0.1474
  279loPI   C4B 4464  16.724   4.660   9.158 -0.1081 -0.1224 -0.1248
  280loPI    C1 4465   5.087   4.593  11.123 -0.0277 -0.0134  0.0873
  280loPI    C2 4466   4.739   4.784  11.074  0.1401  0.2045 -0.2938
  280loPI    C3 4467   5.008   4.922  11.336 -0.0847 -0.0065  0.0557
  280loPI   PO4 4468   5.110   4.579  10.884  0.0972  0.0349  0.0294
  280loPI   GL1 4469   5.260   4.799  10.598 -0.1714  0.2096  0.2381
  280loPI   GL2 4470   4.917   4.964  10.647 -0.0334  0.0346  0.0547
  280loPI   C1A 4471   5.087   4.739  10.190 -0.1287 -0.1472 -0.0272
  280loPI   C2A 4472   5.112   4.811   9.766  0.2706  0.1956 -0.4175
  280loPI   C3A 4473   5.131   4.789   9.286 -0.2016  0.0135 -0.0658
  280loPI   C4A 4474   5.136   4.775   8.895  0.2077 -0.1367 -0.4476
  280loPI   C5A 4475   5.154   4.616   8.551  0.2467  0.2911 -0.0989
  280loPI   C6A 4476   5.125   4.547   8.117  0.1673  0.3583 -0.0522
  280loPI   C1B 4477   4.632   5.059  10.255  0.1640  0.0497  0.1389
  280loPI   C2B 4478   4.666   4.968   9.886  0.1400 -0.1798  0.0137
  280loPI   C3B 4479   4.707   5.038   9.385 -0.2247  0.2780  0.1845
  280loPI   C4B 4480   4.708   4.948   9.002  0.0822  0.1739 -0.1261
  281loPI    C1 4481   8.081   4.464  10.954 -0.2425 -0.0433 -0.0932
  281loPI    C2 4482   7.992   4.726  11.243 -0.1237  0.0695 -0.1578
  281loPI    C3 4483   7.705   4.495  11.087 -0.1504 -0.1466  0.1995
  281loPI   PO4 4484   8.287   4.568  10.798  0.0590 -0.0807 -0.3273
  281loPI   GL1 4485   8.205   4.665  10.384 -0.0284 -0.3247  0.1729
  281loPI   GL2 4486   7.828   4.650  10.352 -0.2691  0.4311  0.0707
  281loPI   C1A 4487   8.304   4.852  10.018 -0.2180  0.2923  0.1595
  281loPI   C2A 4488   8.188   4.886   9.555  0.0127  0.3677 -0.0926
  281loPI   C3A 4489   8.247   4.904   9.104 -0.0354  0.0075 -0.0976
  281loPI   C4A 4490   8.263   4.825   8.691  0.0153  0.2412  0.1778
  281loPI   C5A 4491   8.608   4.595   8.493  0.0131  0.0542 -0.1163
  281loPI   C6A 4492   8.763   4.167   8.542 -0.0693 -0.3084  0.1518
  281loPI   C1B 4493   7.880   4.625   9.912  0.1492  0.4198  0.0289
  281loPI   C2B 4494   7.851   4.566   9.485  0.1366  0.1052  0.1001
  281loPI   C3B 4495   7.812   4.600   9.054 -0.2825 -0.2683 -0.3540
  281loPI   C4B 4496   7.808   4.505   8.658 -0.1496  0.2603 -0.0488
  282loPI    C1 4497   8.596  17.106  10.734 -0.0264  0.0181  0.3136
  282loPI    C2 4498   8.321  17.364  10.601  0.0091 -0.1623 -0.1268
  282loPI    C3 4499   8.289  17.211  10.968 -0.2709  0.1028 -0.0358
  282loPI   PO4 4500   8.805  17.097  10.419  0.1113  0.0979 -0.0031
  282loPI   GL1 4501   9.207  17.115  10.173  0.1862  0.0015 -0.1004
  282loPI   GL2 4502   9.098  17.472  10.176 -0.0339 -0.0873  0.3479
  282loPI   C1A 4503   8.990  17.055   9.765 -0.0581  0.0020 -0.0508
  282loPI   C2A 4504   8.884  17.113   9.294 -0.0433 -0.0140  0.0355
  282loPI   C3A 4505   8.984  17.021   8.857  0.0139 -0.0621 -0.0272
  282loPI   C4A 4506   9.004  17.128   8.395 -0.0173 -0.0856  0.1629
  282loPI   C5A 4507   9.117  16.940   7.920 -0.1435  0.0669 -0.1327
  282loPI   C6A 4508   9.345  16.815   7.546 -0.1633 -0.0268 -0.0702
  282loPI   C1B 4509   8.891  17.579   9.778  0.3356 -0.1357  0.0616
  282loPI   C2B 4510   8.862  17.584   9.378  0.2305 -0.0663 -0.1100
  282loPI   C3B 4511   8.774  17.624   8.946  0.1398  0.1360 -0.1983
  282loPI   C4B 4512   8.924  17.560   8.615 -0.0828 -0.1915 -0.1042
  283loPI    C1 4513  16.230   6.840  11.150  0.2950 -0.0272  0.0456
  283loPI    C2 4514  16.488   7.107  11.300  0.0651  0.0914  0.2361
  283loPI    C3 4515  16.232   6.917  11.542 -0.1021  0.0563  0.0351
  283loPI   PO4 4516  16.246   6.924  10.907  0.0294 -0.0344  0.2008
  283loPI   GL1 4517  16.229   6.810  10.474  0.4376 -0.0530 -0.1892
  283loPI   GL2 4518  16.495   6.749  10.455  0.0279  0.0234  0.3032
  283loPI   C1A 4519  16.006   7.038  10.148  0.0994 -0.2504  0.0809
  283loPI   C2A 4520  15.993   7.013   9.729 -0.1156 -0.2093  0.1437
  283loPI   C3A 4521  16.051   6.956   9.311 -0.3744  0.0923 -0.2043
  283loPI   C4A 4522  16.045   6.984   8.874 -0.0985 -0.3933  0.0133
  283loPI   C5A 4523  16.015   7.038   8.416  0.0388 -0.0630  0.1415
  283loPI   C6A 4524  15.727   7.168   8.043 -0.2549 -0.0321 -0.0214
  283loPI   C1B 4525  16.438   6.784   9.981 -0.1378  0.3767 -0.1172
  283loPI   C2B 4526  16.522   6.777   9.606  0.1293 -0.0860  0.0682
  283loPI   C3B 4527  16.522   6.769   9.097 -0.0342 -0.0647 -0.0577
  283loPI   C4B 4528  16.391   6.783   8.613  0.1719 -0.0577 -0.1186
  284loPI    C1 4529   9.060   1.161  11.066 -0.1384 -0.0153  0.0559
  284loPI    C2 4530   9.240   1.504  11.165 -0.1542  0.0041  0.0178
  284loPI    C3 4531   9.178   1.223  11.443  0.0618 -0.0609  0.0016
  284loPI   PO4 4532   9.032   1.243  10.716 -0.0478  0.0233 -0.4787
  284loPI   GL1 4533   8.998   1.398  10.243  0.2363 -0.1001 -0.2027
  284loPI   GL2 4534   8.642   1.304  10.087 -0.1043  0.0102  0.0707
  284loPI   C1A 4535   9.026   1.541   9.818 -0.2385 -0.6545  0.2745
  284loPI   C2A 4536   9.025   1.579   9.449 -0.0264 -0.1715 -0.0402
  284loPI   C3A 4537   9.074   1.516   8.988 -0.3258 -0.0683 -0.1009
  284loPI   C4A 4538   9.043   1.533   8.572 -0.1403 -0.0286 -0.1655
  284loPI   C5A 4539   9.220   1.656   8.210 -0.3137 -0.0270  0.1176
  284loPI   C6A 4540   9.414   1.925   8.259  0.0036 -0.0606 -0.0835
  284loPI   C1B 4541   8.514   1.258   9.582 -0.1722 -0.0938  0.2690
  284loPI   C2B 4542   8.622   1.293   9.201 -0.0579  0.0047 -0.2985
  284loPI   C3B 4543   8.695   1.199   8.865 -0.0642  0.2168  0.1211
  284loPI   C4B 4544   8.719   1.158   8.387  0.0825 -0.0770  0.2733
  285loPI    C1 4545  11.033   0.608  10.777  0.3581  0.0016  0.0627
  285loPI    C2 4546  11.205   0.704  11.126 -0.0721  0.0837  0.2581
  285loPI    C3 4547  10.993   0.367  11.094  0.3231 -0.1440 -0.0517
  285loPI   PO4 4548  11.217   0.634  10.601 -0.3055 -0.3167  0.2233
  285loPI   GL1 4549  11.438   0.576  10.251  0.0671 -0.1097 -0.1023
  285loPI   GL2 4550  11.637   0.525  10.331 -0.1089 -0.0292 -0.3007
  285loPI   C1A 4551  11.483   0.669   9.791  0.2241  0.0161 -0.0075
  285loPI   C2A 4552  11.429   0.654   9.396  0.2234 -0.1231 -0.0284
  285loPI   C3A 4553  11.362   0.625   9.045 -0.2483 -0.0327 -0.3246
  285loPI   C4A 4554  11.167   0.448   8.657 -0.1131 -0.0578  0.3996
  285loPI   C5A 4555  10.931   0.201   8.402 -0.3863  0.0097  0.2757
  285loPI   C6A 4556  10.503   0.019   8.252  0.1084  0.0316 -0.1730
  285loPI   C1B 4557  11.835   0.346  10.063 -0.1088 -0.1260  0.2558
  285loPI   C2B 4558  11.979   0.441   9.721 -0.2406  0.2855  0.0299
  285loPI   C3B 4559  11.913   0.457   9.288  0.0940  0.0837  0.0268
  285loPI   C4B 4560  11.735   0.383   8.865  0.1002  0.0417  0.0933
  286loPI    C1 4561   4.173  12.611  10.777 -0.0082 -0.0215  0.0033
  286loPI    C2 4562   4.405  12.937  10.779  0.0114 -0.0357  0.1129
  286loPI    C3 4563   4.187  12.844  11.102 -0.1243 -0.0390  0.0213
  286loPI   PO4 4564   4.047  12.679  10.472 -0.0428 -0.0622  0.0174
  286loPI   GL1 4565   4.066  12.889  10.129  0.0916 -0.2252  0.1068
  286loPI   GL2 4566   3.779  12.867  10.038  0.0079  0.2911  0.2935
  286loPI   C1A 4567   4.137  12.995   9.718  0.0509 -0.1264  0.3679
  286loPI   C2A 4568   4.136  12.973   9.256  0.1556 -0.1357  0.1766
  286loPI   C3A 4569   4.034  12.793   8.856  0.1940 -0.2602 -0.1703
  286loPI   C4A 4570   3.908  12.727   8.476 -0.1284  0.1294 -0.3664
  286loPI   C5A 4571   3.856  12.717   8.033  0.1703  0.0910 -0.0880
  286loPI   C6A 4572   3.776  12.724   7.542  0.0317 -0.2010 -0.1766
  286loPI   C1B 4573   3.701  12.998   9.507 -0.0251  0.1368 -0.1221
  286loPI   C2B 4574   3.677  12.875   9.156 -0.0891 -0.3903 -0.2549
  286loPI   C3B 4575   3.515  12.928   8.756 -0.0216  0.0771  0.2176
  286loPI   C4B 4576   3.487  12.904   8.306  0.2170 -0.2964 -0.1199
  287loPI    C1 4577   5.547   4.753  11.354 -0.0571  0.1211 -0.1809
  287loPI    C2 4578   5.450   4.380  11.460 -0.1370  0.1870 -0.0174
  287loPI    C3 4579   5.317   4.689  11.675  0.0914  0.3008 -0.0368
  287loPI   PO4 4580   5.541   4.698  11.101  0.1181 -0.0078 -0.2351
  287loPI   GL1 4581   5.755   4.751  10.793 -0.1938 -0.0376 -0.3889
  287loPI   GL2 4582   5.802   5.042  10.781 -0.1636  0.0355 -0.2881
  287loPI   C1A 4583   5.595   4.611  10.347 -0.1219  0.3941 -0.2404
  287loPI   C2A 4584   5.522   4.558   9.945  0.1503 -0.0910  0.0725
  287loPI   C3A 4585   5.545   4.624   9.587  0.2257  0.0495  0.0003
  287loPI   C4A 4586   5.567   4.522   9.206 -0.4113  0.0051 -0.0296
  287loPI   C5A 4587   5.616   4.533   8.782  0.2239  0.2882 -0.0469
  287loPI   C6A 4588   5.353   4.196   8.367  0.2216  0.0578  0.2924
  287loPI   C1B 4589   5.588   5.146  10.445  0.0486  0.0359 -0.0612
  287loPI   C2B 4590   5.526   5.130  10.096 -0.2074 -0.0208  0.0377
  287loPI   C3B 4591   5.464   5.156   9.624 -0.1624  0.1730 -0.2846
  287loPI   C4B 4592   5.482   5.093   9.124 -0.0484  0.0666  0.1800
  288loPI    C1 4593   1.032   0.666  11.593  0.0148  0.0047  0.1616
  288loPI    C2 4594   0.649   0.775  11.624  0.0718  0.2674 -0.0274
  288loPI    C3 4595   0.927   0.960  11.843  0.0711 -0.0437  0.2422
  288loPI   PO4 4596   1.010   0.557  11.355  0.1518  0.0420 -0.0971
  288loPI   GL1 4597   1.011   0.485  10.965  0.0872  0.2100  0.2020
  288loPI   GL2 4598   1.122   0.183  10.885  0.1758 -0.0855  0.1551
  288loPI   C1A 4599   0.629   0.512  10.599  0.2209  0.2052  0.3381
  288loPI   C2A 4600   0.624   0.394  10.227  0.0540 -0.0090 -0.0654
  288loPI   C3A 4601   0.706   0.417   9.903 -0.1121  0.2227 -0.2060
  288loPI   C4A 4602   0.693   0.421   9.552  0.1502 -0.1865 -0.1081
  288loPI   C5A 4603   0.709   0.342   9.149 -0.0371 -0.0413  0.0045
  288loPI   C6A 4604   0.962   0.188   8.805 -0.0477  0.0373 -0.1261
  288loPI   C1B 4605   1.058   0.221  10.491  0.1916 -0.1055  0.2846
  288loPI   C2B 4606   1.101   0.149  10.095 -0.0270  0.1704  0.0067
  288loPI   C3B 4607   1.150   0.215   9.664  0.0916  0.1198 -0.1898
  288loPI   C4B 4608   1.268   0.251   9.187  0.0244 -0.1097  0.0708
  289loPI    C1 4609  11.226   2.130  10.787 -0.0835 -0.0252  0.0564
  289loPI    C2 4610  10.921   2.364  10.676  0.0429  0.0511 -0.1346
  289loPI    C3 4611  11.027   2.342  11.061 -0.0501  0.2105 -0.0992
  289loPI   PO4 4612  11.196   1.938  10.702  0.0283 -0.4122 -0.0932
  289loPI   GL1 4613  11.034   1.937  10.351 -0.1094  0.0855  0.2586
  289loPI   GL2 4614  10.717   1.965  10.346 -0.2478 -0.3618 -0.1002
  289loPI   C1A 4615  10.833   1.808   9.943 -0.3744 -0.1653  0.1184
  289loPI   C2A 4616  10.831   1.869   9.492 -0.0543 -0.2638 -0.1516
  289loPI   C3A 4617  10.830   1.858   9.111 -0.1040 -0.4225 -0.0229
  289loPI   C4A 4618  10.889   1.866   8.672 -0.1204  0.1514  0.0680
  289loPI   C5A 4619  10.853   1.763   8.239  0.0264 -0.2989 -0.2151
  289loPI   C6A 4620  10.742   1.437   8.092  0.0943 -0.1667 -0.0218
  289loPI   C1B 4621  10.864   2.413  10.207  0.1196  0.0509 -0.2383
  289loPI   C2B 4622  10.886   2.382   9.732 -0.2113 -0.1657 -0.0434
  289loPI   C3B 4623  10.837   2.369   9.257 -0.1790 -0.0795 -0.1523
  289loPI   C4B 4624  10.766   2.344   8.813 -0.0346  0.0600  0.1357
  290loPI    C1 4625  10.453  17.237  10.615  0.0270 -0.0910  0.4280
  290loPI    C2 4626  10.179  17.446  10.412  0.0869 -0.1758  0.2569
  290loPI    C3 4627  10.069  17.223  10.725 -0.0524 -0.2731  0.1400
  290loPI   PO4 4628  10.632  17.306  10.472  0.0515  0.1879  0.0768
  290loPI   GL1 4629  10.929  17.047  10.194 -0.1373 -0.0438  0.0494
  290loPI   GL2 4630  10.855  16.783   9.921  0.0264  0.0209 -0.0076
  290loPI   C1A 4631  11.242  17.102   9.783 -0.4860  0.1537 -0.2253
  290loPI   C2A 4632  11.506  17.031   9.397 -0.0850 -0.0290 -0.0378
  290loPI   C3A 4633  11.469  16.982   8.900 -0.1442  0.0655  0.2528
  290loPI   C4A 4634  11.324  17.039   8.436  0.1106 -0.1794  0.1111
  290loPI   C5A 4635  11.098  16.769   8.212  0.2417 -0.0158  0.1257
  290loPI   C6A 4636  10.874  16.530   7.906  0.1110  0.0307 -0.3544
  290loPI   C1B 4637  10.528  16.752   9.622 -0.0378 -0.1999 -0.3263
  290loPI   C2B 4638  10.526  16.827   9.146 -0.0347 -0.0657 -0.1194
  290loPI   C3B 4639  10.347  17.087   8.788 -0.1215  0.1725  0.0102
  290loPI   C4B 4640  10.094  17.474   8.551 -0.1451 -0.0860 -0.1767
  291loPI    C1 4641   2.655   9.086  10.996  0.2123 -0.2165  0.2778
  291loPI    C2 4642   2.501   9.220  11.340 -0.1449  0.0510  0.0211
  291loPI    C3 4643   2.405   8.856  11.207  0.0925 -0.1031  0.2609
  291loPI   PO4 4644   2.579   9.256  10.798 -0.0011 -0.0135  0.0786
  291loPI   GL1 4645   2.424   9.257  10.495 -0.2112 -0.2504  0.1640
  291loPI   GL2 4646   2.416   8.991  10.292 -0.0892  0.0255  0.0759
  291loPI   C1A 4647   2.461   9.445  10.106 -0.1399  0.0121 -0.1009
  291loPI   C2A 4648   2.389   9.489   9.667 -0.3227  0.0689  0.1174
  291loPI   C3A 4649   2.435   9.541   9.266 -0.0034  0.0299  0.3523
  291loPI   C4A 4650   2.501   9.460   8.745 -0.0452 -0.3985 -0.4302
  291loPI   C5A 4651   2.462   9.467   8.312  0.2038  0.0656 -0.2347
  291loPI   C6A 4652   2.742   9.201   8.083  0.1037 -0.0473  0.0601
  291loPI   C1B 4653   2.499   9.004   9.808  0.0565  0.1370 -0.2477
  291loPI   C2B 4654   2.526   8.988   9.392  0.0711 -0.2893  0.3158
  291loPI   C3B 4655   2.517   9.010   8.990  0.1513  0.4436 -0.1478
  291loPI   C4B 4656   2.470   8.949   8.550  0.3825  0.1078  0.0389
  292loPI    C1 4657   6.778   3.097  11.451 -0.0132 -0.0530  0.0055
  292loPI    C2 4658   6.601   3.371  11.683  0.1409  0.0515  0.0012
  292loPI    C3 4659   6.465   2.995  11.678 -0.0094  0.1041  0.0827
  292loPI   PO4 4660   6.801   3.290  11.152 -0.3064 -0.2240  0.2799
  292loPI   GL1 4661   6.632   3.255  10.768  0.0091 -0.2073 -0.0269
  292loPI   GL2 4662   6.251   3.475  10.816 -0.1909 -0.1365  0.0679
  292loPI   C1A 4663   6.677   3.177  10.290 -0.0016  0.1535 -0.0989
  292loPI   C2A 4664   6.674   3.237   9.832  0.1233 -0.0278 -0.0395
  292loPI   C3A 4665   6.662   3.122   9.372 -0.1160  0.0993  0.0913
  292loPI   C4A 4666   6.628   3.199   8.924  0.0721  0.2562 -0.1019
  292loPI   C5A 4667   6.746   3.151   8.483 -0.0971 -0.1191  0.1401
  292loPI   C6A 4668   6.730   3.380   8.114  0.1084 -0.2534 -0.2121
  292loPI   C1B 4669   6.219   3.443  10.421  0.2640  0.1896  0.1490
  292loPI   C2B 4670   6.178   3.373  10.024  0.1219  0.1791  0.0837
  292loPI   C3B 4671   6.174   3.369   9.649  0.0178 -0.1575 -0.1165
  292loPI   C4B 4672   6.203   3.347   9.147  0.2147  0.0336 -0.0032
  293loPI    C1 4673  11.253  16.815  10.941  0.0297  0.1207 -0.0173
  293loPI    C2 4674  11.275  17.188  11.084  0.0232  0.0617  0.1392
  293loPI    C3 4675  10.964  16.955  11.179 -0.0328  0.0558 -0.0548
  293loPI   PO4 4676  11.242  16.768  10.702  0.0756  0.0738 -0.0535
  293loPI   GL1 4677  11.342  16.671  10.204 -0.5255 -0.0831 -0.2260
  293loPI   GL2 4678  11.477  16.978  10.255  0.0091  0.0440  0.1819
  293loPI   C1A 4679  11.367  16.605   9.786  0.1937 -0.0906 -0.0691
  293loPI   C2A 4680  11.532  16.487   9.369  0.1434 -0.1827  0.3080
  293loPI   C3A 4681  11.515  16.450   8.929  0.2268 -0.0496 -0.0110
  293loPI   C4A 4682  11.494  16.411   8.513 -0.1556 -0.0943 -0.1158
  293loPI   C5A 4683  11.470  16.262   8.164 -0.0076  0.1674 -0.2832
  293loPI   C6A 4684  11.123  16.114   7.860 -0.0824 -0.3103  0.1519
  293loPI   C1B 4685  11.903  17.187  10.277  0.0471 -0.0554  0.0269
  293loPI   C2B 4686  11.938  17.262   9.916 -0.0012 -0.2150  0.1303
  293loPI   C3B 4687  11.961  17.268   9.433 -0.0898  0.0193 -0.2054
  293loPI   C4B 4688  11.851  17.278   9.043 -0.0866 -0.4359 -0.2813
  294loPI    C1 4689  14.364   2.184  11.723 -0.1743  0.2438 -0.0651
  294loPI    C2 4690  14.577   2.368  12.007  0.1600  0.0139 -0.1611
  294loPI    C3 4691  14.465   1.987  12.056 -0.1181  0.0919 -0.1710
  294loPI   PO4 4692  14.435   2.202  11.533  0.1985  0.1746  0.1803
  294loPI   GL1 4693  14.493   2.255  11.201 -0.1840  0.1389 -0.0155
  294loPI   GL2 4694  14.738   1.956  11.199  0.1007  0.2002  0.0549
  294loPI   C1A 4695  14.371   2.347  10.714  0.0262  0.2017  0.2760
  294loPI   C2A 4696  14.237   2.376  10.230 -0.2116  0.2904 -0.2049
  294loPI   C3A 4697  14.379   2.307   9.790 -0.5323  0.0206  0.1862
  294loPI   C4A 4698  14.238   2.318   9.459 -0.1634  0.0467 -0.0527
  294loPI   C5A 4699  13.955   2.006   9.198  0.3617 -0.2704  0.2998
  294loPI   C6A 4700  14.049   1.746   8.821 -0.2069  0.1235  0.0347
  294loPI   C1B 4701  14.748   1.991  10.727  0.1521 -0.2012  0.0027
  294loPI   C2B 4702  14.702   2.197  10.302 -0.0557  0.1004 -0.1102
  294loPI   C3B 4703  14.873   2.201   9.837 -0.1493 -0.0317 -0.1558
  294loPI   C4B 4704  14.768   2.035   9.516  0.3323  0.0273  0.1506
  295loPI    C1 4705  15.370   1.940  11.527  0.0806  0.0538  0.0654
  295loPI    C2 4706  15.218   2.018  11.889  0.0022  0.1554  0.0111
  295loPI    C3 4707  15.502   1.739  11.846 -0.1478 -0.0156  0.1179
  295loPI   PO4 4708  15.377   2.117  11.378  0.3255 -0.1610 -0.0833
  295loPI   GL1 4709  15.048   2.321  11.125 -0.2752 -0.1009 -0.1884
  295loPI   GL2 4710  15.256   2.042  10.905 -0.5082 -0.2470 -0.0676
  295loPI   C1A 4711  15.123   2.412  10.583 -0.0296 -0.1956 -0.0097
  295loPI   C2A 4712  15.148   2.483  10.123  0.1797  0.0793 -0.2800
  295loPI   C3A 4713  15.270   2.386   9.594  0.0463  0.0419 -0.0899
  295loPI   C4A 4714  15.037   2.428   9.251  0.1356  0.0442 -0.2200
  295loPI   C5A 4715  14.819   2.134   8.997  0.1711 -0.0075 -0.0424
  295loPI   C6A 4716  14.615   1.820   8.772 -0.0485  0.2402 -0.0805
  295loPI   C1B 4717  15.253   1.933  10.500 -0.1203 -0.3390 -0.3826
  295loPI   C2B 4718  15.273   2.008  10.053 -0.1121  0.2426  0.2104
  295loPI   C3B 4719  15.227   1.932   9.712 -0.0536  0.1734 -0.0118
  295loPI   C4B 4720  15.215   1.945   9.249  0.1319  0.0197 -0.0326
  296loPI    C1 4721   3.279   4.627  11.260 -0.1667 -0.0715 -0.1088
  296loPI    C2 4722   3.073   4.382  11.500  0.0829 -0.0704  0.1110
  296loPI    C3 4723   3.050   4.778  11.551  0.1528 -0.0709  0.1489
  296loPI   PO4 4724   3.252   4.527  10.981  0.0641  0.0458 -0.0773
  296loPI   GL1 4725   3.346   4.516  10.542 -0.2638 -0.1501  0.0848
  296loPI   GL2 4726   3.404   4.176  10.643 -0.1455  0.2131 -0.0698
  296loPI   C1A 4727   3.389   4.628  10.130  0.0840  0.3654 -0.1684
  296loPI   C2A 4728   3.273   4.690   9.761  0.0307  0.0749  0.1224
  296loPI   C3A 4729   3.365   4.700   9.241  0.0427  0.0159  0.0483
  296loPI   C4A 4730   3.320   4.769   8.877 -0.0779 -0.0994  0.0856
  296loPI   C5A 4731   3.209   4.660   8.485 -0.4214  0.0551 -0.1135
  296loPI   C6A 4732   2.947   4.475   8.248 -0.0524  0.0280 -0.2193
  296loPI   C1B 4733   3.396   4.095  10.296 -0.0604 -0.0728  0.1000
  296loPI   C2B 4734   3.374   4.109   9.872 -0.1893  0.1371  0.0962
  296loPI   C3B 4735   3.359   4.211   9.438  0.1455  0.1118 -0.2592
  296loPI   C4B 4736   3.345   4.228   8.981 -0.1219  0.0503 -0.1670
  297loPI    C1 4737   3.357   7.324  10.960  0.4876 -0.1229  0.2768
  297loPI    C2 4738   3.272   7.051  11.239  0.0465 -0.2027  0.0731
  297loPI    C3 4739   2.982   7.191  11.002  0.3348  0.1828 -0.0620
  297loPI   PO4 4740   3.566   7.218  10.867  0.2068  0.0903 -0.2408
  297loPI   GL1 4741   3.654   7.080  10.505 -0.0194 -0.0360  0.0012
  297loPI   GL2 4742   3.911   6.984  10.626 -0.1212  0.2746  0.0693
  297loPI   C1A 4743   3.521   7.035  10.032  0.1232  0.0775 -0.0043
  297loPI   C2A 4744   3.554   7.011   9.479 -0.1406  0.1678 -0.0085
  297loPI   C3A 4745   3.506   6.885   9.130 -0.5122 -0.0982  0.0199
  297loPI   C4A 4746   3.429   6.933   8.684  0.2010  0.1036  0.2881
  297loPI   C5A 4747   3.421   7.161   8.284 -0.0248 -0.0526  0.2839
  297loPI   C6A 4748   3.697   7.156   7.977 -0.0861  0.1455  0.1930
  297loPI   C1B 4749   4.028   6.822  10.174 -0.0183  0.2113  0.0016
  297loPI   C2B 4750   4.021   6.673   9.770 -0.0186  0.1954 -0.1808
  297loPI   C3B 4751   3.949   6.761   9.304 -0.2039  0.1698  0.1804
  297loPI   C4B 4752   4.019   6.723   8.821 -0.2718  0.1104 -0.0049
  298loPI    C1 4753  10.325   9.616  10.989 -0.0033  0.0695  0.0023
  298loPI    C2 4754  10.585   9.340  11.117 -0.0841  0.0438  0.1121
  298loPI    C3 4755  10.588   9.708  11.276  0.0023  0.0972 -0.0116
  298loPI   PO4 4756  10.379   9.641  10.733  0.1528 -0.1013  0.0674
  298loPI   GL1 4757  10.402   9.407  10.312  0.1738  0.3702  0.5403
  298loPI   GL2 4758  10.302   9.029  10.307 -0.2022  0.1494  0.1501
  298loPI   C1A 4759  10.239   9.372   9.939  0.0318 -0.1593 -0.0082
  298loPI   C2A 4760  10.322   9.306   9.606 -0.3725 -0.0714 -0.2892
  298loPI   C3A 4761  10.271   9.530   9.208 -0.0263  0.2917 -0.0106
  298loPI   C4A 4762  10.308   9.606   8.769 -0.0093 -0.0163 -0.1606
  298loPI   C5A 4763  10.139   9.425   8.403  0.2380 -0.0259  0.3071
  298loPI   C6A 4764   9.954   9.799   8.103  0.0814 -0.1630 -0.2492
  298loPI   C1B 4765  10.339   8.844   9.872 -0.3359 -0.0220 -0.3996
  298loPI   C2B 4766  10.406   8.845   9.477  0.0067 -0.1269  0.1009
  298loPI   C3B 4767  10.266   8.969   9.148  0.1309 -0.4038 -0.1205
  298loPI   C4B 4768  10.262   9.033   8.722 -0.0841 -0.0009  0.1418
  299loPI    C1 4769   4.261   4.945  11.176  0.0602  0.1344 -0.1172
  299loPI    C2 4770   4.516   4.969  11.483  0.1180 -0.0505 -0.1496
  299loPI    C3 4771   4.125   5.032  11.542  0.1441  0.0327 -0.0615
  299loPI   PO4 4772   4.292   5.096  10.918  0.0575 -0.0625  0.1986
  299loPI   GL1 4773   4.201   5.195  10.503 -0.0013 -0.1565  0.4453
  299loPI   GL2 4774   4.007   4.883  10.521  0.0330 -0.1605  0.0909
  299loPI   C1A 4775   4.113   5.224  10.065  0.1723  0.0520 -0.1407
  299loPI   C2A 4776   4.154   5.217   9.597 -0.3097  0.1842 -0.0383
  299loPI   C3A 4777   4.258   5.203   9.154 -0.0998  0.1949 -0.3530
  299loPI   C4A 4778   4.284   5.281   8.726  0.3934 -0.2493  0.3420
  299loPI   C5A 4779   4.141   5.086   8.240  0.4205 -0.0130 -0.3389
  299loPI   C6A 4780   4.334   4.844   8.045 -0.2826 -0.2509 -0.2948
  299loPI   C1B 4781   3.776   4.873  10.123 -0.2231  0.2317  0.2592
  299loPI   C2B 4782   3.735   4.954   9.636 -0.0203  0.0229  0.1400
  299loPI   C3B 4783   3.811   4.913   9.181  0.0462  0.1234 -0.1764
  299loPI   C4B 4784   3.782   4.866   8.715 -0.1843  0.3229 -0.1917
  300loPI    C1 4785   4.332   7.358  10.990 -0.0227  0.0535 -0.0583
  300loPI    C2 4786   4.168   7.404  11.352  0.0858  0.1006 -0.0147
  300loPI    C3 4787   4.003   7.152  11.089  0.1062 -0.0662  0.1295
  300loPI   PO4 4788   4.368   7.651  10.942 -0.2454  0.2440 -0.0829
  300loPI   GL1 4789   4.487   7.812  10.557  0.3375 -0.0953  0.0132
  300loPI   GL2 4790   4.546   7.522  10.534  0.0339  0.1513  0.0861
  300loPI   C1A 4791   4.428   8.143  10.308  0.0891  0.0893 -0.1523
  300loPI   C2A 4792   4.445   8.195   9.852 -0.1846  0.0094  0.0856
  300loPI   C3A 4793   4.394   8.114   9.416 -0.1348  0.2869  0.0141
  300loPI   C4A 4794   4.414   8.160   9.027  0.1513  0.1075  0.0448
  300loPI   C5A 4795   4.426   8.105   8.641  0.4683  0.0475  0.2971
  300loPI   C6A 4796   4.272   7.800   8.328  0.0181  0.0602  0.0351
  300loPI   C1B 4797   4.445   7.720  10.088 -0.1236 -0.0177  0.0168
  300loPI   C2B 4798   4.412   7.681   9.648 -0.2981  0.2181  0.3295
  300loPI   C3B 4799   4.433   7.638   9.230 -0.1093 -0.0380 -0.2215
  300loPI   C4B 4800   4.491   7.632   8.754 -0.2289 -0.1023 -0.2980
  301loPI    C1 4801   1.131  14.205  10.759  0.1348 -0.1962  0.0453
  301loPI    C2 4802   1.313  14.292  11.104 -0.1235  0.2779  0.0699
  301loPI    C3 4803   1.017  14.023  11.097  0.1993 -0.0874  0.1262
  301loPI   PO4 4804   1.285  14.237  10.535  0.0433  0.2958 -0.0138
  301loPI   GL1 4805   1.147  14.212  10.149 -0.1643 -0.0486 -0.0996
  301loPI   GL2 4806   1.062  14.585  10.154 -0.0513 -0.2221  0.3011
  301loPI   C1A 4807   1.047  14.163   9.768  0.0781 -0.3318  0.0803
  301loPI   C2A 4808   1.043  14.128   9.420 -0.0045  0.1663 -0.0502
  301loPI   C3A 4809   0.919  14.135   9.048  0.1334  0.0574  0.1690
  301loPI   C4A 4810   0.930  14.091   8.644  0.1905  0.1221  0.1644
  301loPI   C5A 4811   1.003  13.810   8.283 -0.1173 -0.2635 -0.0167
  301loPI   C6A 4812   1.046  13.621   7.825  0.2087 -0.0156  0.1778
  301loPI   C1B 4813   0.958  14.632   9.682  0.0455 -0.1594  0.1291
  301loPI   C2B 4814   0.862  14.600   9.264 -0.2480 -0.0548  0.1842
  301loPI   C3B 4815   0.927  14.656   8.790 -0.1625 -0.1274 -0.1828
  301loPI   C4B 4816   0.740  14.452   8.337 -0.1941  0.1216 -0.1911
  302loPI    C1 4817  10.555   5.942  10.934 -0.1129 -0.1805  0.0692
  302loPI    C2 4818  10.889   5.744  11.032  0.0107  0.0111  0.0404
  302loPI    C3 4819  10.576   5.744  11.281 -0.1211 -0.5079 -0.1129
  302loPI   PO4 4820  10.632   6.156  10.819 -0.3281 -0.1205  0.1355
  302loPI   GL1 4821  10.752   6.167  10.424 -0.1749 -0.0182  0.0934
  302loPI   GL2 4822  11.114   6.077  10.414  0.2188 -0.2048 -0.2549
  302loPI   C1A 4823  10.635   6.274   9.969  0.0807 -0.1251  0.2491
  302loPI   C2A 4824  10.618   6.280   9.491  0.0184 -0.1561 -0.0589
  302loPI   C3A 4825  10.635   6.421   9.143 -0.0116  0.4214  0.3867
  302loPI   C4A 4826  10.601   6.480   8.695  0.2894  0.0153  0.1043
  302loPI   C5A 4827  10.327   6.742   8.406  0.0675 -0.0245  0.0945
  302loPI   C6A 4828   9.985   6.872   8.188 -0.2985 -0.0120 -0.1513
  302loPI   C1B 4829  11.112   6.076   9.950  0.3663 -0.2487 -0.0679
  302loPI   C2B 4830  11.112   6.158   9.532 -0.1038 -0.1688 -0.1804
  302loPI   C3B 4831  11.144   6.210   9.092  0.0458  0.3175 -0.3799
  302loPI   C4B 4832  11.214   6.156   8.572 -0.1334  0.2339 -0.2101
  303loPI    C1 4833   2.407   7.177  11.347  0.1921 -0.4995  0.0036
  303loPI    C2 4834   2.093   7.041  11.554 -0.0167 -0.0126  0.0210
  303loPI    C3 4835   2.401   7.209  11.746  0.1253 -0.2246 -0.0175
  303loPI   PO4 4836   2.379   6.985  11.129  0.0171  0.2972 -0.0260
  303loPI   GL1 4837   2.319   6.954  10.665  0.1265 -0.0567 -0.1796
  303loPI   GL2 4838   2.138   7.186  10.563 -0.3160  0.0011  0.0690
  303loPI   C1A 4839   2.312   6.586  10.413 -0.0095 -0.0766  0.3072
  303loPI   C2A 4840   2.303   6.584   9.951 -0.0717  0.1248  0.0565
  303loPI   C3A 4841   2.241   6.711   9.615 -0.0229  0.1961 -0.1184
  303loPI   C4A 4842   2.224   6.610   9.161 -0.0792 -0.0273 -0.1064
  303loPI   C5A 4843   2.209   6.603   8.708 -0.0522  0.1257  0.1225
  303loPI   C6A 4844   2.418   6.545   8.387 -0.1886  0.3482  0.1328
  303loPI   C1B 4845   2.238   7.069  10.176 -0.1458 -0.1445  0.4122
  303loPI   C2B 4846   2.188   7.182   9.830  0.1599 -0.2905 -0.0121
  303loPI   C3B 4847   2.251   7.112   9.372  0.2510 -0.0330 -0.1435
  303loPI   C4B 4848   2.117   7.065   8.990 -0.0892 -0.0974  0.0758
  304loPI    C1 4849  16.987  14.615  11.265  0.0039 -0.1782  0.0567
  304loPI    C2 4850  17.053  14.951  11.472  0.2263 -0.0964 -0.1422
  304loPI    C3 4851  16.917  14.624  11.659  0.1380  0.0631  0.0767
  304loPI   PO4 4852  16.866  14.712  11.089 -0.0018  0.1238 -0.1693
  304loPI   GL1 4853  17.001  14.803  10.670  0.1285 -0.0203  0.0357
  304loPI   GL2 4854  17.071  15.103  10.627 -0.0878 -0.1401 -0.1640
  304loPI   C1A 4855  16.660  14.704  10.297 -0.2222  0.1032 -0.3536
  304loPI   C2A 4856  16.573  14.595   9.868 -0.0213 -0.0573 -0.1016
  304loPI   C3A 4857  16.588  14.578   9.349 -0.2221  0.0703  0.0317
  304loPI   C4A 4858  16.532  14.581   8.916  0.1138  0.0617  0.0580
  304loPI   C5A 4859  16.227  14.334   8.743  0.0926 -0.0542 -0.1963
  304loPI   C6A 4860  15.837  14.092   8.724 -0.1814 -0.2352 -0.3062
  304loPI   C1B 4861  17.051  14.989  10.171  0.1164 -0.1753  0.2943
  304loPI   C2B 4862  16.949  14.924   9.735 -0.0683 -0.0270  0.0223
  304loPI   C3B 4863  16.978  14.897   9.274 -0.2319  0.1623 -0.2169
  304loPI   C4B 4864  16.928  14.799   8.764 -0.1890 -0.0657 -0.2738
  305loPI    C1 4865   7.955  12.157  10.711 -0.2386 -0.1860  0.2259
  305loPI    C2 4866   8.053  12.401  11.012 -0.1972  0.1111 -0.0241
  305loPI    C3 4867   7.917  12.033  11.090  0.1818  0.0421  0.3487
  305loPI   PO4 4868   7.890  12.210  10.519  0.0672 -0.1150 -0.1681
  305loPI   GL1 4869   7.910  12.053  10.149 -0.2367 -0.1160  0.3742
  305loPI   GL2 4870   7.633  11.854  10.098  0.3072  0.0118 -0.1491
  305loPI   C1A 4871   7.639  12.124   9.694  0.2689 -0.0485  0.1360
  305loPI   C2A 4872   7.692  12.078   9.219  0.2831 -0.2401  0.2451
  305loPI   C3A 4873   7.686  12.258   8.771  0.1091  0.0631  0.1250
  305loPI   C4A 4874   7.787  12.092   8.339 -0.1177  0.0040 -0.0559
  305loPI   C5A 4875   8.062  12.366   8.186 -0.0104 -0.0993  0.1740
  305loPI   C6A 4876   8.011  12.461   7.693  0.0910 -0.4066 -0.1859
  305loPI   C1B 4877   7.645  11.568   9.657  0.0678  0.0643 -0.4542
  305loPI   C2B 4878   7.760  11.559   9.240  0.1136  0.1187  0.0221
  305loPI   C3B 4879   7.783  11.698   8.716  0.0738  0.0381  0.0035
  305loPI   C4B 4880   7.868  11.602   8.400  0.4951  0.4027  0.1408
  306loPI    C1 4881   7.702   1.143  10.816  0.2649  0.1006  0.0531
  306loPI    C2 4882   7.430   1.140  11.109  0.0990  0.0862 -0.0993
  306loPI    C3 4883   7.786   1.314  11.168 -0.0069  0.2581  0.0439
  306loPI   PO4 4884   7.533   1.223  10.604 -0.1049 -0.2042 -0.1534
  306loPI   GL1 4885   7.413   1.209  10.266 -0.1709 -0.0959  0.0764
  306loPI   GL2 4886   7.243   0.934  10.292 -0.0520 -0.1418  0.3066
  306loPI   C1A 4887   7.320   1.401   9.831  0.0477 -0.1753  0.1707
  306loPI   C2A 4888   7.274   1.361   9.331 -0.2906 -0.0755  0.2988
  306loPI   C3A 4889   7.299   1.292   8.881  0.1192 -0.0974 -0.1104
  306loPI   C4A 4890   7.285   1.298   8.487 -0.0069 -0.0288 -0.3160
  306loPI   C5A 4891   7.121   1.214   8.053  0.0002 -0.1607 -0.2170
  306loPI   C6A 4892   6.727   1.278   7.943 -0.2001 -0.0975 -0.1887
  306loPI   C1B 4893   7.331   0.822   9.823 -0.3549 -0.0128  0.5054
  306loPI   C2B 4894   7.339   0.864   9.360  0.2356 -0.1546  0.0842
  306loPI   C3B 4895   7.340   0.782   8.885 -0.2868  0.1101  0.0202
  306loPI   C4B 4896   7.280   0.798   8.440  0.0779 -0.1008 -0.1938
  307loPI    C1 4897   2.111  12.595  10.820  0.2588  0.1528  0.2203
  307loPI    C2 4898   2.406  12.326  10.799  0.0105 -0.1323  0.3043
  307loPI    C3 4899   2.216  12.387  11.146  0.0614  0.1515  0.2846
  307loPI   PO4 4900   2.127  12.683  10.578  0.1084 -0.0299  0.0802
  307loPI   GL1 4901   1.900  12.938  10.300 -0.1876  0.0857 -0.0221
  307loPI   GL2 4902   2.072  13.156  10.310 -0.0365  0.4337 -0.1345
  307loPI   C1A 4903   1.579  12.938  10.041 -0.0927  0.0354  0.1888
  307loPI   C2A 4904   1.515  12.921   9.619 -0.0653 -0.3332  0.1136
  307loPI   C3A 4905   1.605  12.934   9.137  0.1486  0.2182  0.1306
  307loPI   C4A 4906   1.604  12.796   8.739  0.1909 -0.1115 -0.1426
  307loPI   C5A 4907   1.553  12.619   8.269 -0.4018  0.0775 -0.0733
  307loPI   C6A 4908   1.232  12.837   8.148  0.0075 -0.0598  0.0958
  307loPI   C1B 4909   2.010  13.208   9.874 -0.2260  0.3200  0.1212
  307loPI   C2B 4910   1.931  13.151   9.503  0.0166  0.0274 -0.4000
  307loPI   C3B 4911   2.068  13.197   9.056  0.2614 -0.1057  0.2534
  307loPI   C4B 4912   2.091  13.103   8.683  0.0539 -0.0708 -0.0886
  308loPI    C1 4913   6.080   2.044  11.299 -0.0490  0.1480 -0.0617
  308loPI    C2 4914   5.872   1.751  11.122  0.1066  0.0249 -0.0441
  308loPI    C3 4915   5.835   1.814  11.516 -0.2806  0.3335 -0.1220
  308loPI   PO4 4916   6.091   2.213  11.125  0.0933  0.1431  0.0844
  308loPI   GL1 4917   6.156   2.519  10.728 -0.1325 -0.0540  0.0443
  308loPI   GL2 4918   6.468   2.599  10.718 -0.4233  0.2391 -0.0116
  308loPI   C1A 4919   5.924   2.482  10.403 -0.0457 -0.1942 -0.1478
  308loPI   C2A 4920   5.856   2.582   9.960 -0.2681 -0.1311  0.0344
  308loPI   C3A 4921   5.833   2.463   9.521  0.2117  0.2247  0.0185
  308loPI   C4A 4922   5.848   2.487   9.145 -0.1078  0.2471  0.1367
  308loPI   C5A 4923   5.859   2.544   8.781 -0.2327 -0.0175  0.0930
  308loPI   C6A 4924   5.929   2.897   8.650  0.0610 -0.2388 -0.0993
  308loPI   C1B 4925   6.747   2.633  10.380  0.1572  0.0395  0.0871
  308loPI   C2B 4926   6.767   2.625   9.918  0.1383 -0.0648 -0.0540
  308loPI   C3B 4927   6.714   2.648   9.543  0.2105 -0.3297 -0.1829
  308loPI   C4B 4928   6.687   2.655   9.123  0.0503  0.1094  0.1815
  309loPI    C1 4929   9.660   1.172  11.139 -0.0853  0.1403 -0.0369
  309loPI    C2 4930   9.993   1.072  11.337 -0.2232 -0.1527  0.0525
  309loPI    C3 4931   9.793   1.403  11.438 -0.0117 -0.0256  0.0603
  309loPI   PO4 4932   9.548   1.162  10.946 -0.0614 -0.1067 -0.0926
  309loPI   GL1 4933   9.491   1.348  10.468 -0.0734  0.1503  0.0055
  309loPI   GL2 4934   9.392   1.086  10.409 -0.0124  0.0398 -0.1303
  309loPI   C1A 4935   9.623   1.476  10.005  0.0795 -0.2888  0.0546
  309loPI   C2A 4936   9.532   1.414   9.677 -0.0471  0.0546  0.1728
  309loPI   C3A 4937   9.525   1.365   9.214 -0.0210 -0.2727 -0.0700
  309loPI   C4A 4938   9.537   1.361   8.865 -0.0168  0.1197 -0.0690
  309loPI   C5A 4939   9.527   1.365   8.484  0.1766  0.2493  0.2587
  309loPI   C6A 4940   9.809   1.394   8.131  0.1243  0.2815 -0.1041
  309loPI   C1B 4941   9.226   1.114   9.965 -0.1443 -0.1319 -0.1166
  309loPI   C2B 4942   9.031   1.053   9.563 -0.1116 -0.1516  0.0432
  309loPI   C3B 4943   9.096   1.079   9.190  0.0448 -0.1179 -0.2946
  309loPI   C4B 4944   9.187   1.081   8.702  0.1770 -0.2683  0.0708
  310loPI    C1 4945  12.084  12.329  11.131 -0.0463 -0.1612 -0.1299
  310loPI    C2 4946  11.688  12.314  11.186 -0.0247  0.1636  0.1457
  310loPI    C3 4947  11.925  12.048  11.367 -0.1079  0.0254  0.0536
  310loPI   PO4 4948  12.186  12.405  10.882 -0.0233 -0.0651  0.1640
  310loPI   GL1 4949  12.136  12.162  10.505 -0.2433  0.2426 -0.1249
  310loPI   GL2 4950  12.360  12.398  10.412  0.1718  0.1565  0.0284
  310loPI   C1A 4951  12.112  12.058  10.051 -0.0777 -0.0416 -0.2462
  310loPI   C2A 4952  12.252  12.151   9.734 -0.0642 -0.1623  0.0371
  310loPI   C3A 4953  12.308  12.099   9.345 -0.1499 -0.0828 -0.2230
  310loPI   C4A 4954  12.304  12.129   8.876  0.0447 -0.0754  0.2372
  310loPI   C5A 4955  12.455  12.094   8.509  0.2533  0.0767 -0.2794
  310loPI   C6A 4956  12.808  12.067   8.288  0.0651 -0.1940 -0.1960
  310loPI   C1B 4957  12.499  12.453  10.016  0.0395  0.0278 -0.0409
  310loPI   C2B 4958  12.698  12.467   9.588 -0.2110  0.0840  0.0184
  310loPI   C3B 4959  12.655  12.427   9.176  0.0627  0.1407 -0.0364
  310loPI   C4B 4960  12.785  12.412   8.759 -0.2062  0.3489  0.0696
  311loPI    C1 4961  12.473   3.111  10.809  0.2087 -0.0732  0.0377
  311loPI    C2 4962  12.505   2.738  10.949  0.0662 -0.0825  0.0471
  311loPI    C3 4963  12.299   3.012  11.155 -0.2311 -0.1226 -0.1900
  311loPI   PO4 4964  12.356   3.158  10.610  0.2696  0.0455  0.0846
  311loPI   GL1 4965  12.373   2.923  10.183 -0.0005  0.2619  0.2856
  311loPI   GL2 4966  12.121   2.732  10.245 -0.0094 -0.2217 -0.0665
  311loPI   C1A 4967  12.509   3.142   9.835  0.3960  0.1454  0.2785
  311loPI   C2A 4968  12.480   3.183   9.468  0.3389 -0.0608 -0.0699
  311loPI   C3A 4969  12.465   3.000   9.066 -0.0282  0.2279 -0.2317
  311loPI   C4A 4970  12.392   3.046   8.551 -0.0838  0.0751  0.1168
  311loPI   C5A 4971  12.363   2.777   8.204  0.4334 -0.1356 -0.1211
  311loPI   C6A 4972  12.470   2.424   8.253  0.0858 -0.1184  0.1307
  311loPI   C1B 4973  12.007   2.871   9.868 -0.3600 -0.0838  0.4081
  311loPI   C2B 4974  12.070   2.766   9.380  0.1897 -0.0291 -0.1485
  311loPI   C3B 4975  12.019   2.779   8.969 -0.0122 -0.1300  0.0972
  311loPI   C4B 4976  11.946   2.749   8.545 -0.3140 -0.1591  0.1815
  312loPI    C1 4977  16.035  12.994  11.257  0.0894  0.1783  0.0130
  312loPI    C2 4978  15.861  13.015  11.617 -0.0998  0.1655 -0.0764
  312loPI    C3 4979  15.644  13.072  11.286  0.0619  0.1212 -0.1916
  312loPI   PO4 4980  16.271  12.898  11.237  0.1343  0.0112  0.0950
  312loPI   GL1 4981  16.468  12.858  10.926 -0.1323  0.0783  0.0652
  312loPI   GL2 4982  16.291  12.647  10.670  0.0391  0.0023  0.1776
  312loPI   C1A 4983  16.277  13.120  10.610  0.0568 -0.2219  0.5195
  312loPI   C2A 4984  16.309  13.273  10.164 -0.3305 -0.0527  0.1588
  312loPI   C3A 4985  16.222  13.286   9.660  0.2070  0.3163  0.1815
  312loPI   C4A 4986  16.304  13.232   9.241 -0.1263  0.1635 -0.1996
  312loPI   C5A 4987  16.231  13.263   8.786  0.1574 -0.1990  0.0703
  312loPI   C6A 4988  16.173  13.437   8.295  0.2001  0.0613  0.0561
  312loPI   C1B 4989  16.340  12.696  10.190  0.2164 -0.0494 -0.0500
  312loPI   C2B 4990  16.235  12.703   9.807  0.3257  0.1018  0.2682
  312loPI   C3B 4991  16.269  12.773   9.470  0.1455  0.0378  0.2614
  312loPI   C4B 4992  16.295  12.697   9.022 -0.0979 -0.0101 -0.1164
  313loPI    C1 4993   5.242  15.636  11.115 -0.2194 -0.1955 -0.0904
  313loPI    C2 4994   5.005  15.638  11.438 -0.0777 -0.1984  0.0144
  313loPI    C3 4995   5.391  15.539  11.473  0.0366  0.1913 -0.0864
  313loPI   PO4 4996   5.094  15.694  10.925  0.0359 -0.0777  0.0308
  313loPI   GL1 4997   5.167  15.731  10.580 -0.2554  0.1665 -0.0645
  313loPI   GL2 4998   5.476  15.694  10.370 -0.0376 -0.0545 -0.0805
  313loPI   C1A 4999   5.068  15.772  10.153  0.3223  0.0050  0.0287
  313loPI   C2A 5000   5.018  15.808   9.707  0.0280  0.1880 -0.0604
  313loPI   C3A 5001   5.060  15.777   9.219 -0.2965 -0.1236  0.0064
  313loPI   C4A 5002   5.009  15.789   8.790  0.0912  0.2525 -0.0535
  313loPI   C5A 5003   5.040  15.900   8.397 -0.1320  0.0380  0.1382
  313loPI   C6A 5004   4.893  16.025   8.041 -0.3107  0.3323 -0.1576
  313loPI   C1B 5005   5.546  15.543   9.907 -0.1383  0.0938 -0.1605
  313loPI   C2B 5006   5.573  15.636   9.430  0.0393  0.0154  0.0129
  313loPI   C3B 5007   5.555  15.612   8.949  0.1405 -0.0686 -0.4421
  313loPI   C4B 5008   5.418  15.522   8.630 -0.2830 -0.0942 -0.3342
  314loPI    C1 5009  11.723   6.604  11.091  0.0259 -0.0092 -0.2171
  314loPI    C2 5010  11.381   6.684  10.899 -0.0675 -0.0645 -0.0757
  314loPI    C3 5011  11.414   6.764  11.290  0.1620  0.1585 -0.1381
  314loPI   PO4 5012  11.769   6.307  10.917  0.0989 -0.1017 -0.2104
  314loPI   GL1 5013  11.551   6.193  10.582 -0.2514  0.0994 -0.2917
  314loPI   GL2 5014  11.620   5.885  10.474 -0.2506  0.0841 -0.1743
  314loPI   C1A 5015  11.411   6.403  10.268 -0.1866 -0.1327  0.2737
  314loPI   C2A 5016  11.459   6.425   9.833  0.2045  0.0238 -0.4539
  314loPI   C3A 5017  11.508   6.411   9.415  0.0403 -0.1039  0.0527
  314loPI   C4A 5018  11.575   6.445   8.908  0.1623  0.0545  0.0662
  314loPI   C5A 5019  11.576   6.538   8.450  0.0322 -0.1363  0.1631
  314loPI   C6A 5020  11.442   6.755   8.070  0.1314 -0.3255 -0.2148
  314loPI   C1B 5021  11.608   5.946  10.020 -0.2658  0.0437 -0.2545
  314loPI   C2B 5022  11.586   5.905   9.616 -0.0039  0.0312 -0.3039
  314loPI   C3B 5023  11.596   5.960   9.186 -0.2768  0.1302 -0.3945
  314loPI   C4B 5024  11.653   5.941   8.720 -0.3666 -0.2039  0.1737
  315loPI    C1 5025   6.545   4.611  11.485 -0.1839  0.0896  0.1635
  315loPI    C2 5026   6.716   4.320  11.700  0.0983  0.1458  0.0193
  315loPI    C3 5027   6.644   4.677  11.867  0.1932  0.1462  0.0604
  315loPI   PO4 5028   6.653   4.608  11.226 -0.0810 -0.0299  0.1243
  315loPI   GL1 5029   6.848   4.355  10.831 -0.0544  0.3906 -0.1199
  315loPI   GL2 5030   6.771   4.706  10.745  0.1487  0.0271 -0.1058
  315loPI   C1A 5031   6.703   4.214  10.411 -0.0910  0.1085  0.0450
  315loPI   C2A 5032   6.526   4.253  10.027 -0.2285  0.1195  0.2308
  315loPI   C3A 5033   6.496   4.203   9.666 -0.2043 -0.1665 -0.3390
  315loPI   C4A 5034   6.588   4.183   9.244 -0.1805  0.1277 -0.1159
  315loPI   C5A 5035   6.409   4.121   8.772 -0.0726  0.2382  0.2275
  315loPI   C6A 5036   5.974   4.131   8.515 -0.1729 -0.0363  0.0467
  315loPI   C1B 5037   6.508   4.766  10.311 -0.1338  0.0469  0.1622
  315loPI   C2B 5038   6.397   4.687   9.872 -0.1753  0.0168 -0.3781
  315loPI   C3B 5039   6.566   4.662   9.502 -0.1018 -0.0254 -0.2832
  315loPI   C4B 5040   6.532   4.636   9.147 -0.0338 -0.1961 -0.0635
  316loPI    C1 5041   3.475   9.649  11.009  0.4100 -0.0688 -0.0267
  316loPI    C2 5042   3.511   9.327  11.244 -0.0960 -0.1757 -0.0840
  316loPI    C3 5043   3.410   9.680  11.403  0.0100 -0.1455 -0.0827
  316loPI   PO4 5044   3.460   9.583  10.770 -0.3136 -0.1085 -0.1045
  316loPI   GL1 5045   3.392   9.328  10.444 -0.2133 -0.0033 -0.0676
  316loPI   GL2 5046   3.268   9.104  10.378  0.1516  0.2437  0.0741
  316loPI   C1A 5047   3.317   9.649  10.070 -0.0618  0.2923  0.0590
  316loPI   C2A 5048   3.220   9.652   9.589  0.4577 -0.0526  0.1496
  316loPI   C3A 5049   3.343   9.550   9.170  0.3932  0.0559  0.1176
  316loPI   C4A 5050   3.364   9.486   8.777 -0.0249  0.1449 -0.0556
  316loPI   C5A 5051   3.459   9.518   8.405  0.2183  0.2223 -0.0385
  316loPI   C6A 5052   3.793   9.719   8.145  0.0460  0.1294  0.0636
  316loPI   C1B 5053   3.372   9.156   9.997  0.1106  0.4231 -0.2925
  316loPI   C2B 5054   3.434   9.038   9.583  0.0103  0.2607  0.0284
  316loPI   C3B 5055   3.412   8.988   9.222  0.3274  0.1147  0.2175
  316loPI   C4B 5056   3.463   9.033   8.859 -0.1026  0.0357  0.0002
  317loPI    C1 5057   8.424  14.752  10.075 -0.0966  0.0305  0.0334
  317loPI    C2 5058   8.480  14.620  10.449 -0.1209 -0.2293 -0.0529
  317loPI    C3 5059   8.589  14.392  10.138 -0.1766 -0.0499 -0.2056
  317loPI   PO4 5060   8.067  14.854  10.114  0.0508  0.0686 -0.0390
  317loPI   GL1 5061   7.815  15.164   9.842  0.0117 -0.1162  0.0481
  317loPI   GL2 5062   7.626  14.871   9.860 -0.2139 -0.2438 -0.1388
  317loPI   C1A 5063   7.953  15.093   9.435  0.1285 -0.0256 -0.1294
  317loPI   C2A 5064   7.872  14.986   8.994 -0.1524  0.0292  0.0288
  317loPI   C3A 5065   7.799  14.982   8.538  0.0294  0.1665  0.0533
  317loPI   C4A 5066   7.880  15.052   8.103 -0.3250  0.0615  0.3699
  317loPI   C5A 5067   7.990  14.966   7.649  0.0911 -0.0361 -0.0180
  317loPI   C6A 5068   8.275  15.196   7.384  0.1957  0.1601 -0.0493
  317loPI   C1B 5069   7.528  14.790   9.391 -0.0099 -0.3215 -0.0730
  317loPI   C2B 5070   7.470  14.696   8.999 -0.0475  0.2740 -0.0259
  317loPI   C3B 5071   7.349  14.664   8.674 -0.1961 -0.1523  0.1461
  317loPI   C4B 5072   7.416  14.679   8.307  0.0688  0.1447 -0.0436
  318loPI    C1 5073  16.080   3.763  11.458  0.0036  0.0936  0.0369
  318loPI    C2 5074  15.712   3.654  11.573  0.0199 -0.0649 -0.0586
  318loPI    C3 5075  15.887   3.974  11.739 -0.0746 -0.1158  0.1425
  318loPI   PO4 5076  16.093   3.822  11.280  0.1305 -0.0749 -0.0644
  318loPI   GL1 5077  15.963   3.621  10.884 -0.1459 -0.4127  0.0094
  318loPI   GL2 5078  15.611   3.865  10.701 -0.0960  0.2397 -0.0479
  318loPI   C1A 5079  15.928   3.644  10.427 -0.0270  0.1873 -0.1171
  318loPI   C2A 5080  15.942   3.596  10.053 -0.0174  0.0425  0.1534
  318loPI   C3A 5081  15.930   3.542   9.613 -0.0910  0.1153 -0.0196
  318loPI   C4A 5082  15.893   3.553   9.197  0.0024 -0.1973 -0.2426
  318loPI   C5A 5083  15.786   3.406   8.747 -0.5784 -0.0578  0.3516
  318loPI   C6A 5084  15.503   3.540   8.371 -0.1794  0.1190 -0.1201
  318loPI   C1B 5085  15.416   3.766  10.332 -0.1319  0.1888 -0.0767
  318loPI   C2B 5086  15.424   3.848   9.851 -0.0993 -0.0585  0.0030
  318loPI   C3B 5087  15.468   3.821   9.358 -0.1945  0.0114 -0.1573
  318loPI   C4B 5088  15.388   3.738   8.997  0.1449 -0.1393 -0.0990
  319loPI    C1 5089  16.181   9.554  11.090  0.1676 -0.1961 -0.0454
  319loPI    C2 5090  16.210   9.579  11.488 -0.2297 -0.0129 -0.0229
  319loPI    C3 5091  16.238   9.223  11.308  0.0211 -0.0888  0.1593
  319loPI   PO4 5092  16.334   9.721  10.980 -0.1186 -0.2040 -0.0699
  319loPI   GL1 5093  16.157   9.858  10.602  0.2559 -0.2030 -0.0740
  319loPI   GL2 5094  16.194   9.475  10.553  0.1746  0.0494  0.1218
  319loPI   C1A 5095  16.134   9.882  10.139  0.1665 -0.0742 -0.0187
  319loPI   C2A 5096  16.140   9.882   9.680  0.1900  0.0776  0.2991
  319loPI   C3A 5097  16.176   9.943   9.177  0.4495 -0.0294  0.2754
  319loPI   C4A 5098  16.150   9.909   8.829 -0.1238  0.1684 -0.0158
  319loPI   C5A 5099  16.556   9.707   8.586  0.3144 -0.0729  0.0702
  319loPI   C6A 5100  16.792   9.871   8.163 -0.2222 -0.0568  0.0208
  319loPI   C1B 5101  16.274   9.404  10.085 -0.0531  0.0081  0.0451
  319loPI   C2B 5102  16.225   9.440   9.542  0.1780 -0.0518 -0.3210
  319loPI   C3B 5103  16.241   9.389   9.176  0.2571 -0.0418  0.1807
  319loPI   C4B 5104  16.231   9.427   8.695  0.3565  0.0123  0.2753
  320loPI    C1 5105   5.706   1.383  11.323  0.0591  0.0385 -0.1354
  320loPI    C2 5106   6.100   1.317  11.345  0.0072 -0.2235  0.0732
  320loPI    C3 5107   5.874   1.292  11.674 -0.1841 -0.0630 -0.0425
  320loPI   PO4 5108   5.587   1.332  11.012  0.0622 -0.0080  0.0140
  320loPI   GL1 5109   5.591   1.215  10.580 -0.2152  0.0696  0.3423
  320loPI   GL2 5110   5.614   1.608  10.582 -0.0651 -0.3475  0.1466
  320loPI   C1A 5111   5.546   1.164  10.108 -0.0699  0.1617  0.2308
  320loPI   C2A 5112   5.601   1.165   9.621  0.0812 -0.0480  0.2690
  320loPI   C3A 5113   5.443   1.171   9.255 -0.1669  0.2207 -0.1926
  320loPI   C4A 5114   5.544   1.255   8.779  0.2923  0.0546 -0.0113
  320loPI   C5A 5115   5.481   1.178   8.400  0.3373  0.3341  0.0606
  320loPI   C6A 5116   5.102   1.198   8.079  0.3383 -0.0441  0.2673
  320loPI   C1B 5117   5.600   1.649  10.140  0.1955  0.0994 -0.1610
  320loPI   C2B 5118   5.518   1.666   9.665 -0.0115  0.2282 -0.1933
  320loPI   C3B 5119   5.555   1.711   9.219  0.1800 -0.1952  0.3245
  320loPI   C4B 5120   5.452   1.731   8.773 -0.1294 -0.1385 -0.3389
  321loPI    C1 5121  12.464  17.071  11.019 -0.1761 -0.0118 -0.0437
  321loPI    C2 5122  12.549  17.094  11.409 -0.2175  0.0737 -0.0395
  321loPI    C3 5123  12.169  17.063  11.289 -0.1997 -0.0321 -0.0699
  321loPI   PO4 5124  12.511  17.313  10.926  0.0652  0.1374  0.0781
  321loPI   GL1 5125  12.474  17.400  10.555  0.0842 -0.1219  0.2337
  321loPI   GL2 5126  12.424  17.097  10.414  0.1080  0.0169 -0.0866
  321loPI   C1A 5127  12.364  17.478  10.088  0.1130  0.1957  0.1823
  321loPI   C2A 5128  12.406  17.603   9.640 -0.0075 -0.0858 -0.0362
  321loPI   C3A 5129  12.335  17.600   9.178 -0.3338 -0.2347 -0.1597
  321loPI   C4A 5130  12.412  17.643   8.749  0.1814 -0.1606 -0.3022
  321loPI   C5A 5131  12.148  17.456   8.348 -0.0990 -0.1205  0.1148
  321loPI   C6A 5132  11.958  17.199   8.032  0.1494 -0.4375  0.0595
  321loPI   C1B 5133  12.402  16.987  10.037 -0.3270  0.0055  0.1890
  321loPI   C2B 5134  12.389  17.023   9.612  0.0085 -0.3035  0.0585
  321loPI   C3B 5135  12.378  16.991   9.148  0.0226 -0.1395 -0.3008
  321loPI   C4B 5136  12.355  17.141   8.765 -0.0160  0.0355  0.5104
  322loPI    C1 5137  14.237   1.232  11.363  0.0364  0.2428  0.3214
  322loPI    C2 5138  14.347   0.899  11.555 -0.0362  0.0376  0.0154
  322loPI    C3 5139  14.126   1.174  11.743  0.0232 -0.0852  0.2706
  322loPI   PO4 5140  14.232   1.122  11.117  0.1232  0.0385 -0.2152
  322loPI   GL1 5141  14.353   1.281  10.716 -0.1796 -0.2534  0.1075
  322loPI   GL2 5142  14.485   0.985  10.650 -0.0178  0.0565 -0.1947
  322loPI   C1A 5143  14.411   1.378  10.304  0.0997 -0.1716 -0.0832
  322loPI   C2A 5144  14.446   1.230   9.790  0.1478  0.1350  0.1717
  322loPI   C3A 5145  14.368   1.312   9.380  0.0826  0.0799 -0.3736
  322loPI   C4A 5146  14.359   1.360   8.998 -0.1886  0.3895 -0.1192
  322loPI   C5A 5147  14.095   1.139   8.707  0.0276 -0.1862 -0.1555
  322loPI   C6A 5148  14.103   0.826   8.376  0.1759  0.1573  0.0110
  322loPI   C1B 5149  14.427   0.719  10.306 -0.0194  0.0714  0.0329
  322loPI   C2B 5150  14.425   0.716   9.999 -0.2376  0.0383 -0.2422
  322loPI   C3B 5151  14.502   0.678   9.596 -0.0017  0.1169 -0.1028
  322loPI   C4B 5152  14.476   0.784   9.116  0.3753 -0.1341  0.1810
  323loPI    C1 5153   1.310  12.260  11.042 -0.0294  0.1419  0.2295
  323loPI    C2 5154   1.653  12.132  11.202 -0.0451 -0.1080  0.0676
  323loPI    C3 5155   1.358  12.258  11.439  0.1333  0.0465  0.2104
  323loPI   PO4 5156   1.307  12.216  10.819 -0.1445  0.1181  0.1150
  323loPI   GL1 5157   1.456  12.103  10.461  0.0784  0.1500 -0.1384
  323loPI   GL2 5158   1.162  12.041  10.399  0.2307 -0.1169  0.0149
  323loPI   C1A 5159   1.715  11.944  10.128 -0.4947 -0.2459  0.0610
  323loPI   C2A 5160   1.711  11.837   9.815  0.4062 -0.2500 -0.1640
  323loPI   C3A 5161   1.834  11.713   9.389 -0.1087 -0.0881  0.2240
  323loPI   C4A 5162   1.820  11.729   8.991  0.0882 -0.0630 -0.1090
  323loPI   C5A 5163   1.733  11.651   8.653 -0.1571 -0.1580 -0.2014
  323loPI   C6A 5164   1.926  11.522   8.261  0.1883 -0.0600  0.0511
  323loPI   C1B 5165   1.223  12.114   9.995 -0.3612  0.1728  0.2183
  323loPI   C2B 5166   1.253  11.942   9.559 -0.0023 -0.0097  0.1691
  323loPI   C3B 5167   1.269  11.939   9.110  0.2140 -0.1159  0.0437
  323loPI   C4B 5168   1.239  11.873   8.593 -0.0978  0.1879 -0.3634
  324loPI    C1 5169   6.044   7.934  11.043 -0.2805 -0.2010 -0.0245
  324loPI    C2 5170   6.125   7.645  11.307  0.0139 -0.0270  0.0812
  324loPI    C3 5171   6.034   8.012  11.436 -0.2114 -0.0333 -0.0551
  324loPI   PO4 5172   5.859   7.863  10.869 -0.0954 -0.0680 -0.2212
  324loPI   GL1 5173   5.824   7.915  10.450 -0.1330  0.0045  0.1750
  324loPI   GL2 5174   5.777   7.520  10.501  0.0001  0.1219  0.1016
  324loPI   C1A 5175   5.753   7.981   9.998 -0.0941 -0.0813 -0.0906
  324loPI   C2A 5176   5.708   7.994   9.620 -0.2122 -0.1593 -0.1368
  324loPI   C3A 5177   5.687   8.068   9.145 -0.0274 -0.1349  0.0939
  324loPI   C4A 5178   5.684   7.976   8.749  0.0726 -0.1587 -0.1409
  324loPI   C5A 5179   5.794   8.025   8.438 -0.3958  0.1485  0.2094
  324loPI   C6A 5180   5.614   8.059   8.058  0.0141 -0.0152 -0.1607
  324loPI   C1B 5181   5.732   7.447  10.006 -0.0220  0.1160 -0.1110
  324loPI   C2B 5182   5.724   7.506   9.582 -0.0515  0.1759 -0.1598
  324loPI   C3B 5183   5.715   7.521   9.128  0.2732  0.3699 -0.0326
  324loPI   C4B 5184   5.770   7.477   8.639 -0.0236 -0.0055  0.1129
  325loPI    C1 5185  13.959   4.894  11.322  0.1149 -0.3488 -0.0561
  325loPI    C2 5186  14.048   4.686  11.652 -0.1268 -0.2343  0.0837
  325loPI    C3 5187  13.728   4.926  11.647 -0.1156 -0.2223 -0.2298
  325loPI   PO4 5188  14.166   4.963  11.179  0.1009  0.2473 -0.0147
  325loPI   GL1 5189  14.316   4.694  10.913 -0.0015 -0.1715  0.0325
  325loPI   GL2 5190  14.370   4.953  10.642 -0.1053  0.1567  0.1693
  325loPI   C1A 5191  14.132   4.528  10.550  0.1314 -0.2744 -0.1905
  325loPI   C2A 5192  14.030   4.396  10.123  0.0115  0.1356 -0.2138
  325loPI   C3A 5193  14.045   4.431   9.693 -0.0754 -0.1764 -0.3641
  325loPI   C4A 5194  13.961   4.456   9.221 -0.0710  0.5488 -0.0603
  325loPI   C5A 5195  13.953   4.533   8.767 -0.3656 -0.2757  0.1357
  325loPI   C6A 5196  13.804   4.647   8.328  0.1487  0.2561 -0.0152
  325loPI   C1B 5197  14.495   4.830  10.261 -0.1187  0.1061  0.2116
  325loPI   C2B 5198  14.508   4.724   9.832  0.1000 -0.1138 -0.0919
  325loPI   C3B 5199  14.461   4.630   9.405  0.2976 -0.0205 -0.0617
  325loPI   C4B 5200  14.417   4.698   8.983  0.3506  0.1767  0.1764
  326loPI    C1 5201   3.574  14.465  10.793  0.0289 -0.2063  0.0268
  326loPI    C2 5202   3.865  14.546  11.056  0.0947 -0.1068 -0.0758
  326loPI    C3 5203   3.481  14.591  11.161  0.1243  0.0839 -0.0464
  326loPI   PO4 5204   3.692  14.578  10.603  0.4553  0.0740  0.0008
  326loPI   GL1 5205   3.762  14.868  10.343  0.2389  0.3394 -0.0596
  326loPI   GL2 5206   3.403  15.009  10.251 -0.0648  0.1828 -0.2929
  326loPI   C1A 5207   3.789  14.952   9.939  0.0967  0.2034 -0.3254
  326loPI   C2A 5208   3.908  14.946   9.490 -0.1282  0.0556 -0.0418
  326loPI   C3A 5209   3.660  14.883   9.146  0.1762 -0.2992 -0.1275
  326loPI   C4A 5210   3.793  14.830   8.738 -0.0029 -0.0170  0.0922
  326loPI   C5A 5211   3.984  14.947   8.250 -0.0819 -0.2324  0.1465
  326loPI   C6A 5212   3.866  15.086   7.928  0.0119  0.0162 -0.1714
  326loPI   C1B 5213   3.297  15.245   9.866  0.0335  0.0158 -0.2175
  326loPI   C2B 5214   3.409  15.163   9.493 -0.0578 -0.2579  0.1150
  326loPI   C3B 5215   3.235  15.163   9.086 -0.0370 -0.0729  0.1685
  326loPI   C4B 5216   3.361  15.113   8.741  0.3057  0.1718  0.1191
  327loPI    C1 5217   8.462  16.510  10.615  0.0850 -0.0880 -0.0961
  327loPI    C2 5218   8.636  16.561  10.971 -0.1352 -0.0405  0.0065
  327loPI    C3 5219   8.266  16.698  10.909 -0.1108 -0.0789 -0.2308
  327loPI   PO4 5220   8.607  16.518  10.448 -0.1651  0.0926 -0.1678
  327loPI   GL1 5221   8.478  16.569  10.003 -0.0747  0.0738 -0.2680
  327loPI   GL2 5222   8.239  16.451   9.799 -0.2525  0.2661  0.0618
  327loPI   C1A 5223   8.594  16.822   9.573 -0.0759 -0.2450 -0.2056
  327loPI   C2A 5224   8.638  16.715   9.148 -0.0425  0.1570  0.1318
  327loPI   C3A 5225   8.589  16.639   8.795 -0.2943  0.2406  0.1014
  327loPI   C4A 5226   8.665  16.715   8.416  0.0169 -0.0424  0.2315
  327loPI   C5A 5227   8.707  16.613   7.972  0.0679 -0.0568  0.0636
  327loPI   C6A 5228   8.329  16.744   7.772  0.2471 -0.3234 -0.0833
  327loPI   C1B 5229   8.268  16.389   9.414 -0.0622 -0.4594 -0.1197
  327loPI   C2B 5230   8.187  16.392   8.969  0.0074 -0.0562 -0.0638
  327loPI   C3B 5231   8.128  16.371   8.487 -0.2433 -0.1774 -0.1183
  327loPI   C4B 5232   8.166  16.268   8.102 -0.0473  0.0994 -0.0788
  328loPI    C1 5233   6.217  13.339  10.827  0.1548  0.1892  0.1755
  328loPI    C2 5234   6.253  12.964  10.963  0.1739  0.0985 -0.0730
  328loPI    C3 5235   6.062  13.240  11.182  0.2483 -0.0299  0.1567
  328loPI   PO4 5236   6.210  13.327  10.593 -0.2283 -0.1023 -0.1147
  328loPI   GL1 5237   6.261  13.417  10.191  0.0042  0.0627 -0.0156
  328loPI   GL2 5238   6.077  13.628  10.068  0.0958  0.1646 -0.2283
  328loPI   C1A 5239   6.368  13.367   9.724  0.1647 -0.1033  0.0992
  328loPI   C2A 5240   6.321  13.367   9.271 -0.3154  0.0673 -0.3284
  328loPI   C3A 5241   6.341  13.256   8.780 -0.2651 -0.0181  0.2495
  328loPI   C4A 5242   6.231  13.151   8.369  0.2307 -0.0163 -0.0038
  328loPI   C5A 5243   5.900  13.113   8.113 -0.0660  0.2169  0.3296
  328loPI   C6A 5244   5.727  13.076   7.723  0.1685 -0.1995 -0.4176
  328loPI   C1B 5245   5.910  13.598   9.692 -0.0220  0.0503 -0.1795
  328loPI   C2B 5246   5.805  13.648   9.292  0.1801  0.0052 -0.3175
  328loPI   C3B 5247   5.762  13.522   8.821  0.0592  0.0240 -0.0883
  328loPI   C4B 5248   5.704  13.424   8.440  0.0840 -0.0310  0.0129
  329loPI    C1 5249   4.041   2.318  11.474  0.2185 -0.0356 -0.2276
  329loPI    C2 5250   4.367   2.510  11.603  0.1122  0.0909 -0.1437
  329loPI    C3 5251   4.230   2.193  11.804 -0.0379  0.2719  0.0429
  329loPI   PO4 5252   4.111   2.218  11.206 -0.0067 -0.2843 -0.2497
  329loPI   GL1 5253   4.163   2.077  10.699  0.0246 -0.3470 -0.5920
  329loPI   GL2 5254   4.168   2.416  10.576 -0.0809  0.0961 -0.1407
  329loPI   C1A 5255   4.056   1.844  10.315 -0.0951 -0.2219  0.1757
  329loPI   C2A 5256   4.113   1.854   9.954  0.1134  0.0858  0.1961
  329loPI   C3A 5257   4.098   1.823   9.475  0.0604  0.1258  0.0859
  329loPI   C4A 5258   4.184   1.888   9.011 -0.0570 -0.1814 -0.1857
  329loPI   C5A 5259   4.043   1.998   8.601  0.1723 -0.2182  0.0640
  329loPI   C6A 5260   3.804   2.352   8.420 -0.0039  0.1537  0.3555
  329loPI   C1B 5261   4.114   2.332  10.166 -0.1668  0.2107 -0.2363
  329loPI   C2B 5262   3.997   2.295   9.760  0.0128  0.5351  0.1090
  329loPI   C3B 5263   4.124   2.280   9.274 -0.1847  0.2987  0.4726
  329loPI   C4B 5264   4.001   2.370   8.892 -0.1744  0.2799 -0.1113
  330loPI    C1 5265   4.412  14.588  11.047  0.3100  0.0510  0.1650
  330loPI    C2 5266   4.605  14.893  11.221 -0.2389  0.3838  0.2136
  330loPI    C3 5267   4.340  14.678  11.430  0.0103 -0.0184  0.1273
  330loPI   PO4 5268   4.530  14.530  10.750  0.0452 -0.3231 -0.1278
  330loPI   GL1 5269   4.241  14.646  10.422  0.2449 -0.2137  0.0905
  330loPI   GL2 5270   4.144  14.875  10.687  0.2437 -0.1572 -0.1162
  330loPI   C1A 5271   4.268  14.761   9.994 -0.0020 -0.0097 -0.1719
  330loPI   C2A 5272   4.411  14.779   9.566 -0.1224  0.1375  0.0278
  330loPI   C3A 5273   4.298  14.695   9.126  0.3523  0.3276 -0.1407
  330loPI   C4A 5274   4.344  14.706   8.674  0.1973  0.2661  0.0645
  330loPI   C5A 5275   4.383  14.515   8.267 -0.0382 -0.2681 -0.0323
  330loPI   C6A 5276   4.260  14.185   7.994 -0.0245  0.3115  0.0688
  330loPI   C1B 5277   4.195  15.169  10.294  0.1519 -0.1273 -0.1006
  330loPI   C2B 5278   4.272  15.199   9.763  0.4049 -0.0722 -0.3102
  330loPI   C3B 5279   4.304  15.213   9.277  0.3013 -0.1244  0.0643
  330loPI   C4B 5280   4.216  15.215   8.919  0.2587 -0.0066 -0.0448
  331loPI    C1 5281   2.110  10.323  10.838 -0.1776 -0.2530 -0.2752
  331loPI    C2 5282   2.294  10.075  11.092 -0.1495 -0.3117 -0.3526
  331loPI    C3 5283   1.896  10.112  11.102 -0.1131  0.0551  0.0310
  331loPI   PO4 5284   2.251  10.198  10.589  0.1582 -0.3602 -0.0283
  331loPI   GL1 5285   2.210   9.849  10.231 -0.0167  0.1068  0.3489
  331loPI   GL2 5286   1.994   9.600  10.201  0.0608  0.1360  0.1406
  331loPI   C1A 5287   2.340  10.007   9.863 -0.0884  0.0462  0.0301
  331loPI   C2A 5288   2.330  10.068   9.382  0.2419 -0.1010  0.0990
  331loPI   C3A 5289   2.384  10.017   8.989 -0.2749 -0.0702 -0.0292
  331loPI   C4A 5290   2.448   9.928   8.535  0.0534  0.1858 -0.1104
  331loPI   C5A 5291   2.374   9.915   8.119 -0.0998  0.0373 -0.1044
  331loPI   C6A 5292   2.701   9.810   7.832 -0.0565 -0.1381 -0.0594
  331loPI   C1B 5293   1.945   9.689   9.721 -0.0985  0.3727  0.0030
  331loPI   C2B 5294   2.002   9.728   9.352 -0.0289  0.0603  0.0733
  331loPI   C3B 5295   2.033   9.710   8.914 -0.3752 -0.2008  0.2546
  331loPI   C4B 5296   2.029   9.656   8.556 -0.2995  0.1281 -0.1661
  332loPI    C1 5297   0.804   6.813  11.119  0.0408 -0.1680  0.0561
  332loPI    C2 5298   0.416   6.782  11.209  0.0240 -0.0783  0.0159
  332loPI    C3 5299   0.655   7.012  11.432  0.0570 -0.1434  0.0481
  332loPI   PO4 5300   0.744   6.889  10.826  0.1871  0.0218  0.2480
  332loPI   GL1 5301   0.829   7.140  10.380 -0.1030  0.0366  0.0107
  332loPI   GL2 5302   0.995   6.881  10.373  0.0286  0.1266  0.2388
  332loPI   C1A 5303   0.921   7.273   9.916  0.0023  0.1308 -0.0562
  332loPI   C2A 5304   0.905   7.358   9.492  0.0056  0.0425  0.1856
  332loPI   C3A 5305   0.745   7.231   9.024  0.0328  0.0165  0.0770
  332loPI   C4A 5306   0.835   7.346   8.597  0.1972  0.1368 -0.1485
  332loPI   C5A 5307   0.613   7.125   8.289 -0.1085  0.3974 -0.0057
  332loPI   C6A 5308   0.734   7.028   7.883  0.0152  0.1091  0.2918
  332loPI   C1B 5309   0.921   6.730   9.897 -0.1994 -0.1756 -0.2078
  332loPI   C2B 5310   0.836   6.860   9.452 -0.1597 -0.0195 -0.0019
  332loPI   C3B 5311   0.880   6.740   9.038  0.4009 -0.1042  0.4031
  332loPI   C4B 5312   0.912   6.810   8.589  0.1764 -0.0664 -0.1190
  333loPI    C1 5313  16.117   7.373  11.142 -0.0272 -0.3304 -0.1112
  333loPI    C2 5314  15.823   7.117  11.231 -0.2465 -0.1702 -0.3579
  333loPI    C3 5315  15.749   7.510  11.216  0.0417 -0.1057 -0.1755
  333loPI   PO4 5316  16.291   7.414  10.856 -0.5032  0.1115 -0.4737
  333loPI   GL1 5317  16.620   7.276  10.482  0.0270  0.0641  0.1264
  333loPI   GL2 5318  16.872   7.071  10.324 -0.0453 -0.0057 -0.1205
  333loPI   C1A 5319  16.489   7.304  10.052 -0.0971  0.3539  0.2538
  333loPI   C2A 5320  16.432   7.261   9.658 -0.1897  0.1547 -0.1365
  333loPI   C3A 5321  16.470   7.368   9.251  0.1289 -0.0342 -0.1299
  333loPI   C4A 5322  16.438   7.280   8.714  0.2150  0.1524  0.0210
  333loPI   C5A 5323  16.497   7.080   8.240  0.1491  0.3200 -0.1726
  333loPI   C6A 5324  16.820   6.938   8.075 -0.1159  0.0423  0.4030
  333loPI   C1B 5325  16.942   7.111   9.827  0.1899 -0.2337  0.0955
  333loPI   C2B 5326  16.857   7.072   9.393  0.1564 -0.1006  0.1123
  333loPI   C3B 5327  16.903   7.054   8.960  0.1787  0.2440  0.1234
  333loPI   C4B 5328  16.910   7.141   8.555 -0.2183  0.3034 -0.1801
  334loPI    C1 5329   0.427   7.759  11.239  0.1210  0.2991  0.0454
  334loPI    C2 5330   0.540   7.493  11.516  0.0132  0.1204 -0.0799
  334loPI    C3 5331   0.418   7.858  11.627  0.1448  0.1128  0.0942
  334loPI   PO4 5332   0.249   7.737  11.104 -0.3256  0.0929  0.1850
  334loPI   GL1 5333   0.268   7.718  10.671 -0.2038  0.1795 -0.1391
  334loPI   GL2 5334  -0.039   7.712  10.451 -0.0106 -0.1723 -0.0742
  334loPI   C1A 5335   0.647   7.741  10.407 -0.0285 -0.1877  0.2965
  334loPI   C2A 5336   0.820   7.733   9.972  0.0006  0.0013  0.0787
  334loPI   C3A 5337   0.875   7.801   9.614 -0.1303  0.0041  0.0215
  334loPI   C4A 5338   0.766   7.751   9.097 -0.0303  0.2362  0.1230
  334loPI   C5A 5339   0.770   7.851   8.648  0.1593  0.0256 -0.1007
  334loPI   C6A 5340   0.674   7.628   8.208 -0.0284  0.2854  0.0979
  334loPI   C1B 5341  -0.009   7.770   9.967  0.0186  0.2830  0.1036
  334loPI   C2B 5342  -0.061   7.789   9.530 -0.1636 -0.0203 -0.0203
  334loPI   C3B 5343  -0.079   7.797   9.115 -0.1049  0.1985  0.3117
  334loPI   C4B 5344  -0.188   7.661   8.734  0.0712  0.2397  0.0782
  335loPI    C1 5345   2.497   4.618  11.454  0.1657 -0.0028 -0.2498
  335loPI    C2 5346   2.611   4.685  11.831  0.1392  0.1494 -0.2679
  335loPI    C3 5347   2.616   4.313  11.683  0.0810  0.0790 -0.0956
  335loPI   PO4 5348   2.668   4.768  11.276  0.0347  0.2238 -0.2910
  335loPI   GL1 5349   2.594   4.810  10.836 -0.1619 -0.1376 -0.1155
  335loPI   GL2 5350   2.857   4.737  10.767  0.3259 -0.4271 -0.0679
  335loPI   C1A 5351   2.449   4.922  10.434  0.0930 -0.0820  0.0525
  335loPI   C2A 5352   2.373   5.059  10.011 -0.3308  0.0026 -0.2944
  335loPI   C3A 5353   2.359   5.089   9.553 -0.2635 -0.0584  0.2240
  335loPI   C4A 5354   2.387   5.094   9.074 -0.1690  0.2070  0.0205
  335loPI   C5A 5355   2.465   5.204   8.580 -0.0635  0.2292  0.1056
  335loPI   C6A 5356   2.339   5.344   8.239  0.2399  0.0691  0.2207
  335loPI   C1B 5357   2.910   4.783  10.384 -0.2526 -0.0136 -0.0870
  335loPI   C2B 5358   2.840   4.837   9.975  0.0237 -0.1395 -0.0408
  335loPI   C3B 5359   2.869   4.869   9.506  0.0241  0.2115 -0.0693
  335loPI   C4B 5360   2.858   4.958   8.999 -0.1227 -0.0940  0.2583
  336loPI    C1 5361   9.672   4.348  11.362  0.1625 -0.1783  0.1521
  336loPI    C2 5362   9.321   4.246  11.525 -0.1484  0.1384 -0.2941
  336loPI    C3 5363   9.628   4.350  11.760 -0.2682 -0.3777  0.1114
  336loPI   PO4 5364   9.723   4.163  11.159 -0.0805  0.1248  0.2533
  336loPI   GL1 5365   9.761   4.285  10.626  0.0660 -0.0232 -0.2012
  336loPI   GL2 5366  10.031   4.304  10.498  0.4587  0.0913 -0.0730
  336loPI   C1A 5367   9.634   4.399  10.126 -0.0228 -0.1468 -0.1942
  336loPI   C2A 5368   9.714   4.277   9.737 -0.0558  0.2301  0.0528
  336loPI   C3A 5369   9.589   4.243   9.271  0.0542 -0.3009  0.2700
  336loPI   C4A 5370   9.609   4.224   8.902 -0.0617 -0.1630  0.1119
  336loPI   C5A 5371   9.638   4.267   8.464 -0.3520 -0.1303  0.1504
  336loPI   C6A 5372   9.420   4.361   8.010 -0.2829  0.1031 -0.0383
  336loPI   C1B 5373  10.073   4.136  10.048  0.1402 -0.1213 -0.2058
  336loPI   C2B 5374  10.157   4.041   9.671 -0.0000  0.1713  0.0080
  336loPI   C3B 5375  10.090   4.157   9.264 -0.1108 -0.0573  0.0913
  336loPI   C4B 5376  10.071   4.062   8.789  0.0002 -0.0299  0.0676
  337loPI    C1 5377   4.273   9.826  11.062 -0.0150 -0.3614 -0.1776
  337loPI    C2 5378   3.951   9.781  10.830 -0.1276 -0.1324 -0.0680
  337loPI    C3 5379   3.911   9.791  11.227  0.0546 -0.4367 -0.0390
  337loPI   PO4 5380   4.534   9.680  10.979 -0.1753  0.3461  0.0670
  337loPI   GL1 5381   4.764   9.507  10.682  0.2159 -0.0199 -0.0259
  337loPI   GL2 5382   5.082   9.507  10.559 -0.1052 -0.0489 -0.2079
  337loPI   C1A 5383   4.650   9.494  10.189 -0.3020 -0.0012  0.0261
  337loPI   C2A 5384   4.740   9.535   9.772  0.2948  0.4783  0.2239
  337loPI   C3A 5385   4.713   9.403   9.348 -0.1010  0.2987 -0.0556
  337loPI   C4A 5386   4.667   9.560   8.884  0.0676 -0.0502  0.0336
  337loPI   C5A 5387   4.507   9.444   8.465  0.1842 -0.0986  0.0996
  337loPI   C6A 5388   4.738   9.579   8.054 -0.0863 -0.1892  0.1729
  337loPI   C1B 5389   5.144   9.354  10.151  0.2628 -0.1350 -0.0118
  337loPI   C2B 5390   5.145   9.258   9.712  0.0746  0.1653  0.1142
  337loPI   C3B 5391   5.175   9.192   9.311 -0.0186  0.0576 -0.1672
  337loPI   C4B 5392   5.159   9.359   8.855  0.2017 -0.0656  0.1030
  338loPI    C1 5393   0.215  17.791  11.413 -0.0009 -0.0890 -0.2682
  338loPI    C2 5394   0.242  17.392  11.435 -0.0340 -0.0828 -0.1025
  338loPI    C3 5395   0.037  17.595  11.713  0.0012  0.0521 -0.1738
  338loPI   PO4 5396   0.144  17.880  11.191  0.3068 -0.0387  0.3658
  338loPI   GL1 5397   0.071  17.903  10.782  0.1909 -0.0713  0.2033
  338loPI   GL2 5398  -0.225  18.030  10.618 -0.2802 -0.4876  0.2464
  338loPI   C1A 5399   0.301  17.983  10.447 -0.2268  0.1725  0.0528
  338loPI   C2A 5400   0.276  17.952  10.086  0.1900  0.1874  0.2782
  338loPI   C3A 5401   0.281  17.917   9.629 -0.2732 -0.1487 -0.1022
  338loPI   C4A 5402   0.300  17.971   9.198  0.0027  0.1146  0.1407
  338loPI   C5A 5403   0.306  18.086   8.818 -0.0967  0.0596  0.2045
  338loPI   C6A 5404   0.056  18.197   8.494 -0.4827 -0.1295  0.4853
  338loPI   C1B 5405  -0.158  18.168  10.217 -0.1268 -0.1791 -0.0108
  338loPI   C2B 5406  -0.193  18.081   9.764  0.0958 -0.1056  0.0597
  338loPI   C3B 5407  -0.205  18.109   9.368  0.2111 -0.1171  0.4189
  338loPI   C4B 5408  -0.104  18.140   8.991 -0.2206  0.2756 -0.2312
  339loPI    C1 5409   3.581   1.135  11.114  0.1874  0.0298 -0.0423
  339loPI    C2 5410   3.862   1.322  11.328  0.1798 -0.1090  0.0901
  339loPI    C3 5411   3.685   0.994  11.473 -0.1841  0.0831  0.0899
  339loPI   PO4 5412   3.540   1.300  10.832 -0.1161 -0.2226 -0.0691
  339loPI   GL1 5413   3.807   1.452  10.493  0.1030 -0.0185  0.1302
  339loPI   GL2 5414   4.115   1.463  10.621 -0.1817  0.1053  0.0382
  339loPI   C1A 5415   3.660   1.492   9.992  0.0997  0.1802  0.1044
  339loPI   C2A 5416   3.647   1.504   9.541  0.2875 -0.1444 -0.0388
  339loPI   C3A 5417   3.626   1.518   9.175 -0.1629  0.0328  0.2119
  339loPI   C4A 5418   3.879   1.566   8.731 -0.0385 -0.1527  0.0520
  339loPI   C5A 5419   3.711   1.589   8.368 -0.2285 -0.0830  0.2596
  339loPI   C6A 5420   3.701   1.635   7.936 -0.0303  0.1530  0.0881
  339loPI   C1B 5421   4.184   1.369  10.186  0.2504  0.1213  0.1108
  339loPI   C2B 5422   4.103   1.302   9.740 -0.2679 -0.0747  0.1265
  339loPI   C3B 5423   4.128   1.327   9.285  0.3820 -0.1930  0.0166
  339loPI   C4B 5424   4.235   1.230   8.967  0.2317  0.1922  0.1183
  340loPI    C1 5425  10.272  14.727  10.546  0.0402  0.1454 -0.0053
  340loPI    C2 5426  10.394  14.791  10.922  0.0408  0.0993  0.0025
  340loPI    C3 5427  10.019  14.671  10.851  0.0718  0.0050 -0.0040
  340loPI   PO4 5428  10.485  14.601  10.462 -0.2508 -0.0224 -0.2194
  340loPI   GL1 5429  10.565  14.361  10.126  0.0776  0.1980 -0.1803
  340loPI   GL2 5430  10.307  14.140  10.166 -0.2888  0.3310  0.0337
  340loPI   C1A 5431  10.743  14.280   9.695 -0.2226  0.2113 -0.3298
  340loPI   C2A 5432  10.803  14.270   9.242  0.1210  0.0266 -0.1791
  340loPI   C3A 5433  10.839  14.307   8.779  0.0332 -0.3380 -0.3195
  340loPI   C4A 5434  10.837  14.409   8.338  0.0847  0.0328 -0.0245
  340loPI   C5A 5435  10.885  14.430   7.881  0.2305  0.1231  0.0339
  340loPI   C6A 5436  10.848  14.234   7.543  0.0593  0.0427  0.2592
  340loPI   C1B 5437  10.260  13.941   9.764 -0.0411 -0.0018  0.0572
  340loPI   C2B 5438  10.261  13.929   9.374 -0.1773 -0.1486  0.0001
  340loPI   C3B 5439  10.398  14.016   8.912 -0.1065 -0.2787 -0.0246
  340loPI   C4B 5440  10.476  14.074   8.554 -0.1425  0.0852 -0.1458
  341loPI    C1 5441  15.196   7.629  10.766 -0.0661  0.1844  0.0554
  341loPI    C2 5442  15.166   7.722  11.154 -0.0953  0.2186  0.0450
  341loPI    C3 5443  14.928   7.442  10.997 -0.0341  0.1535  0.0677
  341loPI   PO4 5444  15.424   7.612  10.739 -0.1270  0.1037 -0.0383
  341loPI   GL1 5445  15.583   7.660  10.426  0.0661 -0.1345  0.5438
  341loPI   GL2 5446  15.854   7.930  10.279 -0.1269 -0.3496 -0.0615
  341loPI   C1A 5447  15.542   7.643   9.918 -0.0037  0.1700 -0.1847
  341loPI   C2A 5448  15.491   7.719   9.416  0.2527  0.0170  0.0242
  341loPI   C3A 5449  15.481   7.669   8.973 -0.1991  0.3571 -0.1086
  341loPI   C4A 5450  15.500   7.729   8.520 -0.2004 -0.0031  0.1592
  341loPI   C5A 5451  15.426   7.578   8.103 -0.4202 -0.2149 -0.0111
  341loPI   C6A 5452  15.351   7.451   7.753 -0.3632 -0.2713  0.1477
  341loPI   C1B 5453  15.839   7.993   9.785 -0.0736  0.5031 -0.1278
  341loPI   C2B 5454  15.894   7.963   9.307  0.2557 -0.1975 -0.2142
  341loPI   C3B 5455  15.918   8.074   8.882  0.2150  0.0208 -0.1818
  341loPI   C4B 5456  15.804   8.152   8.522  0.1196  0.2323  0.0457
  342loPI    C1 5457   6.610   3.794  11.354  0.0009 -0.0297  0.2144
  342loPI    C2 5458   6.399   4.128  11.417  0.0473  0.0147  0.1358
  342loPI    C3 5459   6.383   3.828  11.682 -0.2446 -0.0499  0.0485
  342loPI   PO4 5460   6.619   3.744  11.032  0.1493 -0.0540 -0.1631
  342loPI   GL1 5461   6.769   3.751  10.595  0.2743 -0.0971 -0.4930
  342loPI   GL2 5462   7.156   3.937  10.527 -0.1262 -0.3822  0.0434
  342loPI   C1A 5463   6.663   3.639  10.199 -0.0664  0.0447  0.3077
  342loPI   C2A 5464   6.602   3.715   9.830 -0.2849  0.0356  0.0784
  342loPI   C3A 5465   6.582   3.626   9.444  0.0590 -0.1126 -0.0174
  342loPI   C4A 5466   6.583   3.719   8.995  0.0287 -0.3628 -0.1389
  342loPI   C5A 5467   6.613   3.656   8.526  0.0578  0.0545  0.1556
  342loPI   C6A 5468   6.956   3.895   8.205  0.1167  0.0162  0.3282
  342loPI   C1B 5469   7.062   3.999  10.078  0.1906  0.1394  0.1214
  342loPI   C2B 5470   6.995   3.981   9.608 -0.0636  0.2342 -0.0358
  342loPI   C3B 5471   7.019   3.886   9.165  0.0806  0.0562  0.1983
  342loPI   C4B 5472   6.923   3.964   8.744  0.0570 -0.0359  0.0734
  343loPI    C1 5473   6.897   9.200  11.421 -0.0378 -0.1088 -0.2097
  343loPI    C2 5474   6.641   8.898  11.472  0.0733 -0.2030 -0.2063
  343loPI    C3 5475   6.604   9.230  11.691  0.0505 -0.2795 -0.0936
  343loPI   PO4 5476   6.964   9.220  11.148 -0.1319 -0.1976 -0.1346
  343loPI   GL1 5477   7.077   9.372  10.717  0.0476 -0.0287  0.0178
  343loPI   GL2 5478   7.037   9.555  10.537 -0.1326  0.0095 -0.0735
  343loPI   C1A 5479   6.991   9.045  10.309  0.1789 -0.1310 -0.4710
  343loPI   C2A 5480   7.013   9.019   9.850  0.0896  0.0571 -0.0225
  343loPI   C3A 5481   7.042   8.951   9.470 -0.0185 -0.1098  0.0514
  343loPI   C4A 5482   7.086   8.981   9.102 -0.1074 -0.0640  0.2162
  343loPI   C5A 5483   7.067   8.760   8.636 -0.2211  0.2263  0.0510
  343loPI   C6A 5484   7.238   8.625   8.175  0.1189 -0.0674  0.0335
  343loPI   C1B 5485   7.029   9.541  10.113 -0.0945  0.0564  0.0818
  343loPI   C2B 5486   6.866   9.442   9.671  0.2757 -0.3465 -0.0880
  343loPI   C3B 5487   6.915   9.535   9.268 -0.2233  0.1546 -0.1492
  343loPI   C4B 5488   7.052   9.427   8.828 -0.2256  0.2630 -0.0610
  344loPI    C1 5489  13.666  12.659  11.332  0.1227  0.1719  0.1167
  344loPI    C2 5490  13.881  12.323  11.354  0.0197  0.0937 -0.0565
  344loPI    C3 5491  13.553  12.365  11.578  0.0001  0.0544 -0.0777
  344loPI   PO4 5492  13.678  12.707  11.101  0.0870  0.0030 -0.1761
  344loPI   GL1 5493  13.513  12.637  10.694 -0.1097  0.2954 -0.1174
  344loPI   GL2 5494  13.763  12.493  10.521  0.0371 -0.3132  0.2606
  344loPI   C1A 5495  13.585  12.857  10.278 -0.0097 -0.1424  0.2047
  344loPI   C2A 5496  13.470  13.065   9.927 -0.1545  0.1689  0.2199
  344loPI   C3A 5497  13.607  13.046   9.519  0.0191 -0.1875 -0.2641
  344loPI   C4A 5498  13.538  13.021   9.118  0.1155  0.1105  0.1753
  344loPI   C5A 5499  13.649  13.004   8.752 -0.2515  0.0766 -0.2816
  344loPI   C6A 5500  13.792  13.240   8.486  0.0849 -0.0748  0.2413
  344loPI   C1B 5501  14.036  12.266  10.278  0.0621  0.0460 -0.0737
  344loPI   C2B 5502  14.150  12.328   9.897  0.2087 -0.1442  0.1469
  344loPI   C3B 5503  14.054  12.278   9.483 -0.2059  0.2376 -0.3988
  344loPI   C4B 5504  14.066  12.233   8.993 -0.2510 -0.0417 -0.0252
  345loPI    C1 5505   0.411  13.042  11.153  0.0697  0.0978  0.1036
  345loPI    C2 5506   0.582  12.738  11.348 -0.3451 -0.4054 -0.2879
  345loPI    C3 5507   0.237  12.891  11.479 -0.2769 -0.2851 -0.2471
  345loPI   PO4 5508   0.422  12.965  10.913 -0.0806 -0.2055  0.0900
  345loPI   GL1 5509   0.268  12.955  10.481 -0.0004 -0.0478 -0.1833
  345loPI   GL2 5510  -0.046  13.066  10.585  0.0474  0.0817 -0.2427
  345loPI   C1A 5511   0.267  12.979   9.994  0.0201 -0.1352  0.1580
  345loPI   C2A 5512   0.180  13.026   9.559 -0.2255 -0.3118  0.0257
  345loPI   C3A 5513   0.362  12.849   9.278 -0.2019  0.2216 -0.0615
  345loPI   C4A 5514   0.215  12.862   8.797 -0.1492 -0.3276  0.1593
  345loPI   C5A 5515   0.034  12.900   8.335 -0.2365 -0.1787 -0.3616
  345loPI   C6A 5516  -0.184  13.043   7.920  0.0655 -0.0130  0.1685
  345loPI   C1B 5517  -0.170  13.143  10.212 -0.1439  0.3673  0.2530
  345loPI   C2B 5518  -0.269  13.202   9.811 -0.0310 -0.2608 -0.0674
  345loPI   C3B 5519  -0.293  13.245   9.416 -0.2026 -0.1153 -0.0278
  345loPI   C4B 5520  -0.175  13.069   9.050 -0.0686 -0.0441 -0.0354
  346loPI    C1 5521  15.973   5.313  11.375 -0.1784  0.3504  0.0158
  346loPI    C2 5522  15.722   5.194  11.664  0.0178 -0.0599  0.0246
  346loPI    C3 5523  16.109   5.254  11.747  0.0028  0.1868 -0.0748
  346loPI   PO4 5524  15.933   5.134  11.149  0.1818  0.1499 -0.0735
  346loPI   GL1 5525  15.592   4.952  10.786 -0.4404 -0.3326 -0.0905
  346loPI   GL2 5526  15.779   5.083  10.636 -0.0148 -0.0520  0.2790
  346loPI   C1A 5527  15.385   4.796  10.496  0.1436 -0.1324  0.1420
  346loPI   C2A 5528  15.364   4.836  10.084 -0.0101  0.0774  0.1457
  346loPI   C3A 5529  15.378   4.765   9.532 -0.0667 -0.0788  0.1285
  346loPI   C4A 5530  15.337   4.775   9.170 -0.0429  0.0961  0.1189
  346loPI   C5A 5531  15.339   4.727   8.740 -0.4909  0.0824  0.0647
  346loPI   C6A 5532  15.040   4.622   8.381  0.3523  0.1398 -0.2964
  346loPI   C1B 5533  15.720   5.077  10.209 -0.1881  0.1197 -0.0403
  346loPI   C2B 5534  15.731   5.069   9.781 -0.1533  0.2165  0.0789
  346loPI   C3B 5535  15.858   5.067   9.356  0.1868  0.1306 -0.1994
  346loPI   C4B 5536  15.807   5.086   8.993  0.3360 -0.3533 -0.0105
  347loPI    C1 5537  10.164   3.934  11.075  0.1468  0.3439 -0.1200
  347loPI    C2 5538  10.480   3.848  11.305 -0.1257 -0.1138  0.0976
  347loPI    C3 5539  10.153   4.012  11.467 -0.1068  0.0981 -0.0746
  347loPI   PO4 5540  10.241   3.990  10.829 -0.3473  0.1261 -0.1244
  347loPI   GL1 5541  10.537   3.956  10.427  0.1252 -0.0217 -0.1957
  347loPI   GL2 5542  10.583   3.618  10.470  0.1917  0.0512 -0.1115
  347loPI   C1A 5543  10.564   3.986   9.989 -0.0135  0.0248  0.1518
  347loPI   C2A 5544  10.640   3.952   9.528 -0.0006  0.0684  0.0142
  347loPI   C3A 5545  10.482   3.887   9.072 -0.0362  0.1198 -0.0791
  347loPI   C4A 5546  10.385   3.763   8.612 -0.1593 -0.2822  0.1461
  347loPI   C5A 5547  10.107   3.750   8.267  0.3697  0.2375 -0.1193
  347loPI   C6A 5548   9.715   3.553   8.194  0.1822 -0.0230  0.0082
  347loPI   C1B 5549  10.667   3.504  10.092  0.0902 -0.2782 -0.1113
  347loPI   C2B 5550  10.692   3.482   9.641  0.1770  0.1143  0.2206
  347loPI   C3B 5551  10.615   3.362   9.283  0.1940 -0.1070  0.2237
  347loPI   C4B 5552  10.586   3.393   8.886 -0.3738  0.0065  0.0222
  348loPI    C1 5553  11.313  11.088  11.046 -0.1836  0.0366  0.1582
  348loPI    C2 5554  11.401  11.332  11.351 -0.1275 -0.0056  0.1762
  348loPI    C3 5555  11.468  10.939  11.384  0.0435  0.0118  0.0450
  348loPI   PO4 5556  11.432  11.146  10.852  0.0663 -0.1111 -0.1755
  348loPI   GL1 5557  11.580  11.351  10.422 -0.0936  0.1031  0.0410
  348loPI   GL2 5558  11.334  11.469  10.190  0.2476  0.0012  0.0082
  348loPI   C1A 5559  11.758  11.151  10.105 -0.1252 -0.0804 -0.2467
  348loPI   C2A 5560  11.862  11.286   9.737 -0.0028  0.3126  0.0628
  348loPI   C3A 5561  11.853  11.337   9.187 -0.0645  0.0885 -0.1895
  348loPI   C4A 5562  11.899  11.288   8.792  0.0414  0.0337 -0.0244
  348loPI   C5A 5563  11.850  11.458   8.481 -0.0438 -0.1504 -0.3182
  348loPI   C6A 5564  12.186  11.431   8.114  0.2487 -0.2208 -0.0728
  348loPI   C1B 5565  11.345  11.382   9.827  0.2523 -0.0206  0.3124
  348loPI   C2B 5566  11.299  11.458   9.347 -0.1636 -0.0409  0.0624
  348loPI   C3B 5567  11.435  11.541   8.900  0.0976  0.0030 -0.1468
  348loPI   C4B 5568  11.328  11.339   8.387 -0.0948 -0.2135 -0.1189
  349loPI    C1 5569   1.054   7.280  10.864  0.0027 -0.3531  0.0078
  349loPI    C2 5570   0.927   7.480  11.186 -0.1207 -0.1118 -0.1868
  349loPI    C3 5571   1.166   7.162  11.229 -0.0952 -0.0523  0.1383
  349loPI   PO4 5572   1.103   7.437  10.726  0.0516  0.1198 -0.1561
  349loPI   GL1 5573   1.133   7.571  10.351  0.0817 -0.1104 -0.0151
  349loPI   GL2 5574   1.095   7.905  10.585 -0.0435 -0.1628  0.0395
  349loPI   C1A 5575   1.326   7.621   9.945  0.1817 -0.1735  0.0194
  349loPI   C2A 5576   1.328   7.666   9.548  0.2027 -0.0612 -0.3400
  349loPI   C3A 5577   1.285   7.583   9.123  0.2046 -0.0534  0.0416
  349loPI   C4A 5578   1.363   7.599   8.674  0.3748  0.0869  0.0275
  349loPI   C5A 5579   1.531   7.352   8.353 -0.0310  0.0869  0.0763
  349loPI   C6A 5580   1.614   6.953   8.251  0.1705  0.1490 -0.1234
  349loPI   C1B 5581   1.228   8.045  10.197  0.1594  0.2236  0.1533
  349loPI   C2B 5582   1.220   8.121   9.713  0.0152 -0.1306 -0.1955
  349loPI   C3B 5583   1.223   8.096   9.292 -0.1921  0.1543  0.2363
  349loPI   C4B 5584   1.159   8.067   8.857 -0.2931 -0.0172 -0.3528
  350loPI    C1 5585   6.740   9.706  10.914 -0.1452  0.0557  0.0508
  350loPI    C2 5586   6.496  10.017  10.972  0.0825  0.2216  0.1361
  350loPI    C3 5587   6.715   9.995  10.638  0.0971  0.1734  0.1489
  350loPI   PO4 5588   6.543   9.419  10.806 -0.1270  0.0669 -0.2645
  350loPI   GL1 5589   6.575   9.276  10.426 -0.3072  0.0148 -0.0115
  350loPI   GL2 5590   6.602   9.590  10.291 -0.1161  0.2620  0.3128
  350loPI   C1A 5591   6.552   9.203  10.005  0.0133 -0.2649  0.2949
  350loPI   C2A 5592   6.477   9.158   9.495 -0.1821 -0.1165  0.0237
  350loPI   C3A 5593   6.485   9.145   9.114  0.0092 -0.2732  0.1768
  350loPI   C4A 5594   6.619   9.145   8.802 -0.0255  0.1818  0.3958
  350loPI   C5A 5595   6.753   9.081   8.360 -0.1144  0.5165  0.1789
  350loPI   C6A 5596   7.130   9.127   8.264 -0.0583  0.2782 -0.2384
  350loPI   C1B 5597   6.411   9.669   9.905 -0.2074  0.1417 -0.4030
  350loPI   C2B 5598   6.392   9.706   9.440 -0.0220  0.0391 -0.3296
  350loPI   C3B 5599   6.514   9.602   8.956 -0.4546  0.0526 -0.1312
  350loPI   C4B 5600   6.613   9.725   8.583 -0.1494 -0.3311  0.1802
  351loPI    C1 5601  13.510   1.750  11.260  0.0083  0.0786  0.1119
  351loPI    C2 5602  13.399   1.496  11.549 -0.0924  0.0736  0.0693
  351loPI    C3 5603  13.516   1.867  11.643  0.1137 -0.0072  0.1367
  351loPI   PO4 5604  13.403   1.658  11.057  0.2503 -0.0180 -0.0308
  351loPI   GL1 5605  13.429   1.442  10.771 -0.0030 -0.0533  0.0289
  351loPI   GL2 5606  13.477   1.182  10.673 -0.2688 -0.0540 -0.1709
  351loPI   C1A 5607  13.414   1.652  10.402  0.0919  0.0031  0.2442
  351loPI   C2A 5608  13.494   1.780  10.027 -0.1029 -0.1956 -0.0533
  351loPI   C3A 5609  13.460   1.671   9.608 -0.2164  0.3323 -0.0091
  351loPI   C4A 5610  13.555   1.753   9.167 -0.0328  0.0280  0.2239
  351loPI   C5A 5611  13.595   2.005   8.798  0.1867  0.2499 -0.3062
  351loPI   C6A 5612  13.632   1.993   8.353  0.0463 -0.3402  0.4150
  351loPI   C1B 5613  13.529   1.224  10.247 -0.2532 -0.2468 -0.0155
  351loPI   C2B 5614  13.489   1.183   9.817 -0.0712 -0.5144 -0.0236
  351loPI   C3B 5615  13.547   1.168   9.439  0.1673 -0.0342 -0.1267
  351loPI   C4B 5616  13.620   1.157   9.015 -0.4388 -0.1722 -0.0800
  352loPI    C1 5617   8.414   3.351  11.394 -0.0531 -0.1044  0.0751
  352loPI    C2 5618   8.598   3.659  11.217  0.1701 -0.2525  0.0449
  352loPI    C3 5619   8.200   3.659  11.254  0.1746  0.0834  0.1324
  352loPI   PO4 5620   8.526   3.134  11.247 -0.0438  0.1658 -0.0534
  352loPI   GL1 5621   8.667   3.062  10.774 -0.0115  0.1402  0.1197
  352loPI   GL2 5622   8.964   3.007  10.818  0.4488 -0.4566 -0.2545
  352loPI   C1A 5623   8.483   3.272  10.331 -0.0011  0.0110  0.1663
  352loPI   C2A 5624   8.426   3.303   9.830  0.1267  0.0401 -0.1753
  352loPI   C3A 5625   8.441   3.327   9.472 -0.0816 -0.0949 -0.0698
  352loPI   C4A 5626   8.474   3.282   8.994  0.3223  0.0987  0.1400
  352loPI   C5A 5627   8.338   3.286   8.535 -0.0766 -0.2146 -0.1176
  352loPI   C6A 5628   8.389   3.102   8.140  0.0710  0.1451 -0.1711
  352loPI   C1B 5629   9.243   3.073  10.447  0.0308 -0.0296  0.0657
  352loPI   C2B 5630   9.352   2.997  10.056  0.0943  0.1881 -0.1344
  352loPI   C3B 5631   9.385   2.924   9.567 -0.1148  0.0353  0.0440
  352loPI   C4B 5632   9.351   2.898   9.073 -0.0712 -0.4146 -0.0638
  353loPI    C1 5633   7.710  16.515  10.510 -0.0906 -0.1289 -0.0999
  353loPI    C2 5634   7.982  16.307  10.717  0.0769 -0.0423 -0.2303
  353loPI    C3 5635   7.741  16.566  10.905  0.1126 -0.0884 -0.1203
  353loPI   PO4 5636   7.642  16.339  10.318  0.1843 -0.0750 -0.0325
  353loPI   GL1 5637   7.312  16.421   9.991 -0.2065  0.1825 -0.0697
  353loPI   GL2 5638   7.391  16.711  10.060 -0.0392  0.1069 -0.2609
  353loPI   C1A 5639   7.259  16.402   9.572 -0.2290  0.0328  0.1508
  353loPI   C2A 5640   7.206  16.378   9.113  0.0567 -0.3421  0.0092
  353loPI   C3A 5641   7.305  16.309   8.653 -0.2751  0.0522 -0.0447
  353loPI   C4A 5642   7.188  16.284   8.220  0.0824  0.0357 -0.2453
  353loPI   C5A 5643   7.334  16.095   7.853 -0.0611  0.0963  0.0686
  353loPI   C6A 5644   7.474  15.666   7.809 -0.0653 -0.4202  0.4024
  353loPI   C1B 5645   7.158  16.950   9.804 -0.1765 -0.1191  0.3593
  353loPI   C2B 5646   7.135  16.883   9.312 -0.3045  0.1503 -0.2859
  353loPI   C3B 5647   7.236  16.836   8.934  0.1198  0.0521 -0.1172
  353loPI   C4B 5648   7.202  16.803   8.505 -0.1751  0.1490 -0.2618
  354loPI    C1 5649  11.150  10.616  10.754  0.0105 -0.1132  0.1456
  354loPI    C2 5650  10.951  10.778  11.061  0.0309  0.1425  0.0272
  354loPI    C3 5651  11.246  10.516  11.129 -0.1147  0.0241  0.2154
  354loPI   PO4 5652  10.913  10.674  10.559 -0.0303 -0.0354 -0.1972
  354loPI   GL1 5653  10.947  10.589  10.117  0.2773 -0.1648  0.1832
  354loPI   GL2 5654  10.941  10.269  10.195 -0.1574  0.0582 -0.0516
  354loPI   C1A 5655  10.976  10.642   9.763  0.0072 -0.2350  0.0952
  354loPI   C2A 5656  11.127  10.693   9.231  0.2573  0.0883 -0.3307
  354loPI   C3A 5657  11.044  10.675   8.796  0.0196  0.0025  0.1804
  354loPI   C4A 5658  11.102  10.662   8.281 -0.3499  0.0030 -0.0124
  354loPI   C5A 5659  11.021  11.023   7.935  0.1249 -0.0365  0.1077
  354loPI   C6A 5660  11.056  11.527   7.911  0.0843  0.0342  0.1038
  354loPI   C1B 5661  11.019  10.020   9.896  0.3297  0.0952 -0.1833
  354loPI   C2B 5662  11.055  10.115   9.523 -0.2116 -0.2084  0.1307
  354loPI   C3B 5663  11.078  10.197   9.030 -0.0356  0.0605 -0.1748
  354loPI   C4B 5664  11.140  10.249   8.594 -0.2137  0.1715  0.1654
  355loPI    C1 5665   5.782  16.760  11.163  0.0638  0.1004 -0.1366
  355loPI    C2 5666   5.970  16.419  11.253 -0.2251  0.0048  0.1212
  355loPI    C3 5667   5.850  16.664  11.546 -0.0029  0.3401 -0.0624
  355loPI   PO4 5668   5.598  16.733  10.957  0.2349 -0.4419 -0.2760
  355loPI   GL1 5669   5.479  16.574  10.597  0.2693 -0.2363 -0.2706
  355loPI   GL2 5670   5.270  16.683  10.517  0.2624 -0.1191 -0.1139
  355loPI   C1A 5671   5.819  16.742  10.320 -0.2429  0.1457  0.1042
  355loPI   C2A 5672   5.811  16.956   9.898  0.2016 -0.0215  0.2218
  355loPI   C3A 5673   5.777  16.977   9.385 -0.0797 -0.0041 -0.0622
  355loPI   C4A 5674   5.844  16.893   8.935  0.0068  0.1077  0.0925
  355loPI   C5A 5675   5.853  16.866   8.518  0.1250 -0.0059 -0.1760
  355loPI   C6A 5676   5.827  16.637   8.160  0.0594 -0.2392 -0.0981
  355loPI   C1B 5677   5.406  16.605  10.096  0.0622 -0.1256 -0.0338
  355loPI   C2B 5678   5.389  16.627   9.656  0.3840 -0.0559  0.0615
  355loPI   C3B 5679   5.402  16.645   9.237  0.3452  0.1237  0.0574
  355loPI   C4B 5680   5.442  16.599   8.766 -0.1530  0.1555 -0.0033
  356loPI    C1 5681   4.782   2.767  11.106 -0.2948 -0.2522  0.1330
  356loPI    C2 5682   4.905   2.764  11.487  0.0176 -0.1383  0.0362
  356loPI    C3 5683   4.775   2.427  11.316 -0.0849 -0.1987  0.2300
  356loPI   PO4 5684   4.902   2.921  10.973  0.1197  0.2381  0.0623
  356loPI   GL1 5685   5.052   2.819  10.585  0.0735  0.0272 -0.1867
  356loPI   GL2 5686   4.718   2.643  10.584 -0.2266  0.0919 -0.0064
  356loPI   C1A 5687   4.974   2.946  10.225 -0.1006  0.1707  0.0430
  356loPI   C2A 5688   4.939   2.968   9.860  0.0574  0.2283 -0.2758
  356loPI   C3A 5689   4.832   2.882   9.424  0.1675 -0.5366 -0.0629
  356loPI   C4A 5690   4.846   3.004   8.933  0.1209 -0.2863 -0.0264
  356loPI   C5A 5691   4.787   2.878   8.588 -0.2108 -0.1563 -0.1925
  356loPI   C6A 5692   4.685   2.564   8.379 -0.2304  0.0562  0.0097
  356loPI   C1B 5693   4.582   2.569  10.237 -0.1652  0.1653 -0.4639
  356loPI   C2B 5694   4.439   2.556   9.905 -0.0576  0.0065  0.1347
  356loPI   C3B 5695   4.443   2.600   9.422 -0.0935  0.0789 -0.1811
  356loPI   C4B 5696   4.481   2.658   8.947 -0.1564 -0.1657 -0.0045
  357loPI    C1 5697   8.764   9.714  11.213 -0.2130  0.1726  0.1491
  357loPI    C2 5698   8.365   9.684  11.200 -0.2117  0.1746  0.1039
  357loPI    C3 5699   8.558   9.635  11.547 -0.2082 -0.3592  0.0351
  357loPI   PO4 5700   8.793   9.571  10.954  0.1100 -0.2301 -0.0656
  357loPI   GL1 5701   8.856   9.427  10.588  0.1665  0.0422 -0.0263
  357loPI   GL2 5702   8.766   9.142  10.315 -0.0760 -0.0134  0.1408
  357loPI   C1A 5703   8.866   9.596  10.139 -0.0355  0.0009 -0.1762
  357loPI   C2A 5704   8.783   9.589   9.698 -0.0099  0.2043 -0.1028
  357loPI   C3A 5705   8.896   9.584   9.240  0.0478  0.1188  0.0456
  357loPI   C4A 5706   8.839   9.645   8.834  0.1002 -0.0519  0.2992
  357loPI   C5A 5707   8.820   9.845   8.492 -0.0078  0.0153  0.2528
  357loPI   C6A 5708   9.043   9.772   8.135 -0.1165 -0.2504 -0.1111
  357loPI   C1B 5709   8.856   9.057   9.932  0.1587 -0.1430 -0.0653
  357loPI   C2B 5710   8.804   9.145   9.470 -0.1014  0.0343 -0.2195
  357loPI   C3B 5711   8.876   9.104   8.988  0.3858  0.4530  0.0060
  357loPI   C4B 5712   8.734   9.030   8.584 -0.0689  0.0876  0.1382
  358loPI    C1 5713   8.568  12.405  10.824 -0.0761 -0.1126  0.0140
  358loPI    C2 5714   8.504  12.222  11.174 -0.0120  0.2170  0.2024
  358loPI    C3 5715   8.866  12.207  11.004  0.0137  0.2335  0.2555
  358loPI   PO4 5716   8.392  12.328  10.636 -0.0054 -0.2885  0.0021
  358loPI   GL1 5717   8.424  12.338  10.214  0.1864 -0.0798  0.0614
  358loPI   GL2 5718   8.725  12.380  10.038  0.0081  0.0184  0.0162
  358loPI   C1A 5719   8.223  12.456   9.851 -0.0215  0.1997 -0.0599
  358loPI   C2A 5720   8.132  12.369   9.481 -0.0540  0.3297 -0.0102
  358loPI   C3A 5721   8.152  12.459   9.104  0.0484 -0.2299 -0.1764
  358loPI   C4A 5722   8.330  12.341   8.675  0.0610 -0.0453 -0.0349
  358loPI   C5A 5723   8.519  12.386   8.278 -0.1767  0.0511  0.1035
  358loPI   C6A 5724   8.727  12.833   8.112 -0.1061  0.1548  0.3028
  358loPI   C1B 5725   8.634  12.717   9.736 -0.1589  0.2349  0.0118
  358loPI   C2B 5726   8.578  12.742   9.312  0.0484 -0.1383  0.0319
  358loPI   C3B 5727   8.600  12.666   9.002  0.4091  0.0076 -0.2089
  358loPI   C4B 5728   8.705  12.756   8.591  0.2980  0.1484  0.0287
  359loPI    C1 5729   1.737   0.953  11.144  0.0579  0.0376 -0.0867
  359loPI    C2 5730   1.861   1.026  11.517  0.1792 -0.0868 -0.1021
  359loPI    C3 5731   1.493   0.883  11.454  0.1140  0.0519 -0.0392
  359loPI   PO4 5732   1.792   1.093  11.018 -0.1419 -0.2727  0.2901
  359loPI   GL1 5733   2.095   1.254  10.680  0.0515 -0.3288  0.1601
  359loPI   GL2 5734   2.253   1.398  10.875 -0.2090  0.2375 -0.1419
  359loPI   C1A 5735   1.936   1.344  10.188  0.1652  0.3508  0.0453
  359loPI   C2A 5736   1.967   1.413   9.674 -0.3264  0.2098 -0.2236
  359loPI   C3A 5737   1.922   1.392   9.187  0.1457 -0.0424  0.2036
  359loPI   C4A 5738   1.846   1.459   8.787  0.1211  0.2626 -0.0819
  359loPI   C5A 5739   2.140   1.695   8.581  0.0318 -0.2416 -0.3252
  359loPI   C6A 5740   2.277   1.883   8.231  0.1677  0.0693  0.1406
  359loPI   C1B 5741   2.342   1.573  10.393 -0.2001 -0.1269  0.0624
  359loPI   C2B 5742   2.341   1.650   9.966 -0.0299 -0.1549  0.0105
  359loPI   C3B 5743   2.374   1.636   9.512 -0.1176  0.2522 -0.0740
  359loPI   C4B 5744   2.331   1.694   9.107  0.1798 -0.0255 -0.0393
  360loPI    C1 5745  12.978  13.893  11.091  0.2404 -0.0438 -0.1006
  360loPI    C2 5746  12.646  13.742  11.254  0.0256  0.3627 -0.1461
  360loPI    C3 5747  12.993  13.722  11.452 -0.0733  0.1535  0.0107
  360loPI   PO4 5748  12.886  14.006  10.916  0.1263 -0.0801 -0.0344
  360loPI   GL1 5749  12.667  13.963  10.576  0.3183 -0.0300 -0.1259
  360loPI   GL2 5750  12.932  13.769  10.406  0.0669  0.0860  0.0006
  360loPI   C1A 5751  12.489  13.981  10.165  0.0494  0.1253 -0.1442
  360loPI   C2A 5752  12.531  13.896   9.824  0.0505  0.1837 -0.0925
  360loPI   C3A 5753  12.661  13.929   9.388  0.3452  0.0645 -0.1945
  360loPI   C4A 5754  12.629  13.951   8.965  0.1614  0.0635 -0.0416
  360loPI   C5A 5755  12.682  13.946   8.566 -0.0259 -0.4234  0.2240
  360loPI   C6A 5756  12.676  14.100   8.245 -0.0249  0.1980  0.1744
  360loPI   C1B 5757  12.957  13.870  10.062 -0.0801  0.1127  0.1683
  360loPI   C2B 5758  13.049  13.775   9.682 -0.0350 -0.0693  0.1636
  360loPI   C3B 5759  13.095  13.765   9.257 -0.0414  0.0215 -0.0097
  360loPI   C4B 5760  13.146  13.750   8.797 -0.0258  0.0944 -0.0516
  361loPI    C1 5761  15.547   8.077  10.731 -0.0994 -0.2595 -0.1549
  361loPI    C2 5762  15.843   8.249  10.937 -0.3193  0.1496 -0.1701
  361loPI    C3 5763  15.600   7.987  11.117 -0.1845  0.1020 -0.0556
  361loPI   PO4 5764  15.464   8.281  10.575 -0.1451 -0.0074  0.1238
  361loPI   GL1 5765  15.468   8.193  10.133  0.0362  0.2056 -0.1898
  361loPI   GL2 5766  15.176   7.959  10.347  0.1270 -0.0520  0.1111
  361loPI   C1A 5767  15.444   8.196   9.659 -0.0671 -0.1739 -0.5103
  361loPI   C2A 5768  15.440   8.277   9.230 -0.0231  0.0736 -0.3804
  361loPI   C3A 5769  15.388   8.131   8.834 -0.2591  0.3008  0.2830
  361loPI   C4A 5770  15.300   8.196   8.357  0.1759  0.0357  0.2811
  361loPI   C5A 5771  15.018   7.819   8.220 -0.2819  0.1816  0.3770
  361loPI   C6A 5772  14.931   7.497   7.949  0.1450 -0.0420 -0.0392
  361loPI   C1B 5773  15.077   7.919   9.910 -0.1110  0.1509 -0.0379
  361loPI   C2B 5774  15.041   7.891   9.535  0.2491  0.0504 -0.1132
  361loPI   C3B 5775  14.971   7.828   9.174  0.0630  0.1308  0.0114
  361loPI   C4B 5776  14.955   7.922   8.691  0.2511  0.2069 -0.2638
  362loPI    C1 5777   3.300   0.139  11.048  0.0255  0.0224 -0.1726
  362loPI    C2 5778   3.671   0.010  10.973  0.0030 -0.1380 -0.0156
  362loPI    C3 5779   3.550   0.062  11.351 -0.0549  0.1530 -0.0716
  362loPI   PO4 5780   3.332   0.422  10.837 -0.2190  0.0286  0.0651
  362loPI   GL1 5781   3.258   0.447  10.426 -0.1188 -0.0400 -0.0322
  362loPI   GL2 5782   2.908   0.316  10.318  0.0348  0.1184  0.2959
  362loPI   C1A 5783   3.263   0.671  10.037  0.3526 -0.0417  0.2723
  362loPI   C2A 5784   3.310   0.698   9.511 -0.0331  0.1314 -0.1369
  362loPI   C3A 5785   3.370   0.658   9.159  0.0566 -0.2208  0.1499
  362loPI   C4A 5786   3.257   0.798   8.711  0.0445 -0.2069 -0.0743
  362loPI   C5A 5787   3.301   0.487   8.303 -0.2838  0.0208  0.1354
  362loPI   C6A 5788   3.499   0.145   8.271  0.0329 -0.0859 -0.1112
  362loPI   C1B 5789   2.890   0.401   9.908 -0.3638 -0.0288  0.4000
  362loPI   C2B 5790   2.920   0.314   9.381  0.3686 -0.2180 -0.3410
  362loPI   C3B 5791   2.987   0.363   9.054  0.3014 -0.0656  0.2163
  362loPI   C4B 5792   2.901   0.441   8.656 -0.2413 -0.0612  0.0413
  363loPI    C1 5793   1.038  16.984  11.143 -0.2168 -0.1604  0.1847
  363loPI    C2 5794   1.085  17.299  11.385 -0.0516 -0.0697  0.0373
  363loPI    C3 5795   0.738  17.244  11.193 -0.0109  0.1410 -0.1001
  363loPI   PO4 5796   1.204  16.973  11.008 -0.0030 -0.1300 -0.0222
  363loPI   GL1 5797   1.242  17.129  10.604  0.2688  0.3106 -0.0462
  363loPI   GL2 5798   0.962  17.071  10.593  0.0833 -0.0151 -0.1187
  363loPI   C1A 5799   1.373  17.068  10.246 -0.2055  0.2633 -0.3555
  363loPI   C2A 5800   1.315  16.993   9.847 -0.1463 -0.0188  0.2356
  363loPI   C3A 5801   1.301  16.981   9.432 -0.0863  0.2162 -0.1827
  363loPI   C4A 5802   1.278  16.962   9.059  0.1886  0.0682 -0.1144
  363loPI   C5A 5803   1.124  17.055   8.724  0.0212 -0.1637  0.2152
  363loPI   C6A 5804   0.998  17.234   8.386  0.0692 -0.4903 -0.2324
  363loPI   C1B 5805   0.888  17.243  10.178 -0.2181 -0.0076 -0.1218
  363loPI   C2B 5806   0.823  17.253   9.726 -0.2252  0.1798 -0.1106
  363loPI   C3B 5807   0.825  17.215   9.301  0.0407  0.0348 -0.0122
  363loPI   C4B 5808   0.721  17.219   8.942 -0.2185  0.0167 -0.3439
  364loPI    C1 5809   0.461   2.569  10.923 -0.3251  0.0454  0.0399
  364loPI    C2 5810   0.815   2.741  10.849 -0.2784 -0.0915 -0.0588
  364loPI    C3 5811   0.675   2.724  11.224 -0.2759  0.1458 -0.0458
  364loPI   PO4 5812   0.504   2.308  10.871  0.3535  0.0181 -0.2766
  364loPI   GL1 5813   0.494   2.215  10.514  0.1607 -0.2864 -0.2481
  364loPI   GL2 5814   0.555   2.524  10.365  0.1233 -0.1498 -0.5019
  364loPI   C1A 5815   0.482   1.986  10.100 -0.0575  0.3792  0.1125
  364loPI   C2A 5816   0.490   2.009   9.721 -0.0014 -0.1216  0.6464
  364loPI   C3A 5817   0.526   1.931   9.282  0.1294 -0.1484 -0.2730
  364loPI   C4A 5818   0.421   1.948   8.952  0.0104  0.1387  0.0680
  364loPI   C5A 5819   0.553   1.754   8.562  0.1210  0.0199  0.1976
  364loPI   C6A 5820   0.303   1.613   8.148 -0.1837 -0.1918  0.0651
  364loPI   C1B 5821   0.495   2.525  10.009  0.0536 -0.1039  0.0680
  364loPI   C2B 5822   0.449   2.491   9.553  0.1640 -0.0580 -0.1071
  364loPI   C3B 5823   0.396   2.467   9.127  0.0205  0.1845  0.0171
  364loPI   C4B 5824   0.327   2.484   8.747 -0.0530  0.0110 -0.2880
  365loPI    C1 5825  16.719  13.008  11.486  0.2991  0.1846 -0.0595
  365loPI    C2 5826  16.801  13.272  11.775 -0.1507  0.0708  0.1830
  365loPI    C3 5827  16.782  12.882  11.860  0.2388 -0.0210 -0.1174
  365loPI   PO4 5828  16.780  13.160  11.213  0.1165 -0.2068  0.2552
  365loPI   GL1 5829  16.839  13.332  10.796 -0.1583 -0.1849  0.0913
  365loPI   GL2 5830  16.924  13.063  10.680 -0.0168 -0.0795 -0.1947
  365loPI   C1A 5831  16.674  13.577  10.417 -0.0971 -0.2280 -0.2800
  365loPI   C2A 5832  16.678  13.580  10.000 -0.3245  0.0985  0.1015
  365loPI   C3A 5833  16.653  13.554   9.578 -0.3654 -0.0190 -0.1372
  365loPI   C4A 5834  16.717  13.516   9.221 -0.0262 -0.2125 -0.1015
  365loPI   C5A 5835  16.732  13.567   8.811  0.3009  0.1448  0.0610
  365loPI   C6A 5836  16.597  13.346   8.482 -0.0003  0.2145 -0.0574
  365loPI   C1B 5837  16.742  13.051  10.219 -0.0486 -0.0944 -0.1563
  365loPI   C2B 5838  16.689  13.070   9.761  0.0251  0.3761 -0.5630
  365loPI   C3B 5839  16.738  13.034   9.333 -0.1799  0.0575 -0.1441
  365loPI   C4B 5840  16.687  13.057   8.936  0.2278 -0.1045 -0.0527
  366loPI    C1 5841   9.376  12.481  10.389  0.0318 -0.0230  0.0129
  366loPI    C2 5842   9.380  12.269  10.728 -0.1194  0.0104  0.0361
  366loPI    C3 5843   9.654  12.553  10.667 -0.0901  0.0024  0.1292
  366loPI   PO4 5844   9.294  12.364  10.250  0.0199  0.1586 -0.1084
  366loPI   GL1 5845   9.187  12.452   9.875 -0.2023 -0.0012 -0.0714
  366loPI   GL2 5846   9.458  12.316   9.775  0.0653  0.2710 -0.1701
  366loPI   C1A 5847   9.061  12.589   9.527 -0.0502 -0.0194  0.2039
  366loPI   C2A 5848   9.064  12.525   9.016  0.2599  0.0366 -0.0262
  366loPI   C3A 5849   9.172  12.399   8.683  0.3478 -0.1792 -0.1617
  366loPI   C4A 5850   9.074  12.435   8.349 -0.0178 -0.0622  0.0113
  366loPI   C5A 5851   9.003  12.447   7.919  0.0584  0.1767 -0.3149
  366loPI   C6A 5852   9.272  12.376   7.595  0.1159  0.1334  0.0593
  366loPI   C1B 5853   9.458  12.379   9.378 -0.1715 -0.1453  0.1425
  366loPI   C2B 5854   9.537  12.357   8.999  0.0043  0.0225 -0.0910
  366loPI   C3B 5855   9.690  12.354   8.545  0.0650  0.1261 -0.1303
  366loPI   C4B 5856   9.470  12.357   8.115  0.2410  0.4041  0.0926
  367loPI    C1 5857  14.786  14.970  11.086  0.0272  0.0905 -0.0921
  367loPI    C2 5858  14.872  15.278  11.327 -0.2400 -0.1972  0.3846
  367loPI    C3 5859  14.498  15.224  11.197 -0.0617  0.0706 -0.2749
  367loPI   PO4 5860  14.980  14.978  10.929 -0.0772 -0.1221  0.0207
  367loPI   GL1 5861  15.200  15.221  10.433  0.0547  0.0873 -0.1658
  367loPI   GL2 5862  14.909  15.050  10.428 -0.0197 -0.0762  0.0084
  367loPI   C1A 5863  15.238  15.267  10.077  0.3434  0.2531  0.3735
  367loPI   C2A 5864  15.238  15.296   9.692 -0.0360  0.0603 -0.2193
  367loPI   C3A 5865  15.256  15.278   9.245  0.1500  0.0361  0.1338
  367loPI   C4A 5866  15.201  15.266   8.735  0.1316 -0.1201 -0.2549
  367loPI   C5A 5867  14.984  15.266   8.364  0.0507 -0.1652  0.1521
  367loPI   C6A 5868  14.844  14.988   8.061  0.0575  0.3660  0.0216
  367loPI   C1B 5869  14.832  14.959  10.010 -0.0510 -0.2442  0.1671
  367loPI   C2B 5870  14.871  15.015   9.653 -0.1479 -0.2840  0.3221
  367loPI   C3B 5871  14.790  14.895   9.272  0.1233  0.3771 -0.0767
  367loPI   C4B 5872  14.830  14.862   8.811  0.0157  0.0909 -0.4425
  368loPI    C1 5873  11.341   9.838  11.043 -0.1037 -0.0551 -0.0327
  368loPI    C2 5874  11.644  10.021  11.229 -0.2991  0.0870  0.1502
  368loPI    C3 5875  11.383   9.803  11.440 -0.3659  0.0243  0.0040
  368loPI   PO4 5876  11.420   9.739  10.826 -0.0758 -0.2069  0.1235
  368loPI   GL1 5877  11.457   9.515  10.365  0.0565  0.2124  0.0277
  368loPI   GL2 5878  11.853   9.598  10.274  0.1089  0.0551  0.1974
  368loPI   C1A 5879  11.521   9.288   9.989 -0.2679  0.1317  0.0457
  368loPI   C2A 5880  11.604   9.308   9.601  0.1350 -0.1748  0.0210
  368loPI   C3A 5881  11.586   9.364   9.211 -0.0548 -0.4239 -0.2963
  368loPI   C4A 5882  11.668   9.469   8.816 -0.1700 -0.0896 -0.1420
  368loPI   C5A 5883  11.906   9.376   8.389 -0.4873  0.0695  0.0223
  368loPI   C6A 5884  12.345   9.311   8.102  0.0241  0.1230  0.1143
  368loPI   C1B 5885  11.936   9.624   9.879 -0.0768  0.1019  0.2107
  368loPI   C2B 5886  12.036   9.594   9.493  0.1724 -0.0286 -0.2217
  368loPI   C3B 5887  12.040   9.735   9.068 -0.2184 -0.1693  0.2627
  368loPI   C4B 5888  12.082   9.758   8.724 -0.2236  0.0414  0.2148
  369loPI    C1 5889   2.918   2.795  11.170 -0.2489  0.1567  0.0101
  369loPI    C2 5890   3.304   2.724  11.094 -0.3300 -0.2114 -0.0781
  369loPI    C3 5891   3.153   2.643  11.455 -0.3803 -0.3065 -0.1203
  369loPI   PO4 5892   2.741   2.761  10.985  0.2398 -0.0201  0.1213
  369loPI   GL1 5893   2.913   2.847  10.655  0.0148  0.2189 -0.1179
  369loPI   GL2 5894   2.545   3.055  10.663  0.1439  0.1561  0.0952
  369loPI   C1A 5895   3.001   2.757  10.185 -0.0576  0.1449 -0.0071
  369loPI   C2A 5896   3.150   2.772   9.700 -0.7811 -0.1949  0.0585
  369loPI   C3A 5897   3.136   2.770   9.312  0.1355  0.0878  0.3019
  369loPI   C4A 5898   3.051   2.805   8.862  0.1469 -0.1400 -0.0140
  369loPI   C5A 5899   3.217   2.868   8.486  0.1172  0.2793 -0.0155
  369loPI   C6A 5900   3.568   2.767   8.267  0.0415 -0.0385  0.1409
  369loPI   C1B 5901   2.553   2.991  10.248  0.1491 -0.1000  0.3875
  369loPI   C2B 5902   2.605   2.873   9.847  0.0216 -0.0407  0.2702
  369loPI   C3B 5903   2.622   2.998   9.476 -0.1840  0.0358  0.0054
  369loPI   C4B 5904   2.625   2.977   9.000 -0.1399 -0.1123  0.0010
  370loPI    C1 5905   4.779   8.107  10.839  0.0914  0.2318  0.1963
  370loPI    C2 5906   4.737   7.967  11.211  0.0316  0.1290  0.1514
  370loPI    C3 5907   4.670   8.354  11.134 -0.0925  0.1222  0.2217
  370loPI   PO4 5908   4.950   8.058  10.718 -0.3645 -0.2566  0.0420
  370loPI   GL1 5909   5.148   7.745  10.458 -0.1267 -0.0660  0.4054
  370loPI   GL2 5910   5.369   7.755  10.322  0.0589 -0.1095 -0.1052
  370loPI   C1A 5911   4.909   7.898  10.126 -0.0357  0.2102  0.1338
  370loPI   C2A 5912   4.826   7.943   9.694  0.1212 -0.2073 -0.0437
  370loPI   C3A 5913   4.837   7.934   9.173  0.0018  0.2550 -0.2573
  370loPI   C4A 5914   4.924   7.949   8.706 -0.2290 -0.1878 -0.0457
  370loPI   C5A 5915   4.746   8.073   8.243  0.2402  0.1647 -0.3333
  370loPI   C6A 5916   4.448   8.204   7.880 -0.1437  0.0731 -0.0174
  370loPI   C1B 5917   5.313   7.681   9.912  0.2949 -0.1188 -0.3519
  370loPI   C2B 5918   5.270   7.791   9.493 -0.2978 -0.0026 -0.1290
  370loPI   C3B 5919   5.263   7.680   8.952  0.0352  0.0490 -0.2591
  370loPI   C4B 5920   5.373   7.715   8.446  0.2049 -0.1558 -0.0980
  371loPI    C1 5921   7.195  10.630  10.868  0.0437 -0.2329 -0.1720
  371loPI    C2 5922   7.478  10.542  11.136 -0.0251 -0.0602 -0.0407
  371loPI    C3 5923   7.123  10.681  11.258 -0.0947 -0.0814 -0.2162
  371loPI   PO4 5924   7.346  10.736  10.672 -0.0036 -0.0954  0.1185
  371loPI   GL1 5925   7.384  11.046  10.228 -0.1957 -0.0598  0.0738
  371loPI   GL2 5926   7.280  10.796  10.185  0.0422  0.1162  0.2088
  371loPI   C1A 5927   7.601  11.091   9.801  0.3262 -0.3247  0.1891
  371loPI   C2A 5928   7.783  11.068   9.488  0.1823 -0.1561  0.0198
  371loPI   C3A 5929   7.773  10.985   9.093 -0.0129  0.1291 -0.0876
  371loPI   C4A 5930   7.787  11.007   8.714 -0.2536  0.1448 -0.1263
  371loPI   C5A 5931   7.743  11.059   8.263  0.1635 -0.0247  0.1285
  371loPI   C6A 5932   7.805  11.170   7.882  0.0784 -0.1752  0.3439
  371loPI   C1B 5933   7.298  10.718   9.788 -0.0824  0.0155  0.0068
  371loPI   C2B 5934   7.356  10.776   9.396  0.1580  0.1643  0.2836
  371loPI   C3B 5935   7.372  10.732   8.999 -0.0825  0.0428 -0.3029
  371loPI   C4B 5936   7.324  10.710   8.477 -0.1868  0.2353 -0.1281
  372loPI    C1 5937  12.501  11.208  10.820  0.1281  0.1785 -0.0069
  372loPI    C2 5938  12.767  11.001  11.034  0.0383 -0.0903 -0.1500
  372loPI    C3 5939  12.442  11.151  11.212  0.1157 -0.0500 -0.0408
  372loPI   PO4 5940  12.534  11.113  10.577  0.2966  0.2697  0.2005
  372loPI   GL1 5941  12.681  11.302  10.185 -0.3170 -0.0736  0.2199
  372loPI   GL2 5942  12.893  11.261  10.260  0.1906 -0.0911 -0.0853
  372loPI   C1A 5943  12.555  11.338   9.743  0.0090  0.0593  0.2928
  372loPI   C2A 5944  12.747  11.345   9.283 -0.1196 -0.1489  0.1981
  372loPI   C3A 5945  12.702  11.293   8.816 -0.1476  0.2105  0.2051
  372loPI   C4A 5946  12.715  11.139   8.387  0.0080 -0.0225 -0.2020
  372loPI   C5A 5947  12.556  11.079   8.069  0.1683 -0.1997 -0.1913
  372loPI   C6A 5948  12.398  10.775   7.768  0.1889 -0.0886  0.0028
  372loPI   C1B 5949  13.100  11.338   9.767  0.0477 -0.3521  0.0095
  372loPI   C2B 5950  13.283  11.237   9.469  0.1649 -0.3009  0.2069
  372loPI   C3B 5951  13.244  11.127   9.137 -0.0008 -0.2099  0.3406
  372loPI   C4B 5952  13.227  11.087   8.612 -0.1524 -0.2434 -0.0831
  373loPI    C1 5953   2.769   0.535  10.864  0.0430 -0.0191  0.1556
  373loPI    C2 5954   2.677   0.742  11.194 -0.3258 -0.0451  0.0736
  373loPI    C3 5955   2.968   0.468  11.204 -0.1171  0.1797  0.2911
  373loPI   PO4 5956   2.831   0.715  10.683 -0.2039  0.0655  0.0046
  373loPI   GL1 5957   3.022   0.957  10.350  0.0895  0.2597 -0.0224
  373loPI   GL2 5958   3.293   1.204  10.355  0.2510  0.0281 -0.1386
  373loPI   C1A 5959   2.840   0.900   9.914  0.1066 -0.1743  0.0955
  373loPI   C2A 5960   2.842   0.880   9.465  0.2306 -0.2070 -0.2116
  373loPI   C3A 5961   2.856   0.914   9.047  0.2298 -0.1520 -0.1001
  373loPI   C4A 5962   2.765   0.937   8.603 -0.3305  0.3269 -0.0751
  373loPI   C5A 5963   2.820   0.845   8.125  0.0547 -0.0654  0.3657
  373loPI   C6A 5964   2.700   0.393   7.936 -0.0228  0.0982  0.0283
  373loPI   C1B 5965   3.246   1.233   9.955 -0.1002  0.2353  0.1087
  373loPI   C2B 5966   3.241   1.190   9.528 -0.1997  0.1576  0.0872
  373loPI   C3B 5967   3.303   1.175   9.121  0.0173  0.0185  0.3558
  373loPI   C4B 5968   3.452   1.336   8.736 -0.0183  0.0876 -0.3284
  374loPI    C1 5969   9.466  15.295  10.521 -0.0517  0.0258 -0.0198
  374loPI    C2 5970   9.070  15.319  10.475 -0.0122  0.3253 -0.2317
  374loPI    C3 5971   9.229  15.018  10.685 -0.3544  0.2382 -0.0907
  374loPI   PO4 5972   9.509  15.350  10.280 -0.1027  0.1769 -0.2909
  374loPI   GL1 5973   9.666  15.295   9.941 -0.0832  0.0137  0.4123
  374loPI   GL2 5974   9.704  15.319   9.576 -0.1006 -0.2942  0.0544
  374loPI   C1A 5975   9.673  14.914   9.848 -0.2097  0.1027  0.1039
  374loPI   C2A 5976   9.672  14.778   9.394 -0.0323 -0.3076  0.2143
  374loPI   C3A 5977   9.877  14.704   8.926  0.1166  0.1311  0.3520
  374loPI   C4A 5978   9.882  14.715   8.501  0.0325 -0.0029 -0.0570
  374loPI   C5A 5979   9.561  14.722   8.216 -0.2725 -0.2285 -0.1743
  374loPI   C6A 5980   9.324  15.127   7.954 -0.1274  0.1733  0.5616
  374loPI   C1B 5981   9.773  15.197   9.100 -0.0112 -0.0068  0.1408
  374loPI   C2B 5982   9.835  15.184   8.688 -0.3117 -0.1392 -0.0117
  374loPI   C3B 5983   9.741  15.234   8.344  0.0450  0.0713  0.0280
  374loPI   C4B 5984   9.572  15.551   8.075 -0.0963 -0.2410 -0.2020
  375loPI    C1 5985   2.032  16.991  11.165  0.0261  0.0919  0.1167
  375loPI    C2 5986   1.986  17.205  11.500 -0.3238  0.0997  0.0674
  375loPI    C3 5987   2.072  16.815  11.522 -0.1575  0.1405  0.1621
  375loPI   PO4 5988   2.172  17.120  11.004 -0.0797  0.0857 -0.0736
  375loPI   GL1 5989   2.132  17.337  10.676 -0.1160 -0.3034 -0.0383
  375loPI   GL2 5990   1.832  17.217  10.470 -0.0270 -0.1303 -0.2206
  375loPI   C1A 5991   2.127  17.616  10.220  0.0406 -0.1980 -0.2149
  375loPI   C2A 5992   2.095  17.645   9.797  0.1220 -0.1393  0.4142
  375loPI   C3A 5993   2.035  17.636   9.381 -0.0016  0.0666 -0.1845
  375loPI   C4A 5994   2.075  17.643   9.049 -0.1343  0.2360 -0.1289
  375loPI   C5A 5995   2.087  17.728   8.689 -0.0793  0.0170 -0.2918
  375loPI   C6A 5996   2.083  17.746   8.344  0.1743  0.2500  0.3527
  375loPI   C1B 5997   1.716  17.345  10.010 -0.0909  0.0671 -0.0470
  375loPI   C2B 5998   1.739  17.275   9.601  0.1562  0.2601  0.0337
  375loPI   C3B 5999   1.634  17.292   9.162  0.2019  0.2349  0.1929
  375loPI   C4B 6000   1.644  17.392   8.825  0.0001  0.1592  0.2432
  376loPI    C1 6001  11.266  16.249  10.801 -0.0009 -0.1051  0.0643
  376loPI    C2 6002  10.889  16.369  10.856  0.1068  0.1370  0.2975
  376loPI    C3 6003  11.005  16.010  10.987 -0.0840 -0.0121  0.0679
  376loPI   PO4 6004  11.270  16.277  10.517 -0.1377 -0.0445  0.1544
  376loPI   GL1 6005  11.414  15.978  10.140  0.0284  0.2341  0.2831
  376loPI   GL2 6006  11.564  16.221  10.137  0.0254 -0.1190  0.1455
  376loPI   C1A 6007  11.421  16.082   9.674  0.1092 -0.0921  0.0799
  376loPI   C2A 6008  11.551  15.991   9.275  0.0078  0.1085  0.1482
  376loPI   C3A 6009  11.522  15.988   8.880 -0.0318  0.2101  0.1524
  376loPI   C4A 6010  11.646  15.914   8.444 -0.0059  0.1046  0.0762
  376loPI   C5A 6011  11.606  15.748   8.018 -0.2346  0.0384 -0.2555
  376loPI   C6A 6012  11.473  15.541   7.681  0.2643  0.1002  0.3255
  376loPI   C1B 6013  11.809  16.297   9.790  0.0380 -0.1876 -0.4036
  376loPI   C2B 6014  12.016  16.293   9.343 -0.1837 -0.1115 -0.1579
  376loPI   C3B 6015  11.980  16.278   8.887  0.2233  0.3454 -0.4311
  376loPI   C4B 6016  12.041  16.332   8.446 -0.1273 -0.0038 -0.3323
  377loPI    C1 6017  15.050   6.660  10.766  0.0852  0.0135 -0.0698
  377loPI    C2 6018  14.786   6.813  11.025 -0.1406 -0.3436 -0.0831
  377loPI    C3 6019  14.945   7.045  10.740 -0.1858 -0.0444  0.1313
  377loPI   PO4 6020  14.909   6.438  10.678 -0.3964 -0.2089  0.2535
  377loPI   GL1 6021  14.722   6.064  10.549 -0.1735 -0.0182 -0.0027
  377loPI   GL2 6022  14.453   6.235  10.533 -0.2255  0.2210  0.2243
  377loPI   C1A 6023  14.840   6.156  10.130 -0.2665  0.3467  0.3116
  377loPI   C2A 6024  14.826   6.053   9.737 -0.3490  0.1650 -0.2138
  377loPI   C3A 6025  14.796   6.058   9.329  0.1789 -0.1296 -0.0689
  377loPI   C4A 6026  14.757   6.098   8.898 -0.1288  0.0559  0.0090
  377loPI   C5A 6027  14.991   5.951   8.518  0.3399 -0.0156  0.3793
  377loPI   C6A 6028  15.225   6.133   8.205  0.3749  0.3605 -0.0246
  377loPI   C1B 6029  14.322   6.321  10.128 -0.0890 -0.2497  0.4083
  377loPI   C2B 6030  14.260   6.165   9.745 -0.1658 -0.1531  0.0672
  377loPI   C3B 6031  14.338   6.189   9.265 -0.0986  0.2240  0.1638
  377loPI   C4B 6032  14.317   6.320   8.824 -0.0261  0.1542  0.0449
  378loPI    C1 6033  11.995   3.442  11.066 -0.1067 -0.0659 -0.0388
  378loPI    C2 6034  11.791   3.227  11.333 -0.1439  0.0446  0.0225
  378loPI    C3 6035  12.128   3.412  11.442 -0.1916  0.1401  0.0091
  378loPI   PO4 6036  12.006   3.315  10.915  0.3070 -0.0950 -0.0322
  378loPI   GL1 6037  11.844   3.252  10.514  0.0250 -0.2113 -0.0023
  378loPI   GL2 6038  12.021   3.578  10.509  0.3005 -0.0961 -0.2128
  378loPI   C1A 6039  11.563   3.110  10.072 -0.1869  0.0091 -0.1308
  378loPI   C2A 6040  11.552   3.073   9.614 -0.1299 -0.4435  0.0998
  378loPI   C3A 6041  11.591   3.010   9.166  0.0441  0.0498 -0.3124
  378loPI   C4A 6042  11.456   2.975   8.750 -0.1252  0.0742 -0.2222
  378loPI   C5A 6043  11.358   3.074   8.328  0.2666 -0.2473  0.0882
  378loPI   C6A 6044  11.548   3.435   7.937 -0.2332 -0.2199 -0.2788
  378loPI   C1B 6045  12.003   3.412  10.065  0.0498 -0.3775  0.0815
  378loPI   C2B 6046  12.013   3.376   9.616 -0.0112  0.1264 -0.1387
  378loPI   C3B 6047  11.990   3.343   9.275  0.2158 -0.2090  0.3025
  378loPI   C4B 6048  11.856   3.318   8.854  0.4662  0.3553 -0.2334
  379loPI    C1 6049   0.892  11.479  11.307 -0.0009 -0.2427 -0.0076
  379loPI    C2 6050   0.635  11.181  11.381  0.0064 -0.2317  0.0627
  379loPI    C3 6051   1.013  11.157  11.511  0.0184 -0.2107  0.0317
  379loPI   PO4 6052   0.838  11.497  11.043 -0.0353  0.0187 -0.0119
  379loPI   GL1 6053   0.860  11.338  10.645 -0.0382 -0.0415 -0.0349
  379loPI   GL2 6054   0.867  11.603  10.499  0.0250  0.2003 -0.6461
  379loPI   C1A 6055   0.963  11.242  10.122 -0.0749  0.0326  0.0467
  379loPI   C2A 6056   0.913  11.237   9.763 -0.1297 -0.0660  0.1480
  379loPI   C3A 6057   0.845  11.201   9.337  0.2094  0.0349  0.0576
  379loPI   C4A 6058   0.919  11.143   8.970 -0.1766  0.0130  0.2226
  379loPI   C5A 6059   0.985  10.923   8.555  0.2665  0.1217  0.0617
  379loPI   C6A 6060   1.039  11.085   8.220  0.1451  0.1812  0.0472
  379loPI   C1B 6061   0.862  11.780  10.036  0.0250  0.2707  0.0662
  379loPI   C2B 6062   0.806  11.722   9.500 -0.1072  0.2589 -0.3327
  379loPI   C3B 6063   0.853  11.653   8.970 -0.0345  0.0390  0.1233
  379loPI   C4B 6064   0.802  11.447   8.562 -0.4027 -0.1652  0.0245
  380loPI    C1 6065   5.598  11.764  11.049  0.2482  0.0995 -0.1615
  380loPI    C2 6066   5.948  11.749  11.242  0.2089 -0.2836 -0.1110
  380loPI    C3 6067   5.646  11.514  11.358 -0.0861  0.0817 -0.1205
  380loPI   PO4 6068   5.711  11.802  10.798 -0.0735  0.2969  0.4494
  380loPI   GL1 6069   5.565  11.537  10.374 -0.1428  0.2414  0.0317
  380loPI   GL2 6070   5.734  11.470  10.031 -0.0329  0.1334 -0.0731
  380loPI   C1A 6071   5.325  11.271  10.058  0.1861  0.0139  0.1380
  380loPI   C2A 6072   5.405  11.185   9.649  0.1845 -0.0213 -0.0763
  380loPI   C3A 6073   5.405  11.093   9.201  0.1976 -0.0058  0.2581
  380loPI   C4A 6074   5.494  11.120   8.758 -0.1414 -0.1611 -0.0924
  380loPI   C5A 6075   5.178  11.158   8.465 -0.1356 -0.2189  0.0038
  380loPI   C6A 6076   4.950  11.548   8.177 -0.2857  0.0714 -0.1472
  380loPI   C1B 6077   5.762  11.597   9.558  0.3763  0.2537 -0.2776
  380loPI   C2B 6078   5.799  11.438   9.116  0.0646 -0.1965 -0.1321
  380loPI   C3B 6079   5.920  11.422   8.725 -0.0936  0.0769 -0.3167
  380loPI   C4B 6080   6.065  11.293   8.371  0.1768  0.1490 -0.1703
  381loPI    C1 6081  14.577   3.200  11.371 -0.0242 -0.0460 -0.1040
  381loPI    C2 6082  14.704   3.559  11.492 -0.0628 -0.0525 -0.0438
  381loPI    C3 6083  14.810   3.231  11.694 -0.1198 -0.0643 -0.0328
  381loPI   PO4 6084  14.610   3.207  11.086  0.0850 -0.2816 -0.0636
  381loPI   GL1 6085  14.659   3.316  10.686 -0.0387  0.1274  0.1989
  381loPI   GL2 6086  14.577   3.595  10.567  0.0266  0.0173  0.2562
  381loPI   C1A 6087  14.666   3.210  10.229  0.0058 -0.0411 -0.4074
  381loPI   C2A 6088  14.709   3.151   9.814 -0.1879 -0.1472 -0.1363
  381loPI   C3A 6089  14.678   3.216   9.430 -0.4189  0.0450 -0.0805
  381loPI   C4A 6090  14.629   3.145   8.982  0.0205  0.0450 -0.1665
  381loPI   C5A 6091  14.785   3.044   8.645 -0.1109  0.1880  0.0090
  381loPI   C6A 6092  15.199   2.814   8.510  0.2615 -0.3374 -0.1394
  381loPI   C1B 6093  14.581   3.726  10.151  0.0405 -0.2032 -0.1459
  381loPI   C2B 6094  14.626   3.687   9.715  0.0877  0.1807  0.2316
  381loPI   C3B 6095  14.557   3.664   9.317 -0.2396  0.1881 -0.1984
  381loPI   C4B 6096  14.483   3.595   8.870 -0.2780  0.0748  0.3249
  382loPI    C1 6097   5.324   3.847  11.199 -0.0152  0.0590  0.0289
  382loPI    C2 6098   5.047   4.124  11.280  0.1369  0.1378  0.2905
  382loPI    C3 6099   5.044   3.774  11.474 -0.0721 -0.0599 -0.0598
  382loPI   PO4 6100   5.546   4.001  11.070  0.0243  0.1315  0.0936
  382loPI   GL1 6101   5.545   4.277  10.776  0.0421 -0.0215  0.0875
  382loPI   GL2 6102   5.188   4.160  10.741 -0.1263  0.1357 -0.1673
  382loPI   C1A 6103   5.696   4.142  10.419 -0.0756  0.0256  0.2201
  382loPI   C2A 6104   5.661   4.099   9.987  0.1258 -0.2698  0.2431
  382loPI   C3A 6105   5.706   4.090   9.494 -0.0586 -0.0555  0.1198
  382loPI   C4A 6106   5.844   4.152   9.020 -0.1630 -0.0354 -0.0844
  382loPI   C5A 6107   5.578   3.881   8.790 -0.0332  0.0248  0.0626
  382loPI   C6A 6108   5.165   3.771   8.664 -0.2220  0.3588 -0.1821
  382loPI   C1B 6109   5.194   4.202  10.351  0.0012 -0.0809 -0.0842
  382loPI   C2B 6110   5.170   4.229   9.925 -0.2372 -0.2762 -0.0244
  382loPI   C3B 6111   5.187   4.253   9.436  0.3588 -0.2376 -0.0839
  382loPI   C4B 6112   5.189   4.289   8.911  0.0864 -0.0024  0.1213
  383loPI    C1 6113   7.109   8.385  11.118 -0.0935  0.2152 -0.1302
  383loPI    C2 6114   7.053   8.752  11.265 -0.1223  0.1626 -0.0077
  383loPI    C3 6115   6.909   8.435  11.461 -0.0908  0.0852 -0.1090
  383loPI   PO4 6116   7.062   8.476  10.856  0.0407 -0.2948  0.1208
  383loPI   GL1 6117   6.866   8.497  10.526  0.0343 -0.1278  0.0498
  383loPI   GL2 6118   6.812   8.185  10.376 -0.3156  0.0840 -0.2483
  383loPI   C1A 6119   7.026   8.546  10.139 -0.0622  0.1787  0.2000
  383loPI   C2A 6120   7.087   8.472   9.723 -0.0800 -0.0442 -0.2304
  383loPI   C3A 6121   7.083   8.419   9.327  0.2355 -0.1852 -0.3008
  383loPI   C4A 6122   7.105   8.288   8.895 -0.0661 -0.0763  0.1036
  383loPI   C5A 6123   7.094   8.086   8.526  0.0979  0.0039  0.2372
  383loPI   C6A 6124   7.106   8.064   8.128 -0.1162  0.2244  0.1160
  383loPI   C1B 6125   6.614   8.155  10.040  0.1436  0.1555 -0.0477
  383loPI   C2B 6126   6.572   8.133   9.609  0.3454 -0.1205 -0.0803
  383loPI   C3B 6127   6.603   8.179   9.161  0.1889 -0.0845  0.1789
  383loPI   C4B 6128   6.683   7.954   8.738  0.0481  0.2599  0.1585
  384loPI    C1 6129  17.362   5.748  10.983 -0.0373 -0.1005  0.0991
  384loPI    C2 6130  17.354   5.656  11.372  0.0813 -0.1201  0.0971
  384loPI    C3 6131  17.671   5.844  11.217 -0.0406  0.0445  0.0449
  384loPI   PO4 6132  17.349   5.589  10.832  0.3688 -0.0253 -0.0920
  384loPI   GL1 6133  17.078   5.638  10.613  0.0462  0.2024  0.1233
  384loPI   GL2 6134  17.340   5.962  10.522  0.0401  0.1252 -0.1068
  384loPI   C1A 6135  17.043   5.580  10.158  0.1459  0.1680 -0.1030
  384loPI   C2A 6136  17.131   5.530   9.763  0.2502  0.2676  0.1356
  384loPI   C3A 6137  17.078   5.542   9.297  0.1795  0.1323 -0.2021
  384loPI   C4A 6138  17.007   5.496   8.826 -0.1143  0.0712 -0.0515
  384loPI   C5A 6139  17.200   5.179   8.453  0.2323  0.1604 -0.1427
  384loPI   C6A 6140  17.355   4.755   8.352 -0.1670  0.0925  0.3641
  384loPI   C1B 6141  17.496   5.920  10.151  0.2300  0.1639 -0.0948
  384loPI   C2B 6142  17.557   5.811   9.796  0.0667 -0.5546  0.5786
  384loPI   C3B 6143  17.482   5.875   9.294  0.3508 -0.0445  0.2347
  384loPI   C4B 6144  17.450   5.876   8.850  0.0009 -0.2698 -0.0693
  385loPI    C1 6145   2.969  12.118  10.810  0.1084  0.0756 -0.0119
  385loPI    C2 6146   2.756  12.163  11.146  0.2370  0.0392  0.0756
  385loPI    C3 6147   2.975  11.833  11.091 -0.0668 -0.1225 -0.2052
  385loPI   PO4 6148   2.830  12.130  10.617  0.2133  0.2273 -0.1560
  385loPI   GL1 6149   2.522  11.979  10.315  0.1358 -0.0526 -0.0355
  385loPI   GL2 6150   2.217  12.147  10.385 -0.0223  0.2905 -0.0062
  385loPI   C1A 6151   2.589  11.931   9.788  0.1396  0.0602  0.2773
  385loPI   C2A 6152   2.652  11.909   9.476  0.1254 -0.1095  0.2379
  385loPI   C3A 6153   2.607  11.918   9.076 -0.2128  0.2141  0.0566
  385loPI   C4A 6154   2.725  11.804   8.709  0.1303  0.2721  0.1098
  385loPI   C5A 6155   2.635  11.843   8.330  0.1360  0.0305  0.1881
  385loPI   C6A 6156   2.419  11.661   8.034 -0.0790 -0.1241  0.0455
  385loPI   C1B 6157   2.130  12.149   9.940 -0.1666 -0.2700 -0.0552
  385loPI   C2B 6158   2.154  12.067   9.530  0.0995 -0.0483 -0.1560
  385loPI   C3B 6159   2.133  12.098   9.081  0.2042  0.2592 -0.2073
  385loPI   C4B 6160   2.197  11.938   8.666 -0.2228 -0.1702  0.1963
  386loPI    C1 6161   7.599   5.118  11.175  0.0869  0.0856 -0.1358
  386loPI    C2 6162   7.572   4.838  11.459  0.2747 -0.1444 -0.3399
  386loPI    C3 6163   7.820   5.148  11.507  0.0489  0.0043 -0.1030
  386loPI   PO4 6164   7.534   4.931  10.928 -0.0655  0.0159 -0.1258
  386loPI   GL1 6165   7.498   5.071  10.570  0.3768 -0.1592 -0.0390
  386loPI   GL2 6166   7.476   5.381  10.466  0.0311  0.0971 -0.2145
  386loPI   C1A 6167   7.446   4.882  10.156 -0.1984 -0.2810 -0.0999
  386loPI   C2A 6168   7.325   4.807   9.734  0.0788 -0.2076  0.0378
  386loPI   C3A 6169   7.327   4.798   9.275 -0.2720 -0.1174  0.1568
  386loPI   C4A 6170   7.301   4.731   8.872  0.0995  0.2509 -0.3664
  386loPI   C5A 6171   7.310   4.525   8.487 -0.2548 -0.1266 -0.2544
  386loPI   C6A 6172   7.294   4.385   8.074  0.0951 -0.2681  0.1424
  386loPI   C1B 6173   7.387   5.387   9.988 -0.3560  0.0544 -0.0515
  386loPI   C2B 6174   7.281   5.309   9.530 -0.4823  0.0095 -0.4082
  386loPI   C3B 6175   7.317   5.223   9.019 -0.0641  0.1876 -0.0529
  386loPI   C4B 6176   7.267   5.173   8.661 -0.1570 -0.0001 -0.0192
  387loPI    C1 6177  17.639   1.903  11.060  0.0700 -0.2000 -0.1157
  387loPI    C2 6178  17.505   2.108  11.376  0.0866 -0.1737 -0.1258
  387loPI    C3 6179  17.586   1.718  11.411  0.1313 -0.1610 -0.0855
  387loPI   PO4 6180  17.565   1.963  10.839 -0.2560 -0.1641  0.3369
  387loPI   GL1 6181  17.601   1.856  10.533 -0.0674 -0.2123 -0.0305
  387loPI   GL2 6182  17.866   1.720  10.371  0.2962 -0.1915 -0.1323
  387loPI   C1A 6183  17.573   1.956  10.111 -0.0955 -0.0687 -0.3392
  387loPI   C2A 6184  17.577   1.828   9.672 -0.1949 -0.2602 -0.1023
  387loPI   C3A 6185  17.474   1.922   9.279  0.0010 -0.1939 -0.0838
  387loPI   C4A 6186  17.388   2.024   8.883 -0.0622 -0.2590 -0.1709
  387loPI   C5A 6187  17.126   2.234   8.661  0.2718 -0.0565 -0.2621
  387loPI   C6A 6188  17.048   2.503   8.326  0.1882  0.0867  0.0572
  387loPI   C1B 6189  17.947   1.596   9.999 -0.2151 -0.0466  0.3783
  387loPI   C2B 6190  18.034   1.636   9.466  0.0686 -0.0723  0.1044
  387loPI   C3B 6191  17.888   1.660   9.050 -0.0300  0.1525 -0.0423
  387loPI   C4B 6192  17.885   1.767   8.642 -0.0049  0.0654  0.2693
  388loPI    C1 6193   0.538  10.114  11.394 -0.0060 -0.1778  0.0169
  388loPI    C2 6194   0.813   9.853  11.522 -0.0631 -0.1146  0.2749
  388loPI    C3 6195   0.440   9.837  11.666 -0.1004  0.0288  0.1959
  388loPI   PO4 6196   0.496  10.108  11.155  0.1779 -0.1252  0.0710
  388loPI   GL1 6197   0.405  10.189  10.790  0.4236  0.0054  0.4058
  388loPI   GL2 6198   0.560  10.377  10.683  0.4853  0.0059 -0.0312
  388loPI   C1A 6199   0.147  10.107  10.458  0.2267 -0.1758  0.0893
  388loPI   C2A 6200   0.093  10.059   9.992  0.1928  0.0687 -0.5960
  388loPI   C3A 6201   0.171  10.034   9.578 -0.0729 -0.0621  0.0194
  388loPI   C4A 6202   0.149  10.053   9.179  0.4222  0.1179 -0.1020
  388loPI   C5A 6203   0.101  10.100   8.736  0.3247 -0.0877  0.0670
  388loPI   C6A 6204  -0.109  10.337   8.416  0.1688 -0.2220  0.3610
  388loPI   C1B 6205   0.541  10.403  10.350 -0.0374  0.1430 -0.4259
  388loPI   C2B 6206   0.545  10.376   9.895  0.0557 -0.0103 -0.1624
  388loPI   C3B 6207   0.546  10.343   9.459  0.1546 -0.0182  0.0535
  388loPI   C4B 6208   0.456  10.428   8.940  0.1212  0.0076 -0.0575
  389loPI    C1 6209   2.506   3.225  11.244  0.0382 -0.1878 -0.1322
  389loPI    C2 6210   2.502   3.482  11.551  0.1191 -0.1297 -0.1792
  389loPI    C3 6211   2.762   3.178  11.548  0.1516 -0.1017 -0.2131
  389loPI   PO4 6212   2.462   3.375  11.092 -0.0625 -0.1707 -0.0919
  389loPI   GL1 6213   2.164   3.335  10.824  0.1416  0.0166  0.1217
  389loPI   GL2 6214   2.029   3.578  10.901  0.0031  0.0669 -0.0513
  389loPI   C1A 6215   2.116   3.158  10.443 -0.0901 -0.0546  0.0800
  389loPI   C2A 6216   2.199   3.109   9.967  0.3493 -0.0880  0.0494
  389loPI   C3A 6217   2.189   3.207   9.551 -0.1993  0.0934 -0.1264
  389loPI   C4A 6218   2.197   3.218   9.080 -0.0449  0.0448 -0.1180
  389loPI   C5A 6219   2.156   3.408   8.638 -0.1788  0.2471 -0.0952
  389loPI   C6A 6220   2.018   3.788   8.413 -0.0332 -0.5752  0.3881
  389loPI   C1B 6221   2.066   3.653  10.428 -0.0635 -0.1029 -0.2134
  389loPI   C2B 6222   2.047   3.808   9.956  0.0073 -0.0752 -0.1581
  389loPI   C3B 6223   2.059   3.735   9.476 -0.1123 -0.1905  0.0448
  389loPI   C4B 6224   2.084   3.738   8.997  0.0656  0.0349 -0.2468
  390loPI    C1 6225  10.527   8.375  10.749  0.1958  0.0394  0.0884
  390loPI    C2 6226  10.696   8.297  11.103  0.0193  0.3598  0.2481
  390loPI    C3 6227  10.300   8.350  11.077  0.0064  0.1520 -0.0316
  390loPI   PO4 6228  10.793   8.416  10.595  0.1823  0.1483 -0.1682
  390loPI   GL1 6229  11.130   8.410  10.377  0.2086  0.0766 -0.2099
  390loPI   GL2 6230  11.365   8.333  10.398  0.1353 -0.0739 -0.0384
  390loPI   C1A 6231  10.980   8.111  10.117  0.1058  0.0461  0.1591
  390loPI   C2A 6232  10.904   8.170   9.675 -0.1348  0.3571 -0.0357
  390loPI   C3A 6233  10.867   8.227   9.248 -0.1098 -0.1356 -0.1361
  390loPI   C4A 6234  10.893   8.364   8.799 -0.0572 -0.0662 -0.1291
  390loPI   C5A 6235  10.807   8.319   8.419 -0.0323  0.0065 -0.2287
  390loPI   C6A 6236  10.285   8.253   8.329 -0.1068  0.1466 -0.1386
  390loPI   C1B 6237  11.328   8.431   9.899  0.1522  0.0313  0.2773
  390loPI   C2B 6238  11.329   8.581   9.483  0.3847  0.0139  0.0653
  390loPI   C3B 6239  11.306   8.525   9.138 -0.2327 -0.2585 -0.1656
  390loPI   C4B 6240  11.235   8.728   8.628 -0.1323  0.1907  0.0691
  391loPI    C1 6241  12.692   1.030  11.154 -0.0361  0.0272  0.1524
  391loPI    C2 6242  12.477   1.365  11.192  0.0145  0.0712  0.0548
  391loPI    C3 6243  12.620   1.181  11.518 -0.2795 -0.0303  0.1296
  391loPI   PO4 6244  12.630   0.886  10.940  0.1992  0.1555 -0.0903
  391loPI   GL1 6245  12.439   0.857  10.533  0.3600  0.2249 -0.1487
  391loPI   GL2 6246  12.160   0.719  10.418 -0.0510  0.0920  0.1332
  391loPI   C1A 6247  12.593   1.044  10.181  0.2144 -0.0137  0.1882
  391loPI   C2A 6248  12.596   1.061   9.783 -0.0097  0.0347  0.0800
  391loPI   C3A 6249  12.700   1.085   9.286 -0.3359  0.0513  0.1863
  391loPI   C4A 6250  12.755   1.108   8.808 -0.1307  0.0108 -0.0093
  391loPI   C5A 6251  12.935   1.278   8.385 -0.1126  0.1863 -0.0488
  391loPI   C6A 6252  13.261   1.183   8.216 -0.2577 -0.1789  0.1194
  391loPI   C1B 6253  12.238   0.742   9.991 -0.0438  0.1421  0.2838
  391loPI   C2B 6254  12.249   0.793   9.467  0.1976  0.2487 -0.0946
  391loPI   C3B 6255  12.274   0.732   9.065  0.0596  0.1747 -0.1411
  391loPI   C4B 6256  12.352   0.695   8.607  0.1670  0.4232 -0.0113
  392loPI    C1 6257   4.301   2.794  11.151 -0.0421  0.1837  0.0636
  392loPI    C2 6258   4.457   3.019  11.443 -0.1186  0.1407  0.1383
  392loPI    C3 6259   4.071   2.914  11.456 -0.1512  0.2343 -0.0375
  392loPI   PO4 6260   4.336   2.882  10.863 -0.3096 -0.0670 -0.1033
  392loPI   GL1 6261   4.531   3.068  10.513  0.0055 -0.0638 -0.0746
  392loPI   GL2 6262   4.800   3.332  10.491 -0.3327 -0.2075 -0.0250
  392loPI   C1A 6263   4.537   3.085  10.096 -0.0626 -0.0307  0.0379
  392loPI   C2A 6264   4.402   3.045   9.661  0.0808  0.0956  0.1043
  392loPI   C3A 6265   4.368   3.131   9.220 -0.0772  0.1169 -0.2148
  392loPI   C4A 6266   4.383   3.283   8.823 -0.0321  0.3082  0.1562
  392loPI   C5A 6267   4.572   3.377   8.352 -0.2555 -0.1115 -0.0777
  392loPI   C6A 6268   4.939   3.193   8.205 -0.0119 -0.2377  0.0543
  392loPI   C1B 6269   4.932   3.433  10.217  0.2639 -0.2179 -0.0537
  392loPI   C2B 6270   4.809   3.422   9.793  0.0891  0.0929  0.0681
  392loPI   C3B 6271   4.915   3.384   9.362 -0.3202 -0.1407 -0.1391
  392loPI   C4B 6272   4.837   3.496   8.941 -0.0262  0.1941 -0.0276
  393loPI    C1 6273   7.401   4.099  11.238 -0.0030 -0.2802  0.0865
  393loPI    C2 6274   7.002   4.104  11.224 -0.0038  0.1930  0.1396
  393loPI    C3 6275   7.189   3.999  11.562 -0.0781 -0.1695  0.0718
  393loPI   PO4 6276   7.434   4.078  10.941 -0.0784  0.0322  0.0153
  393loPI   GL1 6277   7.658   4.101  10.586  0.0423 -0.0064 -0.0203
  393loPI   GL2 6278   7.986   4.057  10.532 -0.0777 -0.1820 -0.2007
  393loPI   C1A 6279   7.530   4.218  10.211 -0.1814  0.0095 -0.1563
  393loPI   C2A 6280   7.493   4.323   9.801  0.0428  0.2060 -0.0310
  393loPI   C3A 6281   7.417   4.294   9.384 -0.1143  0.0065  0.1106
  393loPI   C4A 6282   7.439   4.238   8.915  0.1214  0.3310  0.3203
  393loPI   C5A 6283   7.387   4.086   8.570  0.3723  0.2659 -0.0707
  393loPI   C6A 6284   7.433   3.680   8.314  0.2170 -0.1677  0.3349
  393loPI   C1B 6285   8.003   4.099  10.082  0.0540  0.1591 -0.2454
  393loPI   C2B 6286   7.943   4.051   9.736  0.1376  0.2759  0.1584
  393loPI   C3B 6287   7.948   4.086   9.250 -0.1099  0.2774  0.0842
  393loPI   C4B 6288   7.890   4.035   8.847 -0.3009 -0.6400  0.0448
  394loPI    C1 6289   1.609   4.106  11.488 -0.0033 -0.0311 -0.1922
  394loPI    C2 6290   1.810   3.965  11.803 -0.0714  0.0372 -0.1175
  394loPI    C3 6291   1.694   4.347  11.796 -0.2408 -0.0140 -0.1380
  394loPI   PO4 6292   1.744   3.982  11.215 -0.0683 -0.0097  0.3800
  394loPI   GL1 6293   1.909   4.036  10.809 -0.1200 -0.2655 -0.0854
  394loPI   GL2 6294   1.599   3.949  10.634 -0.0572  0.0755 -0.0020
  394loPI   C1A 6295   2.049   4.226  10.348 -0.0164 -0.1313 -0.0367
  394loPI   C2A 6296   2.116   4.294   9.988 -0.0958  0.1335  0.0025
  394loPI   C3A 6297   2.054   4.284   9.512  0.4558  0.1917 -0.0509
  394loPI   C4A 6298   1.998   4.292   9.026 -0.2146 -0.2045 -0.2547
  394loPI   C5A 6299   2.200   4.185   8.668 -0.0323 -0.1233 -0.1671
  394loPI   C6A 6300   2.551   3.913   8.593  0.0313  0.1304 -0.1911
  394loPI   C1B 6301   1.648   3.948  10.160 -0.4300 -0.0823  0.0373
  394loPI   C2B 6302   1.658   3.917   9.649  0.1352 -0.2395 -0.1892
  394loPI   C3B 6303   1.647   4.024   9.226 -0.0544 -0.0894  0.1317
  394loPI   C4B 6304   1.727   3.993   8.733  0.2338 -0.2874 -0.2615
  395loPI    C1 6305  11.691   5.295  11.298 -0.0692 -0.0836 -0.1337
  395loPI    C2 6306  11.781   5.554  11.590 -0.1072  0.0057 -0.2007
  395loPI    C3 6307  11.424   5.373  11.586 -0.0179 -0.1764 -0.0605
  395loPI   PO4 6308  11.846   5.282  11.196  0.1519 -0.0011 -0.3285
  395loPI   GL1 6309  11.933   5.349  10.835 -0.1222  0.0477  0.0564
  395loPI   GL2 6310  11.743   5.496  10.751 -0.0890  0.1026 -0.1166
  395loPI   C1A 6311  12.262   5.163  10.567 -0.0482  0.2228  0.0632
  395loPI   C2A 6312  12.234   5.153  10.158 -0.2219  0.0201 -0.1432
  395loPI   C3A 6313  12.203   5.246   9.708 -0.0943 -0.2097  0.1678
  395loPI   C4A 6314  12.166   5.257   9.278 -0.1640  0.0717 -0.1639
  395loPI   C5A 6315  12.094   5.286   8.776 -0.0452 -0.3761 -0.1483
  395loPI   C6A 6316  11.931   5.001   8.410 -0.1988 -0.0702  0.0751
  395loPI   C1B 6317  11.811   5.384  10.262 -0.2219  0.1092  0.2567
  395loPI   C2B 6318  11.694   5.485   9.902  0.0337  0.2067  0.2689
  395loPI   C3B 6319  11.726   5.474   9.472  0.1853  0.1222 -0.1579
  395loPI   C4B 6320  11.679   5.473   9.081  0.0959 -0.0932 -0.1787
  396loPI    C1 6321  12.236  15.001  10.969  0.0037  0.0430 -0.0583
  396loPI    C2 6322  12.532  14.733  10.942 -0.0523 -0.0028 -0.2362
  396loPI    C3 6323  12.542  15.016  11.226  0.1825  0.0216 -0.2673
  396loPI   PO4 6324  12.169  14.968  10.695  0.1216  0.0159  0.0320
  396loPI   GL1 6325  12.271  14.977  10.275 -0.0715  0.1216  0.2730
  396loPI   GL2 6326  12.388  15.325  10.386  0.1327  0.0738  0.0033
  396loPI   C1A 6327  12.412  15.009   9.859 -0.2952 -0.2048 -0.0605
  396loPI   C2A 6328  12.408  14.950   9.445  0.1671  0.1697  0.1928
  396loPI   C3A 6329  12.516  14.952   9.084 -0.4197  0.1141  0.2534
  396loPI   C4A 6330  12.560  14.976   8.672 -0.1019  0.3195 -0.1929
  396loPI   C5A 6331  12.328  15.182   8.319  0.0134 -0.0134 -0.0718
  396loPI   C6A 6332  12.039  15.346   8.039  0.1410 -0.0643 -0.1302
  396loPI   C1B 6333  12.447  15.536  10.005  0.2082  0.1599  0.1189
  396loPI   C2B 6334  12.390  15.437   9.567 -0.1757  0.1357 -0.1784
  396loPI   C3B 6335  12.407  15.475   9.098  0.1636  0.0455  0.0273
  396loPI   C4B 6336  12.545  15.476   8.670  0.1985 -0.1409  0.1387
  397loPI    C1 6337   7.703  14.584  10.380  0.2365 -0.0227  0.0359
  397loPI    C2 6338   7.865  14.350  10.661  0.2842 -0.0008  0.0268
  397loPI    C3 6339   7.977  14.732  10.631  0.2679  0.0009 -0.0122
  397loPI   PO4 6340   7.549  14.466  10.186  0.1376 -0.1658  0.1353
  397loPI   GL1 6341   7.738  14.374   9.762  0.0383  0.1975  0.1709
  397loPI   GL2 6342   7.993  14.633   9.697 -0.0681 -0.0742 -0.1826
  397loPI   C1A 6343   7.573  14.262   9.389  0.0569 -0.0029  0.2336
  397loPI   C2A 6344   7.469  14.161   8.995  0.0037  0.0694  0.0798
  397loPI   C3A 6345   7.554  14.153   8.568  0.1602  0.0196  0.1618
  397loPI   C4A 6346   7.677  14.050   8.135 -0.3365 -0.3254 -0.0940
  397loPI   C5A 6347   7.444  14.296   7.913 -0.1419  0.1241 -0.0307
  397loPI   C6A 6348   7.275  14.355   7.590  0.0202 -0.2844  0.0887
  397loPI   C1B 6349   7.983  14.506   9.308  0.2511  0.0289  0.1018
  397loPI   C2B 6350   7.919  14.411   8.847  0.0830 -0.0175 -0.1706
  397loPI   C3B 6351   7.869  14.496   8.406 -0.0455  0.0132 -0.0332
  397loPI   C4B 6352   7.957  14.496   7.978  0.0437  0.1384 -0.1102
  398loPI    C1 6353   0.414  12.204  11.280  0.0766  0.1350  0.0859
  398loPI    C2 6354   0.301  12.011  11.612  0.0496  0.2128  0.1221
  398loPI    C3 6355   0.395  12.400  11.628  0.0866  0.2073  0.0461
  398loPI   PO4 6356   0.255  12.153  11.044  0.0883  0.0391  0.2311
  398loPI   GL1 6357   0.166  12.286  10.661 -0.1787  0.1123 -0.3622
  398loPI   GL2 6358   0.030  12.000  10.556  0.1222  0.1948  0.1335
  398loPI   C1A 6359   0.327  12.499  10.231  0.0663 -0.0249 -0.2645
  398loPI   C2A 6360   0.265  12.501   9.708  0.0581 -0.0336  0.0160
  398loPI   C3A 6361   0.342  12.368   9.349 -0.1196 -0.0499 -0.0353
  398loPI   C4A 6362   0.339  12.388   8.925 -0.0384 -0.1623  0.4098
  398loPI   C5A 6363   0.522  12.577   8.553  0.0448 -0.1627  0.0402
  398loPI   C6A 6364   0.936  12.482   8.316  0.2095 -0.0010 -0.1294
  398loPI   C1B 6365  -0.093  12.144  10.230  0.2658 -0.2808  0.1072
  398loPI   C2B 6366  -0.122  12.082   9.767 -0.1381 -0.0101 -0.0086
  398loPI   C3B 6367  -0.026  12.108   9.262 -0.0463 -0.0516 -0.2691
  398loPI   C4B 6368  -0.170  12.140   8.803  0.1253 -0.3871  0.0428
  399loPI    C1 6369  17.578  12.623  11.404 -0.0493 -0.1275 -0.1112
  399loPI    C2 6370  17.773  12.275  11.444  0.1180 -0.0266 -0.0387
  399loPI    C3 6371  17.485  12.375  11.704  0.0274 -0.1379 -0.0957
  399loPI   PO4 6372  17.455  12.629  11.209  0.3237  0.0667 -0.1012
  399loPI   GL1 6373  17.569  12.689  10.821  0.0177 -0.0584  0.0212
  399loPI   GL2 6374  17.388  12.885  10.711 -0.3103  0.0446  0.1765
  399loPI   C1A 6375  17.721  12.615  10.429  0.1722 -0.3459  0.1508
  399loPI   C2A 6376  17.680  12.721   9.926 -0.1368 -0.1478  0.2695
  399loPI   C3A 6377  17.725  12.712   9.467  0.1779 -0.1364 -0.0484
  399loPI   C4A 6378  17.774  12.616   9.084  0.5304 -0.1115 -0.0619
  399loPI   C5A 6379  17.579  12.633   8.701  0.1099 -0.0378  0.2048
  399loPI   C6A 6380  17.146  12.710   8.559  0.0791 -0.1876  0.2017
  399loPI   C1B 6381  17.272  12.850  10.330  0.3114  0.0684  0.1532
  399loPI   C2B 6382  17.192  12.893   9.932  0.0175 -0.1314 -0.1359
  399loPI   C3B 6383  17.240  12.895   9.532 -0.2231 -0.3859 -0.1705
  399loPI   C4B 6384  17.267  12.888   9.079  0.1775 -0.0512  0.0564
  400loPI    C1 6385  16.871   9.074  11.105  0.1884  0.0762 -0.2050
  400loPI    C2 6386  16.701   9.402  11.259 -0.3235 -0.2557 -0.0396
  400loPI    C3 6387  16.891   9.143  11.498  0.0728 -0.0928 -0.1688
  400loPI   PO4 6388  16.910   9.178  10.815 -0.0693  0.1733  0.2062
  400loPI   GL1 6389  16.883   9.131  10.441  0.0903  0.0107  0.0658
  400loPI   GL2 6390  16.622   9.171  10.304 -0.0274 -0.2027 -0.1992
  400loPI   C1A 6391  17.105   9.456  10.122  0.0963 -0.0081 -0.4499
  400loPI   C2A 6392  17.203   9.490   9.667 -0.2133  0.0462 -0.0787
  400loPI   C3A 6393  17.147   9.544   9.241  0.0448 -0.0210  0.0479
  400loPI   C4A 6394  17.131   9.520   8.797  0.0088 -0.0363  0.1669
  400loPI   C5A 6395  17.016   9.485   8.365  0.1956 -0.0118 -0.3242
  400loPI   C6A 6396  17.087   9.492   8.006  0.0325  0.3942 -0.0568
  400loPI   C1B 6397  16.667   9.199   9.786  0.2338  0.2538  0.0444
  400loPI   C2B 6398  16.620   9.203   9.353  0.2107  0.0042 -0.1577
  400loPI   C3B 6399  16.651   9.263   8.868 -0.1530  0.2538 -0.1563
  400loPI   C4B 6400  16.727   9.138   8.452  0.1228 -0.1931  0.4295
  401loPI    C1 6401  10.544   7.058  11.131 -0.1171 -0.0453  0.1079
  401loPI    C2 6402  10.446   7.139  11.511  0.0511  0.0687  0.1282
  401loPI    C3 6403  10.800   6.973  11.427  0.0433  0.1084  0.0150
  401loPI   PO4 6404  10.382   7.045  11.009 -0.0606 -0.0367 -0.0497
  401loPI   GL1 6405  10.424   6.902  10.615 -0.0110  0.3021 -0.0497
  401loPI   GL2 6406  10.388   6.537  10.672 -0.2593 -0.0934 -0.1543
  401loPI   C1A 6407  10.654   6.835  10.318 -0.1271  0.0363 -0.3392
  401loPI   C2A 6408  10.635   6.853   9.865  0.2889 -0.2445  0.1304
  401loPI   C3A 6409  10.667   6.853   9.388  0.2062 -0.0315 -0.1251
  401loPI   C4A 6410  10.589   6.924   8.981 -0.3068 -0.1005 -0.2071
  401loPI   C5A 6411  10.654   7.053   8.552 -0.0266  0.2217  0.0533
  401loPI   C6A 6412  10.911   7.405   8.470  0.0618 -0.0710  0.0529
  401loPI   C1B 6413  10.233   6.568  10.272  0.4874 -0.4395 -0.0251
  401loPI   C2B 6414  10.208   6.513   9.803  0.0871 -0.0669 -0.0034
  401loPI   C3B 6415  10.181   6.525   9.273  0.0779 -0.1884 -0.0586
  401loPI   C4B 6416  10.160   6.544   8.897 -0.0107 -0.0445 -0.0210
  402loPI    C1 6417  14.345   1.640  11.703 -0.0605  0.0662  0.1015
  402loPI    C2 6418  14.616   1.349  11.661  0.0392  0.2251 -0.4293
  402loPI    C3 6419  14.489   1.453  12.025  0.4724 -0.0494 -0.1918
  402loPI   PO4 6420  14.337   1.733  11.428 -0.0313 -0.0742  0.0236
  402loPI   GL1 6421  14.210   1.719  11.008 -0.0167  0.1129  0.0566
  402loPI   GL2 6422  14.004   1.576  11.074 -0.1277  0.3273 -0.0055
  402loPI   C1A 6423  14.272   1.782  10.648 -0.1953  0.2142  0.0731
  402loPI   C2A 6424  14.331   1.833  10.162 -0.1738 -0.2933  0.0928
  402loPI   C3A 6425  14.363   1.705   9.706 -0.1250  0.2048  0.1501
  402loPI   C4A 6426  14.420   1.835   9.263  0.0165  0.2030 -0.0658
  402loPI   C5A 6427  14.365   2.218   8.976 -0.1227 -0.3004 -0.0584
  402loPI   C6A 6428  14.033   2.255   8.724  0.2505 -0.0526  0.0677
  402loPI   C1B 6429  13.857   1.476  10.619 -0.0004 -0.0121  0.0575
  402loPI   C2B 6430  13.920   1.518  10.159 -0.0977  0.0406  0.1199
  402loPI   C3B 6431  13.963   1.453   9.692 -0.0821 -0.0965  0.2539
  402loPI   C4B 6432  13.925   1.508   9.296 -0.2265  0.0089  0.2360
  403loPI    C1 6433  16.797   0.533  11.094  0.0496 -0.0008 -0.0112
  403loPI    C2 6434  16.510   0.620  10.830  0.0273 -0.1390 -0.0332
  403loPI    C3 6435  16.629   0.896  11.094 -0.0785 -0.0595 -0.0677
  403loPI   PO4 6436  16.968   0.498  11.009 -0.1224 -0.0653  0.0629
  403loPI   GL1 6437  16.975   0.222  10.641 -0.3658 -0.2325 -0.4563
  403loPI   GL2 6438  17.143  -0.054  10.735 -0.0180  0.2043 -0.0161
  403loPI   C1A 6439  16.943   0.224  10.200  0.2205  0.0058 -0.1209
  403loPI   C2A 6440  17.120   0.298   9.796  0.3551 -0.1235  0.2223
  403loPI   C3A 6441  17.183   0.499   9.412 -0.0744 -0.3643  0.2447
  403loPI   C4A 6442  17.299   0.483   8.962  0.1790 -0.1974 -0.0735
  403loPI   C5A 6443  17.262   0.215   8.641  0.0350  0.1162 -0.0926
  403loPI   C6A 6444  17.485   0.351   8.338  0.0534  0.0857  0.0057
  403loPI   C1B 6445  17.319  -0.081  10.346  0.0030  0.4623  0.2527
  403loPI   C2B 6446  17.362  -0.076  10.009  0.0585 -0.2308 -0.3323
  403loPI   C3B 6447  17.324  -0.099   9.591  0.2993  0.1807 -0.3474
  403loPI   C4B 6448  17.268  -0.100   9.227  0.0512 -0.0428  0.2221
  404loPI    C1 6449   8.744  11.779  10.720  0.0760  0.1220 -0.0816
  404loPI    C2 6450   8.391  11.781  10.908 -0.0535 -0.0615 -0.3175
  404loPI    C3 6451   8.729  11.735  11.118 -0.1551  0.2754 -0.0714
  404loPI   PO4 6452   8.734  11.636  10.483 -0.3726 -0.0621  0.0448
  404loPI   GL1 6453   8.533  11.439  10.231  0.2403 -0.0517  0.1775
  404loPI   GL2 6454   8.618  11.094  10.096 -0.2574  0.0468 -0.1177
  404loPI   C1A 6455   8.598  11.507   9.772 -0.0439  0.1653  0.2970
  404loPI   C2A 6456   8.629  11.539   9.351  0.3694 -0.0601 -0.0319
  404loPI   C3A 6457   8.651  11.663   8.969 -0.1146  0.4969 -0.1933
  404loPI   C4A 6458   8.738  11.629   8.481  0.0296  0.1360  0.1877
  404loPI   C5A 6459   8.534  11.549   8.112  0.1332 -0.1457  0.1010
  404loPI   C6A 6460   8.204  11.385   7.822 -0.1404  0.3678  0.1577
  404loPI   C1B 6461   8.757  11.045   9.660  0.0340  0.0272  0.2666
  404loPI   C2B 6462   8.662  11.081   9.186  0.2516 -0.1764  0.2584
  404loPI   C3B 6463   8.778  11.129   8.762  0.4082 -0.2620  0.2524
  404loPI   C4B 6464   8.741  11.148   8.409  0.0293  0.0296 -0.0634
  405loPI    C1 6465   5.023   0.991  10.951  0.3582 -0.2146 -0.1043
  405loPI    C2 6466   5.075   0.603  11.036 -0.1316 -0.2095  0.2585
  405loPI    C3 6467   5.028   0.869  11.332 -0.1118  0.0828  0.0050
  405loPI   PO4 6468   5.137   1.106  10.796  0.0293  0.0320  0.0770
  405loPI   GL1 6469   4.932   1.205  10.462  0.1986 -0.1002  0.1501
  405loPI   GL2 6470   5.181   1.421  10.366  0.2147  0.0370 -0.0872
  405loPI   C1A 6471   5.103   0.950  10.152  0.1037 -0.5370 -0.1387
  405loPI   C2A 6472   5.106   0.864   9.660 -0.1774 -0.1425 -0.3121
  405loPI   C3A 6473   5.046   0.816   9.219  0.2244 -0.1312 -0.1987
  405loPI   C4A 6474   5.121   0.867   8.807 -0.0758  0.0782  0.2281
  405loPI   C5A 6475   5.120   0.811   8.441 -0.0049 -0.1706  0.1080
  405loPI   C6A 6476   4.724   0.851   8.248 -0.0784  0.0480  0.1604
  405loPI   C1B 6477   5.075   1.345   9.834 -0.0638 -0.0819  0.2044
  405loPI   C2B 6478   4.998   1.367   9.386  0.3669  0.0571 -0.2146
  405loPI   C3B 6479   5.087   1.403   8.980  0.0081 -0.3071 -0.1199
  405loPI   C4B 6480   5.069   1.507   8.557  0.1821  0.1148  0.0058
  406loPI    C1 6481  15.505  10.346  11.085  0.1649  0.1032  0.1779
  406loPI    C2 6482  15.431  10.315  11.476  0.0705 -0.0340  0.1498
  406loPI    C3 6483  15.790  10.437  11.350  0.0561  0.1471  0.2805
  406loPI   PO4 6484  15.301  10.465  11.024  0.1916 -0.1215 -0.0878
  406loPI   GL1 6485  15.295  10.691  10.615 -0.4252  0.2024  0.1132
  406loPI   GL2 6486  15.551  10.574  10.559 -0.3162  0.0362 -0.0612
  406loPI   C1A 6487  15.164  10.773  10.207  0.1061 -0.1763 -0.0423
  406loPI   C2A 6488  15.136  10.781   9.774 -0.1150 -0.1240  0.2186
  406loPI   C3A 6489  15.187  10.799   9.374 -0.1110 -0.0803  0.0263
  406loPI   C4A 6490  15.140  10.874   8.954  0.2973  0.0622 -0.0618
  406loPI   C5A 6491  15.118  10.954   8.583 -0.0892 -0.1644  0.1457
  406loPI   C6A 6492  14.875  10.942   8.253  0.2331 -0.1225 -0.4436
  406loPI   C1B 6493  15.713  10.574  10.150 -0.0685  0.0355  0.0973
  406loPI   C2B 6494  15.657  10.598   9.701  0.0371  0.0797 -0.1109
  406loPI   C3B 6495  15.744  10.604   9.291  0.0509 -0.1533  0.2724
  406loPI   C4B 6496  15.642  10.695   8.852 -0.1574 -0.0884  0.0804
  407loPI    C1 6497   5.947   3.669  11.441 -0.0619 -0.1561  0.2326
  407loPI    C2 6498   5.932   4.053  11.552  0.0474 -0.0882  0.0188
  407loPI    C3 6499   5.607   3.823  11.586 -0.0099  0.0143  0.1772
  407loPI   PO4 6500   6.069   3.816  11.159 -0.1345  0.2899  0.0159
  407loPI   GL1 6501   5.967   3.922  10.864 -0.1278 -0.0550  0.1379
  407loPI   GL2 6502   5.720   3.711  10.636  0.0308  0.1369 -0.1936
  407loPI   C1A 6503   6.262   3.956  10.544  0.0465  0.1409  0.1296
  407loPI   C2A 6504   6.151   3.843  10.123  0.0757 -0.1373 -0.1273
  407loPI   C3A 6505   6.144   3.827   9.710 -0.1674 -0.4049  0.0471
  407loPI   C4A 6506   6.134   3.877   9.326  0.3230 -0.0320  0.1335
  407loPI   C5A 6507   6.116   3.724   8.852 -0.0354 -0.0273  0.1172
  407loPI   C6A 6508   6.217   3.393   8.559  0.0584  0.0554 -0.1187
  407loPI   C1B 6509   5.754   3.565  10.225 -0.1092 -0.0530  0.1285
  407loPI   C2B 6510   5.726   3.655   9.788  0.1111  0.2865 -0.2474
  407loPI   C3B 6511   5.758   3.543   9.272  0.3842 -0.2388 -0.1428
  407loPI   C4B 6512   5.724   3.393   8.784  0.2334 -0.1105 -0.0010
  408loPI    C1 6513   2.574   5.350  11.313  0.2770 -0.0330  0.2950
  408loPI    C2 6514   2.402   5.089  11.563  0.3600 -0.1723  0.2079
  408loPI    C3 6515   2.606   5.401  11.709  0.0091  0.0128  0.3121
  408loPI   PO4 6516   2.554   5.261  11.055  0.0647 -0.0307 -0.1173
  408loPI   GL1 6517   2.606   5.444  10.680 -0.3431 -0.1186 -0.0227
  408loPI   GL2 6518   2.880   5.249  10.657  0.3054 -0.0297  0.0203
  408loPI   C1A 6519   2.476   5.528  10.299  0.0666 -0.1163 -0.2334
  408loPI   C2A 6520   2.342   5.606   9.800 -0.2137 -0.0853 -0.3407
  408loPI   C3A 6521   2.319   5.529   9.360  0.1771  0.2179  0.2367
  408loPI   C4A 6522   2.332   5.576   8.985 -0.2370 -0.1022 -0.0670
  408loPI   C5A 6523   2.466   5.722   8.609 -0.4282  0.0862 -0.1320
  408loPI   C6A 6524   2.759   6.049   8.482  0.0868 -0.0835  0.1848
  408loPI   C1B 6525   2.877   5.248  10.217 -0.1291 -0.0750  0.0961
  408loPI   C2B 6526   2.811   5.322   9.798 -0.1691  0.1391 -0.0511
  408loPI   C3B 6527   2.800   5.361   9.335 -0.1935 -0.0783  0.0424
  408loPI   C4B 6528   2.821   5.439   8.891 -0.0172  0.2447 -0.2246
  409loPI    C1 6529   4.109  11.425  11.064  0.1160 -0.1254 -0.0681
  409loPI    C2 6530   4.123  11.132  11.336  0.1699 -0.2171 -0.1693
  409loPI    C3 6531   3.968  11.487  11.433  0.2328 -0.2339 -0.0045
  409loPI   PO4 6532   3.988  11.275  10.817  0.0503  0.0483 -0.1173
  409loPI   GL1 6533   3.911  11.156  10.458 -0.2587  0.0422 -0.4241
  409loPI   GL2 6534   4.046  11.387  10.207  0.2432  0.1120 -0.2680
  409loPI   C1A 6535   4.127  10.861  10.172 -0.0192 -0.0033 -0.0040
  409loPI   C2A 6536   4.156  10.874   9.774  0.1225 -0.0026  0.3494
  409loPI   C3A 6537   4.109  10.802   9.289  0.1906  0.1474 -0.1335
  409loPI   C4A 6538   4.147  10.691   8.887  0.2481  0.0784  0.2863
  409loPI   C5A 6539   4.042  10.611   8.542  0.0234 -0.1543 -0.0258
  409loPI   C6A 6540   3.899  10.172   8.378 -0.1133 -0.1320 -0.1596
  409loPI   C1B 6541   4.041  11.363   9.734  0.0727  0.0187  0.0284
  409loPI   C2B 6542   4.092  11.317   9.295 -0.0765  0.0531  0.0486
  409loPI   C3B 6543   4.162  11.262   8.774  0.2683  0.0172 -0.0043
  409loPI   C4B 6544   4.126  11.063   8.361 -0.2763  0.1807 -0.1094
  410loPI    C1 6545  16.191   0.356  11.067  0.1257 -0.1127  0.0817
  410loPI    C2 6546  15.954   0.457  11.373  0.1698  0.1168  0.0422
  410loPI    C3 6547  16.170   0.121  11.390 -0.2407 -0.1556  0.0310
  410loPI   PO4 6548  16.032   0.374  10.877  0.3318  0.2337  0.2191
  410loPI   GL1 6549  15.875   0.561  10.550 -0.2454  0.0566  0.0446
  410loPI   GL2 6550  16.154   0.670  10.496 -0.1102 -0.1068  0.3125
  410loPI   C1A 6551  15.806   0.742  10.140  0.2229 -0.1053 -0.3141
  410loPI   C2A 6552  15.850   0.720   9.712  0.1508  0.0594  0.0934
  410loPI   C3A 6553  15.887   0.730   9.191 -0.0363 -0.3460  0.1211
  410loPI   C4A 6554  15.804   0.723   8.697  0.1723  0.2561  0.0764
  410loPI   C5A 6555  15.616   0.969   8.417  0.1593  0.0341 -0.1374
  410loPI   C6A 6556  15.618   1.213   8.666  0.4113  0.2110  0.2120
  410loPI   C1B 6557  16.300   0.607  10.130  0.2409 -0.2080 -0.0512
  410loPI   C2B 6558  16.263   0.531   9.609  0.1048 -0.0332 -0.0863
  410loPI   C3B 6559  16.380   0.460   9.140 -0.0503  0.2238  0.1519
  410loPI   C4B 6560  16.220   0.214   8.767  0.2132  0.1829 -0.0898
  411loPI    C1 6561   2.978   9.624  11.133  0.1641 -0.0764 -0.0308
  411loPI    C2 6562   2.653   9.801  11.284  0.0745 -0.0396 -0.2622
  411loPI    C3 6563   2.896   9.591  11.523 -0.0795 -0.0072 -0.0748
  411loPI   PO4 6564   2.892   9.622  10.909  0.0945 -0.2679 -0.1618
  411loPI   GL1 6565   2.954   9.480  10.499  0.0651 -0.2218  0.0952
  411loPI   GL2 6566   2.754   9.707  10.389  0.1811 -0.0899 -0.2661
  411loPI   C1A 6567   2.951   9.320  10.113  0.3773 -0.3534 -0.0762
  411loPI   C2A 6568   2.880   9.273   9.664 -0.1727 -0.0648 -0.0510
  411loPI   C3A 6569   2.987   9.261   9.233 -0.2665  0.3351 -0.1152
  411loPI   C4A 6570   2.971   9.173   8.862 -0.2876 -0.2144  0.0788
  411loPI   C5A 6571   2.992   9.398   8.483  0.0721  0.3599  0.3581
  411loPI   C6A 6572   2.835   9.733   8.294 -0.0628 -0.0473  0.2530
  411loPI   C1B 6573   2.836   9.864  10.032  0.0836 -0.2539  0.0687
  411loPI   C2B 6574   2.745   9.890   9.581 -0.3004 -0.0635 -0.2606
  411loPI   C3B 6575   2.881   9.817   9.171  0.5814 -0.0556  0.3027
  411loPI   C4B 6576   2.880   9.790   8.757  0.1961 -0.1466 -0.1009
  412loPI    C1 6577   2.517   0.257  11.285  0.0980 -0.0345  0.0419
  412loPI    C2 6578   2.795  -0.030  11.262  0.1824  0.0595 -0.1328
  412loPI    C3 6579   2.585   0.019  11.599  0.2300 -0.1484 -0.0717
  412loPI   PO4 6580   2.414   0.206  11.023 -0.0952  0.1740  0.1428
  412loPI   GL1 6581   2.455   0.086  10.543  0.2627 -0.0374 -0.0374
  412loPI   GL2 6582   2.391   0.439  10.499  0.0922  0.0601  0.0428
  412loPI   C1A 6583   2.501   0.066  10.129  0.0627 -0.1661 -0.0153
  412loPI   C2A 6584   2.454   0.146   9.729  0.0479  0.0362  0.1268
  412loPI   C3A 6585   2.469   0.011   9.329 -0.0551  0.1748  0.1182
  412loPI   C4A 6586   2.599   0.042   8.871  0.2096 -0.5637  0.3269
  412loPI   C5A 6587   2.442   0.211   8.383 -0.0788  0.0319 -0.0676
  412loPI   C6A 6588   2.291   0.088   7.941  0.2738 -0.3183 -0.5711
  412loPI   C1B 6589   2.403   0.582  10.069  0.1652 -0.2015 -0.2286
  412loPI   C2B 6590   2.476   0.618   9.660  0.1762  0.2358 -0.1343
  412loPI   C3B 6591   2.454   0.613   9.265  0.1896 -0.0264  0.1179
  412loPI   C4B 6592   2.449   0.555   8.782 -0.2194  0.0826 -0.2249
  413loPI    C1 6593   0.552   4.721  11.279  0.2169 -0.0541 -0.1023
  413loPI    C2 6594   0.417   5.072  11.416 -0.0519 -0.1108 -0.2150
  413loPI    C3 6595   0.246   4.732  11.537  0.0210 -0.1871 -0.3245
  413loPI   PO4 6596   0.552   4.722  11.044 -0.3318 -0.0342 -0.1841
  413loPI   GL1 6597   0.761   4.738  10.696  0.0686 -0.2673  0.1789
  413loPI   GL2 6598   0.635   4.449  10.555  0.2209 -0.1471  0.1967
  413loPI   C1A 6599   0.654   4.908  10.291 -0.2560  0.1984  0.3758
  413loPI   C2A 6600   0.675   4.857   9.892 -0.2980  0.0380 -0.0313
  413loPI   C3A 6601   0.605   4.950   9.484 -0.3129 -0.0682  0.0429
  413loPI   C4A 6602   0.576   4.918   9.068  0.0390  0.1084  0.5953
  413loPI   C5A 6603   0.596   4.936   8.628  0.0014  0.0524  0.0903
  413loPI   C6A 6604   0.326   5.202   8.450 -0.1152  0.2298 -0.0169
  413loPI   C1B 6605   0.813   4.412  10.157 -0.3644  0.1984 -0.0538
  413loPI   C2B 6606   0.655   4.345   9.764 -0.1337  0.1142 -0.0038
  413loPI   C3B 6607   0.718   4.412   9.334 -0.1184  0.0016 -0.1260
  413loPI   C4B 6608   0.565   4.402   8.900 -0.2832  0.0887 -0.0535
  414loPI    C1 6609   4.579  14.102  11.070  0.3209 -0.2234  0.0147
  414loPI    C2 6610   4.957  14.016  11.170  0.3026 -0.0168  0.2729
  414loPI    C3 6611   4.821  14.390  11.206  0.1435 -0.0396 -0.0548
  414loPI   PO4 6612   4.466  13.967  10.851 -0.0692  0.1556 -0.0847
  414loPI   GL1 6613   4.576  13.939  10.449  0.0491  0.1379  0.0061
  414loPI   GL2 6614   4.485  14.191  10.338 -0.1487  0.1114 -0.2764
  414loPI   C1A 6615   4.588  13.856  10.030  0.1465 -0.0241 -0.3223
  414loPI   C2A 6616   4.515  13.801   9.594 -0.2059 -0.0654  0.2173
  414loPI   C3A 6617   4.438  13.641   9.169  0.2305 -0.0964 -0.3123
  414loPI   C4A 6618   4.412  13.633   8.665 -0.0076  0.1983 -0.1924
  414loPI   C5A 6619   4.359  13.549   8.187  0.1115 -0.0387  0.1700
  414loPI   C6A 6620   3.977  13.690   7.996 -0.2999  0.2776 -0.2573
  414loPI   C1B 6621   4.479  14.264   9.754 -0.1429  0.2250  0.2687
  414loPI   C2B 6622   4.420  14.169   9.278 -0.0656  0.1574 -0.0762
  414loPI   C3B 6623   4.368  14.163   8.821 -0.1284 -0.2365 -0.1153
  414loPI   C4B 6624   4.285  14.111   8.483  0.2337 -0.0388  0.0870
  415loPI    C1 6625   0.777  13.455  11.137 -0.3762 -0.0012  0.2500
  415loPI    C2 6626   0.918  13.080  11.127  0.0966  0.1737  0.0935
  415loPI    C3 6627   0.853  13.260  11.478  0.1569  0.0501  0.1684
  415loPI   PO4 6628   0.909  13.546  10.892 -0.0397  0.1034 -0.1703
  415loPI   GL1 6629   0.673  13.231  10.618  0.3965 -0.0606 -0.0063
  415loPI   GL2 6630   0.787  12.909  10.543 -0.1292 -0.2072  0.2048
  415loPI   C1A 6631   0.659  13.388  10.192  0.0736 -0.0592  0.1189
  415loPI   C2A 6632   0.607  13.297   9.721 -0.0141 -0.0474 -0.1223
  415loPI   C3A 6633   0.566  13.269   9.275 -0.1674 -0.0665 -0.3453
  415loPI   C4A 6634   0.575  13.223   8.918  0.1824  0.0547 -0.2542
  415loPI   C5A 6635   0.600  13.090   8.470  0.1774 -0.1343  0.3357
  415loPI   C6A 6636   0.416  12.805   8.038 -0.0708  0.1603 -0.2706
  415loPI   C1B 6637   0.751  12.884  10.146  0.0920 -0.1276  0.1470
  415loPI   C2B 6638   0.691  12.822   9.731  0.0894 -0.0776 -0.0746
  415loPI   C3B 6639   0.870  12.689   9.381 -0.0520 -0.1726 -0.1202
  415loPI   C4B 6640   0.743  12.716   8.995 -0.0107  0.0498  0.2519
  416loPI    C1 6641   3.215  10.600  10.788 -0.0012  0.1408 -0.0019
  416loPI    C2 6642   3.134  10.581  11.179  0.3776 -0.1759  0.0666
  416loPI    C3 6643   3.495  10.700  11.055  0.2346 -0.0026 -0.1918
  416loPI   PO4 6644   3.179  10.384  10.677 -0.1749 -0.3547  0.2394
  416loPI   GL1 6645   3.304  10.412  10.343  0.0701  0.2848 -0.0315
  416loPI   GL2 6646   3.383  10.155  10.172  0.1141 -0.0313 -0.0138
  416loPI   C1A 6647   3.333  10.611   9.914 -0.3576  0.0630  0.0203
  416loPI   C2A 6648   3.347  10.590   9.480 -0.3490 -0.1107  0.4996
  416loPI   C3A 6649   3.280  10.613   9.064  0.0990  0.1869  0.0156
  416loPI   C4A 6650   3.239  10.477   8.643  0.2924 -0.0072  0.0348
  416loPI   C5A 6651   2.833  10.315   8.438  0.3003  0.1588 -0.1549
  416loPI   C6A 6652   2.815  10.195   8.146  0.0846 -0.1318  0.1012
  416loPI   C1B 6653   3.237  10.143   9.785 -0.0058 -0.0513  0.1400
  416loPI   C2B 6654   3.252  10.109   9.292 -0.0140 -0.0930  0.1012
  416loPI   C3B 6655   3.268  10.032   8.873 -0.1148  0.0400  0.2605
  416loPI   C4B 6656   3.384  10.029   8.382 -0.3798  0.0296 -0.3161
  417loPI    C1 6657  12.783   8.167  10.911  0.0649  0.1146  0.0657
  417loPI    C2 6658  13.114   8.061  11.107  0.0370  0.2339  0.1794
  417loPI    C3 6659  12.890   8.363  11.243 -0.0624  0.2217  0.0448
  417loPI   PO4 6660  12.826   8.144  10.634 -0.1491  0.2245 -0.1248
  417loPI   GL1 6661  12.651   8.011  10.240  0.1910 -0.1321  0.0098
  417loPI   GL2 6662  12.907   7.723  10.234 -0.3564 -0.2619 -0.0651
  417loPI   C1A 6663  12.872   7.914   9.736 -0.1004  0.3088  0.0785
  417loPI   C2A 6664  12.855   7.935   9.260  0.0130  0.0340 -0.0800
  417loPI   C3A 6665  12.706   7.986   8.889 -0.0365  0.2442  0.0994
  417loPI   C4A 6666  12.692   7.823   8.467 -0.2234 -0.0064  0.2254
  417loPI   C5A 6667  12.973   7.937   8.169  0.2165  0.2731  0.2207
  417loPI   C6A 6668  12.917   8.108   7.734  0.1954 -0.2606 -0.1430
  417loPI   C1B 6669  12.955   7.442   9.909  0.2517  0.0849  0.0046
  417loPI   C2B 6670  12.879   7.358   9.552  0.0171 -0.4047 -0.3201
  417loPI   C3B 6671  12.855   7.378   9.095  0.1288 -0.0015 -0.2330
  417loPI   C4B 6672  12.761   7.343   8.675 -0.0920  0.0380 -0.0414
  418loPI    C1 6673  14.952  16.952  11.134  0.1630 -0.2040  0.2234
  418loPI    C2 6674  15.282  17.141  11.258 -0.0538  0.3409 -0.0022
  418loPI    C3 6675  14.943  17.172  11.468 -0.0275 -0.0224  0.1005
  418loPI   PO4 6676  15.023  16.787  11.001  0.0504 -0.2296 -0.0201
  418loPI   GL1 6677  15.035  16.577  10.634  0.1940 -0.0771  0.0905
  418loPI   GL2 6678  14.746  16.519  10.507 -0.1035 -0.1985 -0.4426
  418loPI   C1A 6679  15.094  16.762  10.228  0.2607 -0.0089  0.1283
  418loPI   C2A 6680  15.077  16.853   9.903  0.0786  0.0366  0.2537
  418loPI   C3A 6681  15.040  16.798   9.404 -0.3109  0.1632  0.0447
  418loPI   C4A 6682  15.159  16.916   8.923  0.0400  0.0157 -0.0723
  418loPI   C5A 6683  15.344  16.792   8.450  0.1022 -0.2214  0.1002
  418loPI   C6A 6684  15.608  16.447   8.461  0.1558 -0.2774 -0.0403
  418loPI   C1B 6685  14.690  16.461  10.058 -0.2693  0.2453 -0.2006
  418loPI   C2B 6686  14.678  16.514   9.626 -0.4898 -0.0930  0.2465
  418loPI   C3B 6687  14.733  16.447   9.091 -0.1051  0.2134  0.0850
  418loPI   C4B 6688  14.548  16.560   8.692  0.0367 -0.1078  0.1468
  419loPI    C1 6689   0.206   1.489  11.242  0.0088  0.0594  0.1214
  419loPI    C2 6690   0.214   1.864  11.380 -0.0585  0.1170 -0.0286
  419loPI    C3 6691   0.207   1.557  11.636 -0.1765  0.2216  0.0955
  419loPI   PO4 6692   0.344   1.499  11.046  0.0811  0.2566 -0.0657
  419loPI   GL1 6693   0.369   1.495  10.673 -0.1906  0.0851  0.0926
  419loPI   GL2 6694   0.565   1.636  10.540  0.2837 -0.0907 -0.2197
  419loPI   C1A 6695   0.216   1.237  10.334 -0.0298 -0.4076 -0.1664
  419loPI   C2A 6696   0.177   1.122   9.969  0.0434  0.0046 -0.3480
  419loPI   C3A 6697   0.141   1.058   9.572  0.2512 -0.0576 -0.1405
  419loPI   C4A 6698   0.157   1.148   9.097  0.1846 -0.0839  0.2001
  419loPI   C5A 6699   0.305   1.317   8.614  0.1900  0.3785  0.0253
  419loPI   C6A 6700   0.653   1.094   8.397 -0.0499  0.2322 -0.0664
  419loPI   C1B 6701   0.571   1.488  10.108 -0.1489 -0.1118  0.1065
  419loPI   C2B 6702   0.530   1.380   9.646  0.0744 -0.1857 -0.0435
  419loPI   C3B 6703   0.558   1.480   9.152 -0.1150 -0.0139  0.0565
  419loPI   C4B 6704   0.786   1.357   8.757  0.1530  0.0946 -0.0543
  420loPI    C1 6705  13.854   3.458  11.370 -0.0908 -0.0458  0.1457
  420loPI    C2 6706  13.673   3.143  11.202 -0.1178 -0.0661  0.2125
  420loPI    C3 6707  13.511   3.319  11.522 -0.2665  0.2082 -0.0088
  420loPI   PO4 6708  14.116   3.397  11.292 -0.0675  0.2909  0.1928
  420loPI   GL1 6709  14.124   3.247  10.899 -0.0764 -0.0754  0.0089
  420loPI   GL2 6710  13.959   3.499  10.831 -0.1196  0.0751  0.0715
  420loPI   C1A 6711  14.143   3.388  10.391 -0.1667  0.2142  0.1728
  420loPI   C2A 6712  14.231   3.396  10.022  0.0393 -0.0017 -0.2068
  420loPI   C3A 6713  14.161   3.364   9.594  0.0132 -0.0829  0.0320
  420loPI   C4A 6714  14.188   3.278   9.125  0.0074 -0.0961  0.1204
  420loPI   C5A 6715  14.119   3.267   8.704 -0.3360 -0.0868 -0.0282
  420loPI   C6A 6716  14.009   3.682   8.515 -0.0485  0.0594  0.2265
  420loPI   C1B 6717  13.750   3.631  10.367 -0.0742  0.0438  0.0568
  420loPI   C2B 6718  13.767   3.616   9.943 -0.0493  0.0646 -0.2512
  420loPI   C3B 6719  13.661   3.626   9.525  0.1446  0.1368  0.0410
  420loPI   C4B 6720  13.630   3.549   9.072  0.0134 -0.0621  0.0473
  421loPI    C1 6721  14.247  16.983  11.301  0.0172 -0.0321  0.1585
  421loPI    C2 6722  13.934  17.000  11.052  0.0863 -0.0504  0.0699
  421loPI    C3 6723  13.883  16.879  11.430 -0.0075 -0.0882  0.0453
  421loPI   PO4 6724  14.464  17.064  11.148  0.4461  0.0453 -0.0933
  421loPI   GL1 6725  14.704  17.000  10.699 -0.5305 -0.0873  0.1314
  421loPI   GL2 6726  14.230  17.048  10.694  0.0381  0.0178  0.1789
  421loPI   C1A 6727  14.645  17.030  10.244  0.3006  0.0308  0.1504
  421loPI   C2A 6728  14.546  16.946   9.880  0.0947  0.0037 -0.0448
  421loPI   C3A 6729  14.593  16.943   9.431 -0.0935 -0.1085 -0.0563
  421loPI   C4A 6730  14.672  17.014   8.976  0.1785 -0.0441 -0.0969
  421loPI   C5A 6731  14.850  16.883   8.546  0.0620 -0.0525  0.0103
  421loPI   C6A 6732  14.873  16.661   8.202  0.2542  0.0010  0.0625
  421loPI   C1B 6733  14.178  17.238  10.310 -0.0757 -0.1978  0.3757
  421loPI   C2B 6734  14.192  17.280   9.848 -0.0291  0.0346 -0.3013
  421loPI   C3B 6735  14.144  17.175   9.365 -0.0718 -0.3539  0.3986
  421loPI   C4B 6736  14.185  17.112   8.911 -0.0761 -0.2511 -0.2338
  422loPI    C1 6737   4.732  17.764  10.938 -0.0046 -0.2410  0.0478
  422loPI    C2 6738   4.705  18.160  10.889  0.1943 -0.2062  0.2027
  422loPI    C3 6739   4.554  17.988  11.217 -0.1389 -0.2965  0.0071
  422loPI   PO4 6740   4.590  17.709  10.693  0.3710 -0.0263 -0.0180
  422loPI   GL1 6741   4.286  17.687  10.353  0.0586 -0.1828 -0.0979
  422loPI   GL2 6742   4.270  17.401  10.312  0.0138  0.0527 -0.0842
  422loPI   C1A 6743   4.356  17.593   9.863 -0.0768 -0.1452  0.0647
  422loPI   C2A 6744   4.303  17.587   9.426 -0.0496  0.1845  0.0018
  422loPI   C3A 6745   4.246  17.653   8.914  0.4441  0.2165  0.2915
  422loPI   C4A 6746   4.395  17.530   8.454  0.1552 -0.0298 -0.0337
  422loPI   C5A 6747   4.597  17.260   8.163 -0.2478  0.0866  0.1875
  422loPI   C6A 6748   4.919  16.963   8.008  0.0603 -0.0746 -0.3896
  422loPI   C1B 6749   4.025  17.222  10.045  0.3324 -0.0926 -0.0096
  422loPI   C2B 6750   3.872  17.355   9.647 -0.0936 -0.0693 -0.0732
  422loPI   C3B 6751   3.959  17.322   9.135  0.3777  0.1476 -0.0655
  422loPI   C4B 6752   3.984  17.240   8.777  0.0970 -0.2385 -0.0660
  423loPI    C1 6753   6.275  16.766  11.040 -0.0609 -0.1059  0.0788
  423loPI    C2 6754   6.197  17.016  11.343  0.1672 -0.1610  0.1853
  423loPI    C3 6755   6.421  16.690  11.405  0.3225 -0.1053 -0.0694
  423loPI   PO4 6756   6.437  16.927  10.818 -0.0106  0.1054 -0.1537
  423loPI   GL1 6757   6.312  16.956  10.446 -0.1030  0.0422 -0.2524
  423loPI   GL2 6758   6.351  17.371  10.512  0.0582  0.2131 -0.1516
  423loPI   C1A 6759   6.238  16.790  10.019  0.0732  0.0248 -0.0651
  423loPI   C2A 6760   6.298  16.659   9.576  0.2183 -0.0953 -0.1383
  423loPI   C3A 6761   6.306  16.766   9.133  0.2418  0.1156  0.0589
  423loPI   C4A 6762   6.312  16.678   8.672  0.1070 -0.1522 -0.1313
  423loPI   C5A 6763   6.325  16.637   8.285  0.0736 -0.3330  0.0562
  423loPI   C6A 6764   6.224  16.945   7.984  0.1821  0.2223  0.0203
  423loPI   C1B 6765   6.226  17.429  10.110  0.1207 -0.0016 -0.0384
  423loPI   C2B 6766   6.167  17.215   9.639  0.1122 -0.0248 -0.0856
  423loPI   C3B 6767   6.186  17.209   9.230 -0.0270 -0.1717 -0.0121
  423loPI   C4B 6768   6.246  17.187   8.815  0.1127  0.0357  0.1781
  424loPI    C1 6769  10.436  10.105  10.910 -0.0885 -0.1449  0.0003
  424loPI    C2 6770  10.557  10.467  11.031  0.0227 -0.1526 -0.0868
  424loPI    C3 6771  10.409  10.207  11.296 -0.1116 -0.0226 -0.0332
  424loPI   PO4 6772  10.603  10.186  10.628  0.0785 -0.0915 -0.1419
  424loPI   GL1 6773  10.362  10.175  10.302  0.3280 -0.1646 -0.0404
  424loPI   GL2 6774  10.300   9.912  10.194  0.1350  0.1575 -0.1217
  424loPI   C1A 6775  10.482  10.285   9.916 -0.1200  0.1974  0.1371
  424loPI   C2A 6776  10.635  10.352   9.570 -0.0409 -0.1162 -0.0085
  424loPI   C3A 6777  10.598  10.345   9.096  0.0192 -0.1017  0.0236
  424loPI   C4A 6778  10.664  10.364   8.703  0.0760  0.0409 -0.3550
  424loPI   C5A 6779  10.697  10.288   8.316 -0.2531  0.0940 -0.0080
  424loPI   C6A 6780  10.454  10.274   8.039  0.3004  0.1529 -0.1848
  424loPI   C1B 6781  10.140   9.930   9.832 -0.0649  0.0332 -0.1621
  424loPI   C2B 6782  10.207   9.998   9.403 -0.0513 -0.2269  0.3651
  424loPI   C3B 6783  10.175  10.078   8.942  0.0752 -0.1422  0.2474
  424loPI   C4B 6784  10.232  10.042   8.477 -0.3132  0.1678  0.4138
  425loPI    C1 6785   5.355  15.062  11.247 -0.0810 -0.0056 -0.1993
  425loPI    C2 6786   5.089  14.777  11.338 -0.1293  0.1147  0.0434
  425loPI    C3 6787   5.071  15.133  11.520  0.0981  0.1800 -0.0588
  425loPI   PO4 6788   5.386  15.052  10.994  0.2951 -0.0461 -0.3010
  425loPI   GL1 6789   5.243  15.251  10.643  0.1702 -0.1316 -0.1240
  425loPI   GL2 6790   5.525  15.018  10.513  0.3807  0.0162  0.1061
  425loPI   C1A 6791   5.102  15.205  10.237 -0.4060  0.1591  0.0956
  425loPI   C2A 6792   5.138  15.348   9.744  0.1097 -0.1305  0.1761
  425loPI   C3A 6793   5.185  15.276   9.392 -0.2492 -0.0792  0.2623
  425loPI   C4A 6794   5.072  15.293   8.954 -0.0212 -0.2187  0.0799
  425loPI   C5A 6795   5.041  15.327   8.472  0.3353 -0.2171  0.1701
  425loPI   C6A 6796   5.287  14.934   8.283  0.3176 -0.1830 -0.0082
  425loPI   C1B 6797   5.701  15.041  10.091  0.0527  0.1543 -0.0572
  425loPI   C2B 6798   5.640  15.036   9.697 -0.3561  0.0997  0.4441
  425loPI   C3B 6799   5.677  15.143   9.290  0.0270  0.0361 -0.0904
  425loPI   C4B 6800   5.572  15.125   8.920  0.0278 -0.1814  0.2949
  426loPI    C1 6801   4.140  10.667  10.601  0.0024 -0.1548 -0.1031
  426loPI    C2 6802   3.965  10.798  10.936 -0.1775  0.1302 -0.3046
  426loPI    C3 6803   3.746  10.621  10.652 -0.0592  0.0675 -0.3574
  426loPI   PO4 6804   4.410  10.626  10.748 -0.0279  0.1935  0.2430
  426loPI   GL1 6805   4.828  10.465  10.474 -0.2592 -0.1423 -0.1049
  426loPI   GL2 6806   4.539  10.436  10.271  0.1625  0.3008  0.1524
  426loPI   C1A 6807   4.964  10.325  10.010  0.0947  0.1848 -0.0792
  426loPI   C2A 6808   5.043  10.382   9.605 -0.1709  0.0420  0.1122
  426loPI   C3A 6809   5.000  10.304   9.114  0.1484 -0.1807  0.0696
  426loPI   C4A 6810   5.064  10.286   8.651 -0.0010  0.1018 -0.0822
  426loPI   C5A 6811   5.271  10.211   8.300 -0.2439 -0.0568 -0.0572
  426loPI   C6A 6812   5.641  10.073   8.163 -0.1293  0.1329  0.1510
  426loPI   C1B 6813   4.570  10.630   9.894 -0.0041  0.0979  0.1606
  426loPI   C2B 6814   4.605  10.610   9.420  0.0216  0.5693 -0.0982
  426loPI   C3B 6815   4.547  10.468   8.985 -0.0358  0.4440  0.1176
  426loPI   C4B 6816   4.401  10.301   8.555 -0.0806 -0.0579  0.1429
  427loPI    C1 6817   9.897   8.722  11.000  0.0783  0.0940  0.1484
  427loPI    C2 6818   9.659   9.025  10.891  0.0611  0.0300  0.0068
  427loPI    C3 6819   9.521   8.741  11.137  0.0236  0.0477  0.0066
  427loPI   PO4 6820  10.064   8.671  10.751  0.0460  0.3424 -0.3378
  427loPI   GL1 6821   9.925   8.534  10.253  0.0175 -0.1322  0.1555
  427loPI   GL2 6822  10.262   8.563  10.338 -0.3651 -0.0792  0.0233
  427loPI   C1A 6823   9.974   8.523   9.800 -0.0001 -0.0764 -0.0309
  427loPI   C2A 6824   9.946   8.569   9.363  0.0413 -0.0487 -0.0458
  427loPI   C3A 6825   9.832   8.688   8.979 -0.2034 -0.0551  0.1533
  427loPI   C4A 6826   9.729   8.858   8.602 -0.4659 -0.3290 -0.1120
  427loPI   C5A 6827   9.656   9.179   8.288  0.1152  0.1997 -0.2382
  427loPI   C6A 6828   9.490   9.637   8.191 -0.1681  0.2594 -0.1605
  427loPI   C1B 6829  10.408   8.360   9.941 -0.0056  0.0453 -0.1725
  427loPI   C2B 6830  10.469   8.375   9.494 -0.0696 -0.0961 -0.1296
  427loPI   C3B 6831  10.452   8.481   9.091  0.3234 -0.0443  0.0197
  427loPI   C4B 6832  10.223   8.544   8.741 -0.5174  0.0308 -0.0291
  428loPI    C1 6833   6.660  10.634  11.025  0.2607  0.2061  0.2160
  428loPI    C2 6834   6.436  10.929  10.873  0.1504  0.0901  0.1509
  428loPI    C3 6835   6.673  10.999  11.188  0.0419  0.2202  0.2046
  428loPI   PO4 6836   6.748  10.477  10.773  0.0366 -0.2962  0.1705
  428loPI   GL1 6837   7.027  10.346  10.502  0.0473  0.2567  0.1695
  428loPI   GL2 6838   7.146  10.115  10.442 -0.2293  0.0597  0.2729
  428loPI   C1A 6839   6.917  10.516  10.093  0.0624  0.1839  0.3682
  428loPI   C2A 6840   6.805  10.554   9.682  0.4263 -0.0419 -0.2172
  428loPI   C3A 6841   6.938  10.451   9.224  0.1020  0.0892  0.1249
  428loPI   C4A 6842   6.955  10.454   8.802 -0.1104  0.3994  0.0827
  428loPI   C5A 6843   6.859  10.506   8.371 -0.1158 -0.0247  0.0170
  428loPI   C6A 6844   7.037  10.842   8.086 -0.1641  0.1070 -0.0588
  428loPI   C1B 6845   6.986   9.992  10.000 -0.1169 -0.5345  0.0592
  428loPI   C2B 6846   6.907  10.012   9.496  0.0168 -0.1059 -0.0856
  428loPI   C3B 6847   6.981   9.947   8.980 -0.4321  0.0121  0.4095
  428loPI   C4B 6848   7.209  10.025   8.557 -0.2073 -0.0929  0.1011
  429loPI    C1 6849  10.623  13.247  10.715  0.0796  0.0104  0.0705
  429loPI    C2 6850  10.244  13.360  10.772  0.0135 -0.0905 -0.1574
  429loPI    C3 6851  10.540  13.627  10.807 -0.0754 -0.0158  0.0409
  429loPI   PO4 6852  10.663  13.091  10.500  0.0079  0.0916 -0.2685
  429loPI   GL1 6853  10.645  12.856  10.190 -0.0172 -0.0579 -0.1501
  429loPI   GL2 6854  10.877  12.723  10.067  0.1932  0.1751  0.0810
  429loPI   C1A 6855  10.330  12.922   9.868  0.0238  0.0757 -0.2034
  429loPI   C2A 6856  10.321  12.900   9.387 -0.0676  0.0172  0.0465
  429loPI   C3A 6857  10.358  12.922   8.927 -0.0254 -0.2984 -0.1939
  429loPI   C4A 6858  10.560  13.031   8.617 -0.1536  0.0753  0.2599
  429loPI   C5A 6859  10.549  13.175   8.212 -0.1074  0.1193 -0.2072
  429loPI   C6A 6860  10.636  13.596   8.089 -0.1858 -0.1392  0.0582
  429loPI   C1B 6861  10.795  12.689   9.746  0.2461 -0.1581 -0.0961
  429loPI   C2B 6862  10.780  12.658   9.328  0.1710 -0.0728  0.0487
  429loPI   C3B 6863  10.900  12.758   8.917 -0.2043 -0.2130  0.0405
  429loPI   C4B 6864  11.073  12.813   8.412 -0.1742 -0.3090  0.1470
  430loPI    C1 6865  14.559   2.705  11.607  0.0144 -0.0047  0.0368
  430loPI    C2 6866  14.828   2.739  11.901  0.1001  0.3903 -0.0806
  430loPI    C3 6867  14.453   2.867  11.958  0.0280  0.1641 -0.0361
  430loPI   PO4 6868  14.786   2.719  11.363 -0.3793  0.2359  0.0680
  430loPI   GL1 6869  14.812   2.699  10.923 -0.1245  0.3747 -0.2024
  430loPI   GL2 6870  14.983   2.972  10.827  0.3282  0.1204 -0.0553
  430loPI   C1A 6871  14.743   2.713  10.446  0.1884 -0.0854  0.0747
  430loPI   C2A 6872  14.711   2.630  10.067 -0.0081 -0.1286  0.1252
  430loPI   C3A 6873  14.745   2.683   9.625  0.1162  0.2728  0.0953
  430loPI   C4A 6874  14.625   2.644   9.180 -0.0943  0.0738  0.3447
  430loPI   C5A 6875  14.767   2.555   8.758  0.1568  0.0214 -0.0185
  430loPI   C6A 6876  15.053   2.298   8.532 -0.0088 -0.0537  0.2380
  430loPI   C1B 6877  15.197   2.914  10.401 -0.6641  0.0356  0.1347
  430loPI   C2B 6878  15.127   3.037  10.041  0.0867  0.1163  0.0008
  430loPI   C3B 6879  15.161   2.981   9.567  0.3272  0.2950  0.2297
  430loPI   C4B 6880  15.089   2.939   9.110  0.2816  0.0336 -0.0633
  431loPI    C1 6881  10.289  11.984  10.803 -0.0820  0.0893  0.0028
  431loPI    C2 6882  10.536  11.760  11.025 -0.1634 -0.1175 -0.1128
  431loPI    C3 6883  10.141  11.696  11.039 -0.1867  0.0152 -0.1518
  431loPI   PO4 6884  10.368  11.942  10.569  0.2354 -0.1610  0.2671
  431loPI   GL1 6885  10.347  11.937  10.176 -0.1061 -0.1449  0.4041
  431loPI   GL2 6886  10.046  11.777  10.147 -0.0011  0.0614  0.2430
  431loPI   C1A 6887  10.335  11.885   9.731  0.4434 -0.3417  0.2000
  431loPI   C2A 6888  10.399  11.864   9.212  0.0777  0.0339  0.0306
  431loPI   C3A 6889  10.547  11.904   8.862 -0.0711  0.1935  0.0168
  431loPI   C4A 6890  10.627  12.011   8.497 -0.0985  0.0611 -0.4115
  431loPI   C5A 6891  10.462  12.193   8.087 -0.2508 -0.2503  0.1390
  431loPI   C6A 6892  10.556  12.339   7.683  0.1580 -0.0721 -0.0613
  431loPI   C1B 6893   9.939  11.539   9.721 -0.0170  0.1594 -0.1385
  431loPI   C2B 6894   9.941  11.529   9.213 -0.0499 -0.0683 -0.0505
  431loPI   C3B 6895  10.149  11.579   8.771  0.0367  0.1275  0.1547
  431loPI   C4B 6896  10.089  11.644   8.404  0.1479 -0.1661  0.1833
  432loPI    C1 6897   5.294   3.065  11.257 -0.0196  0.2842  0.0123
  432loPI    C2 6898   5.329   3.418  11.443  0.0415  0.1289  0.3012
  432loPI    C3 6899   4.967   3.275  11.353  0.0084  0.1752  0.3599
  432loPI   PO4 6900   5.444   3.059  11.075  0.2153 -0.0301 -0.1830
  432loPI   GL1 6901   5.226   3.247  10.747 -0.1437 -0.1388 -0.1468
  432loPI   GL2 6902   5.112   3.518  10.920  0.0075  0.2433  0.0095
  432loPI   C1A 6903   5.354   3.218  10.379 -0.1559 -0.2994 -0.2669
  432loPI   C2A 6904   5.335   3.276   9.988 -0.1861  0.1933 -0.1568
  432loPI   C3A 6905   5.388   3.327   9.575  0.0612 -0.0687  0.0050
  432loPI   C4A 6906   5.342   3.325   9.161 -0.1540  0.1797 -0.0631
  432loPI   C5A 6907   5.169   3.263   8.665  0.2563  0.0515  0.1507
  432loPI   C6A 6908   5.442   3.039   8.486  0.1516  0.0341 -0.0064
  432loPI   C1B 6909   5.173   3.706  10.540  0.1520 -0.2273 -0.1143
  432loPI   C2B 6910   5.338   3.760  10.144 -0.0428 -0.0442  0.0036
  432loPI   C3B 6911   5.275   3.810   9.640  0.1224  0.0832 -0.1733
  432loPI   C4B 6912   5.259   3.844   9.178  0.0188  0.0690 -0.1481
  433loPI    C1 6913  13.452  15.590  10.955 -0.0559  0.0273 -0.0893
  433loPI    C2 6914  13.381  15.426  11.313  0.1597  0.0165 -0.0501
  433loPI    C3 6915  13.473  15.815  11.286  0.1561  0.0145 -0.0929
  433loPI   PO4 6916  13.171  15.453  10.822 -0.2807 -0.1017  0.2618
  433loPI   GL1 6917  13.116  15.074  10.500 -0.0208 -0.1556 -0.2243
  433loPI   GL2 6918  12.756  15.058  10.567  0.0111 -0.0146 -0.2047
  433loPI   C1A 6919  13.093  15.255  10.191 -0.0642 -0.0852  0.1325
  433loPI   C2A 6920  12.957  15.313   9.764  0.0642 -0.0902 -0.0596
  433loPI   C3A 6921  12.823  15.322   9.361 -0.3083  0.0964  0.1913
  433loPI   C4A 6922  12.970  15.230   8.937  0.3166 -0.1654  0.0096
  433loPI   C5A 6923  13.043  15.266   8.471  0.2695  0.0260 -0.0171
  433loPI   C6A 6924  12.793  15.218   8.157  0.0657 -0.1884  0.0095
  433loPI   C1B 6925  12.793  14.745  10.237  0.1834 -0.0739  0.4348
  433loPI   C2B 6926  12.870  14.794   9.739  0.1975  0.1789 -0.0694
  433loPI   C3B 6927  12.919  14.731   9.296  0.1681 -0.0758  0.0315
  433loPI   C4B 6928  13.069  14.737   8.978 -0.1713  0.2889 -0.1903
  434loPI    C1 6929   5.685   5.264  11.467  0.1475 -0.0410 -0.3332
  434loPI    C2 6930   5.899   5.391  11.780  0.1845  0.1335 -0.4276
  434loPI    C3 6931   5.741   5.024  11.782  0.4125  0.0333 -0.3208
  434loPI   PO4 6932   5.707   5.399  11.331 -0.0760 -0.0279  0.2877
  434loPI   GL1 6933   5.687   5.491  10.967 -0.1651 -0.0113  0.0740
  434loPI   GL2 6934   5.463   5.549  10.764 -0.2350  0.2318 -0.1842
  434loPI   C1A 6935   5.981   5.445  10.589 -0.1239  0.0688  0.2023
  434loPI   C2A 6936   5.920   5.391  10.121  0.3537 -0.1742 -0.1815
  434loPI   C3A 6937   5.971   5.468   9.716 -0.0212  0.0755  0.0761
  434loPI   C4A 6938   5.919   5.377   9.339  0.0586  0.2577 -0.0762
  434loPI   C5A 6939   5.876   5.313   8.876  0.0149  0.0990 -0.1417
  434loPI   C6A 6940   5.874   4.961   8.661 -0.1922 -0.1647  0.0164
  434loPI   C1B 6941   5.453   5.652  10.371 -0.1867 -0.2209 -0.0568
  434loPI   C2B 6942   5.431   5.602   9.894 -0.1979 -0.0342  0.0210
  434loPI   C3B 6943   5.474   5.627   9.415  0.0714  0.0100 -0.3161
  434loPI   C4B 6944   5.486   5.603   8.967  0.0962 -0.1870 -0.0105
  435loPI    C1 6945   9.163   9.052  10.806 -0.1007  0.1177 -0.1449
  435loPI    C2 6946   9.002   8.694  10.727  0.0369 -0.0380  0.2557
  435loPI    C3 6947   8.991   8.841  11.099  0.2718  0.2282  0.1617
  435loPI   PO4 6948   9.282   9.075  10.583 -0.2441 -0.1068 -0.1840
  435loPI   GL1 6949   9.304   9.165  10.244  0.1059  0.3517 -0.3860
  435loPI   GL2 6950   9.237   8.864  10.161  0.2010  0.0731 -0.0174
  435loPI   C1A 6951   9.326   9.309   9.860  0.1797 -0.2088 -0.1836
  435loPI   C2A 6952   9.333   9.310   9.487 -0.0519  0.2225 -0.0127
  435loPI   C3A 6953   9.364   9.330   9.041  0.1420  0.1202  0.1743
  435loPI   C4A 6954   9.308   9.418   8.667  0.0283  0.0806  0.0372
  435loPI   C5A 6955   9.120   9.307   8.322  0.0742 -0.2547 -0.0746
  435loPI   C6A 6956   8.667   9.422   8.215 -0.0685 -0.1044  0.0771
  435loPI   C1B 6957   9.227   8.895   9.646  0.0133 -0.3143  0.2235
  435loPI   C2B 6958   9.278   8.836   9.214 -0.2825  0.1945  0.0435
  435loPI   C3B 6959   9.225   8.825   8.778  0.3461  0.1569 -0.0634
  435loPI   C4B 6960   9.250   8.824   8.304  0.0583  0.0217  0.2173
  436loPI    C1 6961  13.386   4.248  11.248 -0.3549 -0.0052 -0.0120
  436loPI    C2 6962  13.204   4.396  11.571 -0.0484 -0.0844  0.2017
  436loPI    C3 6963  13.601   4.430  11.532 -0.0660 -0.1977 -0.1017
  436loPI   PO4 6964  13.181   4.077  11.180 -0.1764  0.0837 -0.1228
  436loPI   GL1 6965  13.114   4.013  10.763  0.0362  0.1231 -0.0363
  436loPI   GL2 6966  13.290   3.784  10.574 -0.5221  0.0830 -0.0294
  436loPI   C1A 6967  13.186   4.221  10.328 -0.1331 -0.0886 -0.1547
  436loPI   C2A 6968  13.186   4.297   9.912 -0.0399 -0.1823 -0.0917
  436loPI   C3A 6969  13.143   4.338   9.441 -0.1755 -0.0944  0.3257
  436loPI   C4A 6970  13.095   4.287   9.004 -0.0599  0.1543 -0.2141
  436loPI   C5A 6971  13.025   4.131   8.607 -0.1727 -0.3465 -0.0097
  436loPI   C6A 6972  12.670   4.218   8.389  0.2132 -0.0070  0.0935
  436loPI   C1B 6973  13.225   3.749  10.188 -0.1225 -0.0086 -0.1564
  436loPI   C2B 6974  13.245   3.766   9.817 -0.0138  0.0135 -0.1110
  436loPI   C3B 6975  13.191   3.786   9.397 -0.2035 -0.0266  0.2286
  436loPI   C4B 6976  13.160   3.821   8.929 -0.2108 -0.2896  0.0980
  437loPI    C1 6977  12.202  11.800  10.989 -0.0022  0.1844 -0.0642
  437loPI    C2 6978  12.141  11.593  11.325 -0.0573  0.0603 -0.1497
  437loPI    C3 6979  12.479  11.801  11.277 -0.0243  0.0326 -0.0413
  437loPI   PO4 6980  12.258  11.638  10.737  0.4087 -0.3957  0.4132
  437loPI   GL1 6981  11.969  11.675  10.415 -0.2244 -0.0234  0.3423
  437loPI   GL2 6982  12.168  11.378  10.325  0.1325 -0.1412  0.1418
  437loPI   C1A 6983  11.736  11.679  10.002  0.2281 -0.0671 -0.1341
  437loPI   C2A 6984  11.713  11.723   9.581  0.0978 -0.1652  0.0882
  437loPI   C3A 6985  11.874  11.812   9.118  0.0755  0.0189  0.0536
  437loPI   C4A 6986  11.904  11.913   8.682 -0.1972  0.1404  0.1560
  437loPI   C5A 6987  11.649  11.920   8.280 -0.1154  0.0169  0.0148
  437loPI   C6A 6988  11.462  12.120   7.954 -0.2302  0.3534  0.1523
  437loPI   C1B 6989  12.218  11.609   9.931 -0.0067  0.2435  0.2215
  437loPI   C2B 6990  12.219  11.615   9.439  0.1463  0.1531  0.1378
  437loPI   C3B 6991  12.314  11.604   9.089 -0.2098  0.2622  0.1957
  437loPI   C4B 6992  12.334  11.591   8.658 -0.0403  0.2154  0.1388
  438loPI    C1 6993  15.840  13.473  11.484 -0.1624  0.0606 -0.0584
  438loPI    C2 6994  15.967  13.770  11.721 -0.0894 -0.0674  0.0641
  438loPI    C3 6995  15.877  13.413  11.878  0.0519 -0.1829 -0.1128
  438loPI   PO4 6996  15.906  13.555  11.204 -0.2285 -0.2760 -0.0095
  438loPI   GL1 6997  15.799  13.321  10.849  0.1889 -0.0556 -0.0668
  438loPI   GL2 6998  15.789  12.938  10.780  0.2591  0.2489  0.3631
  438loPI   C1A 6999  15.869  13.448  10.391  0.1131 -0.1302  0.1110
  438loPI   C2A 7000  15.799  13.460  10.017 -0.1103  0.1551 -0.3711
  438loPI   C3A 7001  15.710  13.503   9.559  0.0972  0.2087  0.0430
  438loPI   C4A 7002  15.841  13.453   9.191 -0.0175  0.4467 -0.2503
  438loPI   C5A 7003  15.856  13.529   8.773 -0.1530  0.1808 -0.0659
  438loPI   C6A 7004  15.811  13.731   8.354 -0.1211  0.1084  0.1759
  438loPI   C1B 7005  15.864  12.966  10.310 -0.1139  0.3886 -0.1482
  438loPI   C2B 7006  15.824  12.956   9.898 -0.0116 -0.0856 -0.0529
  438loPI   C3B 7007  15.835  13.004   9.470 -0.2044  0.0407 -0.1104
  438loPI   C4B 7008  15.826  13.010   8.998 -0.0046  0.2283 -0.1234
  439loPI    C1 7009  13.386   6.726  11.182 -0.0033 -0.1777  0.1425
  439loPI    C2 7010  13.635   6.967  11.381 -0.2125 -0.0627  0.2688
  439loPI    C3 7011  13.399   6.714  11.582 -0.2130 -0.1564  0.1508
  439loPI   PO4 7012  13.390   6.548  10.871 -0.2047 -0.1747 -0.0017
  439loPI   GL1 7013  13.088   6.318  10.735  0.0899 -0.2415  0.3264
  439loPI   GL2 7014  13.334   6.273  10.485  0.2165  0.1040 -0.0924
  439loPI   C1A 7015  12.936   5.929  10.543  0.3728  0.2262  0.1278
  439loPI   C2A 7016  12.891   5.866  10.104 -0.2552  0.2582  0.0936
  439loPI   C3A 7017  12.957   5.786   9.735 -0.0927 -0.1024 -0.0829
  439loPI   C4A 7018  13.035   5.927   9.329 -0.1016  0.1409  0.1724
  439loPI   C5A 7019  12.956   5.818   8.873  0.0029 -0.2421  0.2235
  439loPI   C6A 7020  13.044   5.780   8.466  0.0720 -0.1066  0.0777
  439loPI   C1B 7021  13.391   6.136  10.102  0.1854  0.0614 -0.2467
  439loPI   C2B 7022  13.415   6.093   9.687  0.1142  0.0907 -0.3168
  439loPI   C3B 7023  13.447   6.168   9.270  0.1047 -0.3577 -0.1552
  439loPI   C4B 7024  13.328   6.141   8.904  0.1017  0.1885  0.2227
  440loPI    C1 7025   9.498   1.927  10.909  0.0885  0.0134 -0.0613
  440loPI    C2 7026   9.496   1.900  11.308 -0.0948 -0.2137 -0.0751
  440loPI    C3 7027   9.203   2.097  11.120  0.1271  0.1121 -0.0865
  440loPI   PO4 7028   9.625   1.658  10.859  0.0776  0.0730  0.0577
  440loPI   GL1 7029   9.923   1.616  10.502  0.1272 -0.0924  0.0353
  440loPI   GL2 7030  10.281   1.688  10.559  0.1994  0.0544  0.1543
  440loPI   C1A 7031  10.019   1.763  10.045  0.2828  0.0345  0.1891
  440loPI   C2A 7032   9.930   1.739   9.639  0.0911 -0.2152 -0.0342
  440loPI   C3A 7033   9.961   1.712   9.214 -0.0754 -0.0522  0.0136
  440loPI   C4A 7034   9.985   1.682   8.794  0.0052  0.0781 -0.1078
  440loPI   C5A 7035   9.933   1.775   8.476 -0.1213 -0.3122  0.3406
  440loPI   C6A 7036  10.026   1.937   8.109 -0.2324  0.2799 -0.0013
  440loPI   C1B 7037  10.456   1.561  10.167  0.0314 -0.2472  0.2985
  440loPI   C2B 7038  10.430   1.548   9.665  0.0745  0.0050 -0.0826
  440loPI   C3B 7039  10.452   1.517   9.263 -0.0225 -0.1500  0.2932
  440loPI   C4B 7040  10.462   1.503   8.855 -0.1488  0.2488  0.0608
  441loPI    C1 7041   9.768  13.023  10.863 -0.0147 -0.2809 -0.0444
  441loPI    C2 7042   9.788  13.364  11.072 -0.0497 -0.1938 -0.1827
  441loPI    C3 7043   9.438  13.241  10.921 -0.0426 -0.3062 -0.1086
  441loPI   PO4 7044   9.889  12.996  10.640 -0.5043 -0.0446  0.1526
  441loPI   GL1 7045   9.716  13.161  10.154 -0.0638  0.0398 -0.2453
  441loPI   GL2 7046   9.467  12.969  10.039 -0.1206  0.0862  0.1659
  441loPI   C1A 7047   9.887  13.164   9.731 -0.2146 -0.0399 -0.1094
  441loPI   C2A 7048   9.894  13.113   9.261 -0.2882  0.1719  0.0858
  441loPI   C3A 7049   9.911  13.188   8.795  0.1281 -0.0674 -0.1475
  441loPI   C4A 7050   9.934  13.215   8.306  0.2392  0.0280 -0.1081
  441loPI   C5A 7051   9.819  13.112   7.963  0.3434 -0.1522 -0.0831
  441loPI   C6A 7052   9.908  12.995   7.604 -0.0621  0.2729  0.0208
  441loPI   C1B 7053   9.544  12.873   9.628 -0.2759 -0.0415 -0.0456
  441loPI   C2B 7054   9.440  12.846   9.228 -0.1622 -0.3048  0.0829
  441loPI   C3B 7055   9.561  12.834   8.788 -0.2564 -0.0447  0.0675
  441loPI   C4B 7056   9.658  12.842   8.360  0.1119  0.2066 -0.1625
  442loPI    C1 7057   9.500  14.593  10.818  0.2712 -0.0144 -0.0166
  442loPI    C2 7058   9.702  14.292  10.988  0.0807 -0.0695  0.1166
  442loPI    C3 7059   9.598  14.612  11.205 -0.0090 -0.0593  0.0593
  442loPI   PO4 7060   9.609  14.608  10.607 -0.0708 -0.0131  0.0684
  442loPI   GL1 7061   9.723  14.402  10.256 -0.1002 -0.1299  0.0918
  442loPI   GL2 7062   9.463  14.489   9.925 -0.0203  0.2650 -0.0723
  442loPI   C1A 7063   9.788  14.157   9.834 -0.5572 -0.1392 -0.3017
  442loPI   C2A 7064   9.805  14.125   9.341 -0.1917  0.1915  0.0957
  442loPI   C3A 7065   9.958  14.145   8.933  0.0452 -0.1811 -0.0376
  442loPI   C4A 7066   9.965  14.144   8.548 -0.0353  0.0735  0.0501
  442loPI   C5A 7067  10.193  13.799   8.291  0.1320 -0.0652  0.1865
  442loPI   C6A 7068  10.184  13.478   7.909  0.2762  0.1453 -0.1249
  442loPI   C1B 7069   9.398  14.411   9.557  0.2396  0.3599  0.2314
  442loPI   C2B 7070   9.427  14.378   9.048 -0.1821 -0.0105 -0.1433
  442loPI   C3B 7071   9.487  14.332   8.657 -0.0573  0.0697 -0.1940
  442loPI   C4B 7072   9.226  14.362   8.293  0.1141 -0.1500 -0.2263
  443loPI    C1 7073  15.617  16.769  11.372  0.1078 -0.1407  0.0449
  443loPI    C2 7074  15.811  17.069  11.551  0.0759 -0.1396  0.0780
  443loPI    C3 7075  15.630  16.789  11.772  0.0092 -0.1205  0.0476
  443loPI   PO4 7076  15.707  16.878  11.084  0.2286 -0.0505  0.0421
  443loPI   GL1 7077  15.415  16.959  10.707 -0.1835 -0.0177  0.2383
  443loPI   GL2 7078  15.269  17.170  10.779  0.0253 -0.2981  0.0368
  443loPI   C1A 7079  15.470  17.048  10.193 -0.0866 -0.0529 -0.0374
  443loPI   C2A 7080  15.555  17.071   9.792  0.1443  0.0824 -0.2242
  443loPI   C3A 7081  15.531  17.116   9.371  0.1507 -0.0861 -0.0861
  443loPI   C4A 7082  15.546  17.214   9.001  0.2918 -0.1771  0.0037
  443loPI   C5A 7083  15.782  17.134   8.665 -0.3940 -0.1933  0.0420
  443loPI   C6A 7084  16.014  16.762   8.488  0.0852  0.2363 -0.2880
  443loPI   C1B 7085  15.172  17.364  10.511 -0.1792  0.0602 -0.1750
  443loPI   C2B 7086  15.028  17.364  10.099 -0.1432 -0.1258 -0.1245
  443loPI   C3B 7087  14.981  17.303   9.644  0.0420  0.1439  0.1276
  443loPI   C4B 7088  15.023  17.262   9.237  0.4935 -0.2246 -0.0760
  444loPI    C1 7089  14.053   5.933  11.192 -0.0541 -0.0830 -0.0310
  444loPI    C2 7090  14.164   6.203  11.466  0.0828 -0.0766 -0.0920
  444loPI    C3 7091  13.864   5.950  11.544 -0.2081  0.2506 -0.1255
  444loPI   PO4 7092  13.940   6.009  10.925 -0.0952  0.2059  0.0673
  444loPI   GL1 7093  13.789   5.845  10.559  0.4569  0.0870 -0.0900
  444loPI   GL2 7094  13.539   5.739  10.421 -0.1360  0.1385 -0.0049
  444loPI   C1A 7095  13.909   6.039  10.235 -0.0309 -0.0867  0.1912
  444loPI   C2A 7096  13.902   5.882   9.839 -0.0335 -0.0358 -0.1854
  444loPI   C3A 7097  13.928   5.935   9.518  0.0137  0.0642 -0.0678
  444loPI   C4A 7098  13.872   5.982   9.024 -0.3115 -0.0381  0.3532
  444loPI   C5A 7099  13.908   6.043   8.577 -0.1057  0.0337  0.1055
  444loPI   C6A 7100  14.041   6.156   8.237  0.1629 -0.0009 -0.5586
  444loPI   C1B 7101  13.475   5.680   9.970 -0.0590  0.1377  0.0031
  444loPI   C2B 7102  13.458   5.650   9.556 -0.1945  0.3415 -0.1098
  444loPI   C3B 7103  13.515   5.640   9.165 -0.1566  0.1668 -0.0248
  444loPI   C4B 7104  13.506   5.524   8.705 -0.2479 -0.1874 -0.0133
  445loPI    C1 7105   5.119   6.036  11.353  0.0056  0.1223  0.0096
  445loPI    C2 7106   5.406   6.302  11.434 -0.0163  0.0780  0.2390
  445loPI    C3 7107   5.085   6.277  11.670 -0.1477  0.0381  0.0582
  445loPI   PO4 7108   5.105   6.103  11.097 -0.0836 -0.1637  0.1003
  445loPI   GL1 7109   5.275   6.026  10.707  0.2457  0.1857 -0.0304
  445loPI   GL2 7110   5.385   6.212  10.522  0.1664 -0.1579  0.1947
  445loPI   C1A 7111   4.995   5.843  10.426  0.2531  0.1908  0.1602
  445loPI   C2A 7112   5.048   5.872  10.039  0.1183  0.1183 -0.1723
  445loPI   C3A 7113   5.028   5.861   9.640  0.2336  0.2570  0.3019
  445loPI   C4A 7114   5.032   5.823   9.171 -0.4721  0.0363  0.0924
  445loPI   C5A 7115   5.001   5.780   8.751  0.3098  0.2632 -0.0405
  445loPI   C6A 7116   5.278   5.691   8.368  0.2600  0.1853 -0.6382
  445loPI   C1B 7117   5.408   6.173  10.132  0.2685 -0.1614 -0.0925
  445loPI   C2B 7118   5.441   6.186   9.716 -0.5098  0.0278 -0.2432
  445loPI   C3B 7119   5.400   6.121   9.298  0.0227  0.1580  0.0134
  445loPI   C4B 7120   5.464   6.087   8.837 -0.3972 -0.0708 -0.0426
  446loPI    C1 7121   2.349  11.256  11.042 -0.0020 -0.1206 -0.3799
  446loPI    C2 7122   2.176  11.024  11.318  0.4784  0.0426  0.0725
  446loPI    C3 7123   2.107  11.418  11.316  0.2651  0.0068 -0.2160
  446loPI   PO4 7124   2.330  11.146  10.823 -0.1065  0.1757 -0.0969
  446loPI   GL1 7125   2.364  11.303  10.482 -0.1641  0.0384 -0.2464
  446loPI   GL2 7126   2.560  11.089  10.420  0.2219  0.0210 -0.1018
  446loPI   C1A 7127   2.589  11.432  10.077  0.1214  0.1643 -0.2061
  446loPI   C2A 7128   2.780  11.443   9.627 -0.1478 -0.1395 -0.0830
  446loPI   C3A 7129   2.720  11.372   9.155  0.5258  0.0257 -0.4034
  446loPI   C4A 7130   2.797  11.224   8.715 -0.2865 -0.1431  0.1279
  446loPI   C5A 7131   2.765  11.278   8.247 -0.0183 -0.1453 -0.0278
  446loPI   C6A 7132   3.060  11.537   7.975  0.1011  0.0717 -0.2537
  446loPI   C1B 7133   2.243  11.082  10.031  0.2907 -0.2578  0.0212
  446loPI   C2B 7134   2.200  11.117   9.545  0.0393 -0.2722  0.0805
  446loPI   C3B 7135   2.352  11.043   9.259  0.2425 -0.0009 -0.2925
  446loPI   C4B 7136   2.404  11.006   8.876 -0.1107 -0.3226  0.0647
  447loPI    C1 7137  16.633   3.012  11.406  0.0534 -0.0255 -0.1486
  447loPI    C2 7138  16.447   3.309  11.597  0.0781  0.0359 -0.2195
  447loPI    C3 7139  16.749   3.116  11.774  0.0416  0.0325 -0.1613
  447loPI   PO4 7140  16.670   3.087  11.149  0.0187  0.1340  0.0980
  447loPI   GL1 7141  16.781   3.309  10.789 -0.0143  0.0200  0.2474
  447loPI   GL2 7142  17.031   3.204  10.633  0.3511  0.1527 -0.0287
  447loPI   C1A 7143  16.544   3.419  10.402  0.4358 -0.3362  0.2055
  447loPI   C2A 7144  16.476   3.436   9.964 -0.1469 -0.0069  0.3767
  447loPI   C3A 7145  16.435   3.432   9.479  0.3463 -0.3402 -0.4229
  447loPI   C4A 7146  16.422   3.355   9.077 -0.2267 -0.1502 -0.0243
  447loPI   C5A 7147  16.284   3.419   8.658  0.1848  0.0733 -0.1061
  447loPI   C6A 7148  15.967   3.323   8.307  0.2056  0.1413  0.0286
  447loPI   C1B 7149  16.927   3.201  10.190  0.1088  0.0516 -0.0719
  447loPI   C2B 7150  16.861   3.112   9.756  0.0107  0.2188 -0.0156
  447loPI   C3B 7151  16.866   3.211   9.294  0.1564  0.0367 -0.0903
  447loPI   C4B 7152  16.976   3.225   8.862 -0.2171 -0.2544  0.2802
  448loPI    C1 7153  14.387  14.654  11.477 -0.0441 -0.0554  0.1135
  448loPI    C2 7154  14.661  14.913  11.610 -0.1837  0.0902  0.1205
  448loPI    C3 7155  14.648  14.542  11.759  0.0349  0.0688  0.0903
  448loPI   PO4 7156  14.396  14.700  11.218  0.0711 -0.0981  0.2149
  448loPI   GL1 7157  14.526  14.663  10.727 -0.0270 -0.2445  0.0296
  448loPI   GL2 7158  14.470  15.022  10.707  0.0812 -0.3432 -0.0539
  448loPI   C1A 7159  14.780  14.531  10.371  0.1744  0.0513  0.0763
  448loPI   C2A 7160  14.707  14.492   9.914  0.2535 -0.1626  0.0982
  448loPI   C3A 7161  14.777  14.514   9.530 -0.0731 -0.2034 -0.1068
  448loPI   C4A 7162  14.813  14.409   9.146 -0.2490 -0.0150  0.1494
  448loPI   C5A 7163  14.968  14.421   8.787  0.1404 -0.1345  0.2430
  448loPI   C6A 7164  15.309  14.274   8.576 -0.0183  0.2811 -0.1119
  448loPI   C1B 7165  14.498  15.208  10.289  0.0824 -0.0598  0.2843
  448loPI   C2B 7166  14.354  15.197   9.863 -0.3339  0.1665  0.0902
  448loPI   C3B 7167  14.320  15.140   9.413  0.1265  0.1372 -0.0037
  448loPI   C4B 7168  14.325  15.119   8.995  0.2394 -0.1106 -0.1928
  449loPI    C1 7169  17.601   9.465  11.073  0.1589 -0.2213  0.2139
  449loPI    C2 7170  17.556   9.529  11.466 -0.2912 -0.0222  0.1365
  449loPI    C3 7171  17.348   9.238  11.285 -0.1884 -0.0241  0.0194
  449loPI   PO4 7172  17.859   9.446  11.075  0.1038  0.1177  0.0300
  449loPI   GL1 7173  18.074   9.392  10.659  0.0633  0.0582  0.2631
  449loPI   GL2 7174  17.807   9.243  10.596  0.0739  0.3467  0.0569
  449loPI   C1A 7175  18.040   9.546  10.252  0.1281  0.2237  0.1239
  449loPI   C2A 7176  18.052   9.615   9.827  0.1005 -0.0858  0.3986
  449loPI   C3A 7177  18.106   9.574   9.392  0.2031  0.0076 -0.2639
  449loPI   C4A 7178  18.091   9.584   8.890  0.0036 -0.0376 -0.0241
  449loPI   C5A 7179  18.089   9.639   8.544 -0.3797  0.2807 -0.0255
  449loPI   C6A 7180  17.866   9.898   8.237 -0.1530  0.0759 -0.0735
  449loPI   C1B 7181  17.575   9.318  10.180  0.0026  0.0782  0.1203
  449loPI   C2B 7182  17.641   9.265   9.783 -0.0362 -0.0414  0.2053
  449loPI   C3B 7183  17.633   9.260   9.366 -0.0729 -0.0917  0.0858
  449loPI   C4B 7184  17.633   9.320   8.997  0.1602 -0.1446  0.0743
  450loPI    C1 7185  14.181  16.495  11.334  0.0786  0.0245  0.0805
  450loPI    C2 7186  13.924  16.448  11.637 -0.0663  0.3640  0.0153
  450loPI    C3 7187  14.254  16.669  11.687 -0.0824  0.4071 -0.0686
  450loPI   PO4 7188  14.067  16.522  11.107 -0.1745 -0.3412 -0.0648
  450loPI   GL1 7189  14.122  16.588  10.722 -0.0651 -0.1967  0.1503
  450loPI   GL2 7190  13.867  16.516  10.657  0.0521  0.0714  0.1188
  450loPI   C1A 7191  14.280  16.644  10.308 -0.0668  0.1780  0.1296
  450loPI   C2A 7192  14.182  16.637   9.885 -0.0196  0.0600 -0.1366
  450loPI   C3A 7193  14.188  16.648   9.376  0.3054  0.0665  0.3805
  450loPI   C4A 7194  14.115  16.619   8.969 -0.0729 -0.1939 -0.0557
  450loPI   C5A 7195  14.114  16.835   8.501 -0.1334 -0.2310  0.0875
  450loPI   C6A 7196  14.457  16.918   8.241  0.1687  0.0553 -0.4435
  450loPI   C1B 7197  13.834  16.393  10.254  0.5182  0.0262 -0.1672
  450loPI   C2B 7198  13.771  16.388   9.822  0.0980 -0.0624  0.0680
  450loPI   C3B 7199  13.757  16.445   9.295 -0.0157  0.0394 -0.0856
  450loPI   C4B 7200  13.721  16.306   8.868  0.0996  0.1051 -0.0165
  451loPI    C1 7201   5.429  10.086  11.190  0.2322  0.1776 -0.1121
  451loPI    C2 7202   5.600   9.742  11.302  0.0276  0.0176 -0.2819
  451loPI    C3 7203   5.260   9.862  11.475  0.1757  0.2106 -0.1195
  451loPI   PO4 7204   5.487  10.106  10.966  0.1676 -0.0386  0.0779
  451loPI   GL1 7205   5.298   9.960  10.534 -0.1413  0.1083  0.4024
  451loPI   GL2 7206   5.279  10.291  10.412  0.0636 -0.0944 -0.0124
  451loPI   C1A 7207   5.068   9.856  10.114  0.0123 -0.0425  0.0180
  451loPI   C2A 7208   5.143   9.808   9.656  0.2607 -0.0427 -0.2368
  451loPI   C3A 7209   5.162   9.722   9.237 -0.2692  0.3744 -0.0851
  451loPI   C4A 7210   5.137   9.851   8.955 -0.1064  0.2869  0.1921
  451loPI   C5A 7211   5.011   9.759   8.585 -0.1258  0.1147 -0.0299
  451loPI   C6A 7212   4.723   9.948   8.393  0.0659  0.0958 -0.1110
  451loPI   C1B 7213   5.447  10.169   9.981  0.0206  0.0620  0.0015
  451loPI   C2B 7214   5.458  10.156   9.511 -0.2530  0.2368 -0.3258
  451loPI   C3B 7215   5.616  10.089   9.119  0.0523  0.0260 -0.3143
  451loPI   C4B 7216   5.640  10.042   8.694  0.1993 -0.3224  0.0752
  452loPI    C1 7217   1.226   8.427  11.309  0.0111  0.1658 -0.0973
  452loPI    C2 7218   1.301   8.768  11.505 -0.0720  0.0746  0.0960
  452loPI    C3 7219   1.097   8.475  11.685  0.1779 -0.1589  0.0053
  452loPI   PO4 7220   1.151   8.487  11.088  0.0548 -0.0766 -0.0729
  452loPI   GL1 7221   1.115   8.421  10.645 -0.1316  0.0246 -0.1765
  452loPI   GL2 7222   1.241   8.688  10.634 -0.0113  0.2919  0.0421
  452loPI   C1A 7223   0.902   8.379  10.199  0.0236  0.2480 -0.2523
  452loPI   C2A 7224   0.798   8.331   9.880 -0.4173 -0.1679 -0.1575
  452loPI   C3A 7225   0.761   8.358   9.440 -0.1220  0.0768  0.1935
  452loPI   C4A 7226   0.746   8.227   9.014  0.0806 -0.1174  0.0780
  452loPI   C5A 7227   0.870   8.341   8.565  0.0501 -0.1180  0.0721
  452loPI   C6A 7228   1.241   8.430   8.335  0.2789  0.3392 -0.4231
  452loPI   C1B 7229   1.265   8.694  10.217  0.0518  0.1936  0.2058
  452loPI   C2B 7230   1.237   8.611   9.771  0.0663 -0.1118 -0.0231
  452loPI   C3B 7231   1.158   8.665   9.311  0.0321  0.0624  0.1310
  452loPI   C4B 7232   1.088   8.607   8.920  0.1154  0.0982 -0.1243
  453loPI    C1 7233   5.546   7.584  11.058  0.0250 -0.0434  0.0316
  453loPI    C2 7234   5.670   7.305  11.317  0.1238 -0.1470 -0.1255
  453loPI    C3 7235   5.530   7.655  11.452  0.3121 -0.1418  0.0636
  453loPI   PO4 7236   5.393   7.550  10.847 -0.0630  0.3834  0.0977
  453loPI   GL1 7237   5.051   7.240  10.600 -0.0234  0.0584 -0.0554
  453loPI   GL2 7238   5.363   7.230  10.490 -0.0169 -0.0524 -0.1697
  453loPI   C1A 7239   4.871   7.440  10.211  0.1112  0.2205  0.3820
  453loPI   C2A 7240   4.745   7.337   9.859 -0.2331  0.0891 -0.1310
  453loPI   C3A 7241   4.868   7.473   9.520 -0.1907 -0.2067 -0.2244
  453loPI   C4A 7242   4.849   7.416   9.035 -0.0909 -0.0367 -0.0030
  453loPI   C5A 7243   4.754   7.143   8.618 -0.0566  0.1156 -0.1532
  453loPI   C6A 7244   5.033   6.960   8.274  0.0180 -0.1166 -0.0958
  453loPI   C1B 7245   5.301   7.190   9.989  0.1618  0.0416 -0.0238
  453loPI   C2B 7246   5.303   7.190   9.539  0.2346  0.1305 -0.0053
  453loPI   C3B 7247   5.365   7.208   9.115 -0.1954  0.1660 -0.0021
  453loPI   C4B 7248   5.298   7.241   8.703 -0.3463 -0.0089 -0.2329
  454loPI    C1 7249  12.290  10.073  10.914  0.0140  0.0457 -0.0694
  454loPI    C2 7250  12.101  10.145  11.259 -0.3106 -0.3065 -0.1659
  454loPI    C3 7251  12.472   9.995  11.262 -0.2665 -0.1977  0.0273
  454loPI   PO4 7252  12.231  10.260  10.708 -0.0212 -0.2203  0.0892
  454loPI   GL1 7253  11.983  10.290  10.401 -0.2804 -0.1593 -0.0589
  454loPI   GL2 7254  11.840  10.237  10.257  0.1748  0.1725 -0.1059
  454loPI   C1A 7255  12.274  10.504  10.033  0.0592  0.1661 -0.3272
  454loPI   C2A 7256  12.324  10.496   9.554 -0.1160  0.2555  0.0024
  454loPI   C3A 7257  12.384  10.540   9.150 -0.1062  0.0943  0.0811
  454loPI   C4A 7258  12.359  10.562   8.734  0.1133  0.0609  0.0439
  454loPI   C5A 7259  12.524  10.614   8.325  0.0057 -0.0242  0.1415
  454loPI   C6A 7260  12.479  10.327   7.979 -0.2196 -0.0647  0.1978
  454loPI   C1B 7261  11.908  10.198   9.799  0.1893 -0.0762 -0.2924
  454loPI   C2B 7262  12.008  10.214   9.333  0.2658 -0.1671  0.0004
  454loPI   C3B 7263  11.920  10.261   8.902  0.0998  0.1279 -0.2706
  454loPI   C4B 7264  12.087  10.155   8.470  0.0781  0.0981 -0.2094
  455loPI    C1 7265   0.045   8.931  10.998  0.1558 -0.0159 -0.0669
  455loPI    C2 7266   0.332   8.861  11.268  0.1476  0.2222  0.0062
  455loPI    C3 7267  -0.012   9.031  11.382 -0.0766 -0.1769 -0.0578
  455loPI   PO4 7268   0.205   8.841  10.765 -0.0144 -0.1046  0.1441
  455loPI   GL1 7269   0.450   9.023  10.415  0.0313  0.2749  0.0671
  455loPI   GL2 7270   0.749   8.830  10.522  0.0048 -0.0588 -0.0284
  455loPI   C1A 7271   0.303   9.081  10.041 -0.1718 -0.1044 -0.2917
  455loPI   C2A 7272   0.222   9.141   9.597 -0.2513  0.0333  0.0629
  455loPI   C3A 7273   0.212   9.132   9.138  0.3542 -0.3020  0.3179
  455loPI   C4A 7274   0.203   9.074   8.628  0.1682  0.0940  0.2060
  455loPI   C5A 7275   0.462   8.832   8.257 -0.1259  0.0614  0.1294
  455loPI   C6A 7276   0.264   8.425   8.246  0.3295  0.1419  0.2421
  455loPI   C1B 7277   0.761   8.800  10.044 -0.0150  0.0031  0.1151
  455loPI   C2B 7278   0.744   8.836   9.578  0.0770  0.2194 -0.2427
  455loPI   C3B 7279   0.643   8.832   9.188 -0.0839 -0.1118 -0.0714
  455loPI   C4B 7280   0.640   8.877   8.762 -0.3127  0.2606 -0.1360
  456loPI    C1 7281  11.348   4.873  11.295  0.1699  0.0095  0.0959
  456loPI    C2 7282  11.148   4.764  11.624 -0.1135 -0.1101 -0.1124
  456loPI    C3 7283  11.443   4.533  11.484  0.0939  0.0053  0.1266
  456loPI   PO4 7284  11.086   4.883  11.102  0.0549 -0.1469  0.2920
  456loPI   GL1 7285  11.004   4.811  10.693 -0.1760  0.0373  0.3044
  456loPI   GL2 7286  11.282   4.611  10.602 -0.1540 -0.0823  0.0982
  456loPI   C1A 7287  10.830   4.733  10.346 -0.0966  0.0256  0.3236
  456loPI   C2A 7288  10.857   4.748   9.971 -0.1480 -0.1098 -0.2559
  456loPI   C3A 7289  10.937   4.770   9.509  0.0551 -0.1125 -0.0035
  456loPI   C4A 7290  10.909   4.769   9.112 -0.1315  0.0434 -0.2139
  456loPI   C5A 7291  10.926   4.696   8.679  0.1899  0.1687  0.2198
  456loPI   C6A 7292  10.950   4.586   8.259 -0.2661  0.2764 -0.1547
  456loPI   C1B 7293  11.330   4.576  10.202 -0.2229 -0.0215 -0.0830
  456loPI   C2B 7294  11.411   4.630   9.805 -0.1145  0.1023  0.3870
  456loPI   C3B 7295  11.418   4.577   9.409 -0.1426  0.2303 -0.4930
  456loPI   C4B 7296  11.300   4.537   8.923 -0.3859  0.0021 -0.1772
  457loPI    C1 7297  10.541   8.879  10.715  0.3799 -0.2830 -0.0100
  457loPI    C2 7298  10.791   8.802  11.017  0.1642 -0.3159  0.1633
  457loPI    C3 7299  10.405   8.874  11.091  0.1797  0.0372 -0.0741
  457loPI   PO4 7300  10.638   9.124  10.628  0.2409 -0.1308  0.2295
  457loPI   GL1 7301  10.808   9.156  10.248 -0.1268 -0.0990  0.0513
  457loPI   GL2 7302  10.760   8.746  10.250 -0.0317 -0.0859  0.1859
  457loPI   C1A 7303  10.737   9.154   9.759 -0.1024 -0.2188 -0.1213
  457loPI   C2A 7304  10.717   9.262   9.300  0.1308 -0.0249  0.1208
  457loPI   C3A 7305  10.698   9.360   8.868  0.2923 -0.0308  0.2439
  457loPI   C4A 7306  10.616   9.409   8.409  0.0270 -0.1560 -0.1106
  457loPI   C5A 7307  10.367   9.461   8.030  0.0934 -0.2099  0.2398
  457loPI   C6A 7308  10.184   9.711   7.642  0.2505 -0.0799 -0.1697
  457loPI   C1B 7309  10.810   8.630   9.819  0.0255  0.3947 -0.2975
  457loPI   C2B 7310  10.891   8.701   9.361  0.3107 -0.1071  0.2645
  457loPI   C3B 7311  10.745   8.826   8.908 -0.0424  0.0256  0.1424
  457loPI   C4B 7312  10.694   8.925   8.422  0.0228  0.0865  0.3089
  458loPI    C1 7313   8.914  12.999  10.794 -0.0208 -0.0161 -0.2887
  458loPI    C2 7314   8.986  12.619  10.691 -0.0196 -0.1002  0.0113
  458loPI    C3 7315   9.220  12.802  10.959 -0.2211  0.0022  0.1201
  458loPI   PO4 7316   8.912  13.190  10.522 -0.1138 -0.0791 -0.0462
  458loPI   GL1 7317   9.032  13.265  10.077 -0.1426 -0.2706  0.4254
  458loPI   GL2 7318   8.942  13.487  10.081 -0.0810 -0.0779 -0.2798
  458loPI   C1A 7319   9.046  13.063   9.702  0.1087 -0.0811  0.1258
  458loPI   C2A 7320   9.024  13.064   9.337 -0.0274 -0.2656  0.1539
  458loPI   C3A 7321   9.037  13.031   8.917  0.0538  0.2569  0.2549
  458loPI   C4A 7322   9.215  12.902   8.468  0.2079  0.0186 -0.1384
  458loPI   C5A 7323   9.231  12.891   8.084  0.4078 -0.3553  0.2124
  458loPI   C6A 7324   9.528  12.724   7.790  0.0953  0.1347 -0.0202
  458loPI   C1B 7325   9.016  13.598   9.620 -0.0954  0.0924 -0.1272
  458loPI   C2B 7326   9.047  13.554   9.201 -0.3322 -0.3574 -0.1087
  458loPI   C3B 7327   8.880  13.542   8.880  0.1339  0.3380 -0.0660
  458loPI   C4B 7328   8.942  13.301   8.514 -0.1014  0.2138  0.1118
  459loPI    C1 7329  17.083  11.387  11.476  0.0423  0.0862 -0.0006
  459loPI    C2 7330  17.196  11.625  11.777  0.0646 -0.0449  0.0958
  459loPI    C3 7331  17.428  11.319  11.665  0.0716  0.0220 -0.0766
  459loPI   PO4 7332  17.035  11.472  11.203  0.1789  0.1546  0.0741
  459loPI   GL1 7333  17.189  11.496  10.814 -0.2498 -0.0652  0.0955
  459loPI   GL2 7334  17.308  11.788  10.801 -0.2173  0.0285  0.0759
  459loPI   C1A 7335  16.909  11.443  10.490 -0.2136 -0.1642  0.1180
  459loPI   C2A 7336  16.987  11.597  10.052  0.3905 -0.1211 -0.1749
  459loPI   C3A 7337  16.963  11.623   9.589  0.1072 -0.1337 -0.0954
  459loPI   C4A 7338  16.929  11.498   9.216 -0.1032 -0.2422 -0.0622
  459loPI   C5A 7339  16.798  11.549   8.875 -0.1184  0.0078 -0.2062
  459loPI   C6A 7340  16.526  11.782   8.632  0.2205 -0.0969  0.0331
  459loPI   C1B 7341  17.300  11.796  10.383  0.0379 -0.1029 -0.2331
  459loPI   C2B 7342  17.335  11.866   9.876 -0.3002 -0.1297  0.2476
  459loPI   C3B 7343  17.395  11.803   9.517 -0.1097  0.0724  0.2081
  459loPI   C4B 7344  17.309  11.784   9.096 -0.0362 -0.0280 -0.0390
  460loPI    C1 7345  12.083  16.723  10.964 -0.1407  0.1218 -0.1853
  460loPI    C2 7346  11.741  16.859  11.120  0.0205 -0.0536  0.3405
  460loPI    C3 7347  11.798  16.465  11.073 -0.0869 -0.0005 -0.3289
  460loPI   PO4 7348  12.093  16.824  10.758 -0.3068 -0.0578  0.2122
  460loPI   GL1 7349  12.165  16.680  10.373  0.1449  0.1174 -0.1651
  460loPI   GL2 7350  12.058  16.319  10.192  0.2900  0.1532  0.2186
  460loPI   C1A 7351  11.885  16.789   9.937 -0.1410 -0.0780 -0.3122
  460loPI   C2A 7352  11.933  16.776   9.468  0.2890 -0.0941  0.0985
  460loPI   C3A 7353  11.902  16.750   9.010 -0.2971 -0.0637  0.2225
  460loPI   C4A 7354  11.783  16.788   8.599  0.0218 -0.0408  0.0507
  460loPI   C5A 7355  11.853  16.703   8.177 -0.0090  0.2429  0.2200
  460loPI   C6A 7356  11.915  16.646   7.795 -0.1334  0.0380  0.1638
  460loPI   C1B 7357  12.375  16.553   9.904  0.0088 -0.0754  0.3216
  460loPI   C2B 7358  12.482  16.530   9.508  0.2741 -0.1472 -0.1778
  460loPI   C3B 7359  12.394  16.507   8.992 -0.1541 -0.0821 -0.3369
  460loPI   C4B 7360  12.389  16.649   8.614 -0.1758 -0.2203  0.1030
  461loPI    C1 7361  15.343   8.401  11.097 -0.1544  0.1367 -0.0336
  461loPI    C2 7362  15.283   8.657  11.398 -0.1551  0.0029  0.0810
  461loPI    C3 7363  15.650   8.519  11.324 -0.1732 -0.0510  0.0918
  461loPI   PO4 7364  15.158   8.554  10.888  0.2628  0.1857  0.1898
  461loPI   GL1 7365  15.187   8.779  10.509 -0.0682 -0.1836 -0.2893
  461loPI   GL2 7366  15.417   8.694  10.283 -0.0910  0.3216  0.1957
  461loPI   C1A 7367  14.934   8.870  10.074  0.1708  0.0190  0.1005
  461loPI   C2A 7368  14.931   8.956   9.637 -0.1487  0.1005  0.2922
  461loPI   C3A 7369  14.967   8.967   9.264  0.0470 -0.1311  0.1054
  461loPI   C4A 7370  14.878   8.963   8.863  0.3565  0.3394  0.1197
  461loPI   C5A 7371  14.798   9.035   8.444 -0.0093  0.0760  0.0557
  461loPI   C6A 7372  14.703   9.403   8.237  0.2538 -0.1198 -0.0561
  461loPI   C1B 7373  15.368   8.649   9.908 -0.1029  0.2475 -0.0489
  461loPI   C2B 7374  15.452   8.731   9.414  0.2803 -0.0161 -0.1460
  461loPI   C3B 7375  15.316   8.690   8.908  0.2337  0.2229  0.0869
  461loPI   C4B 7376  15.460   8.681   8.609 -0.1104 -0.1021 -0.0466
  462loPI    C1 7377   4.484   1.850  11.113 -0.1153 -0.1840  0.1838
  462loPI    C2 7378   4.824   1.778  11.310  0.1830  0.2654 -0.1475
  462loPI    C3 7379   4.537   1.999  11.481  0.1191  0.0174  0.0715
  462loPI   PO4 7380   4.431   1.732  10.943  0.3873 -0.2011  0.0907
  462loPI   GL1 7381   4.519   1.730  10.555 -0.2017  0.0139 -0.1230
  462loPI   GL2 7382   4.622   2.049  10.495 -0.0125 -0.0096  0.0758
  462loPI   C1A 7383   4.670   1.527  10.143  0.1991 -0.3694  0.1690
  462loPI   C2A 7384   4.594   1.499   9.693  0.1332 -0.4169 -0.1296
  462loPI   C3A 7385   4.554   1.567   9.278 -0.3656 -0.4918 -0.2785
  462loPI   C4A 7386   4.599   1.610   8.899  0.1839 -0.0363 -0.0680
  462loPI   C5A 7387   4.381   1.650   8.567 -0.0650  0.0903 -0.1046
  462loPI   C6A 7388   4.220   1.794   8.185 -0.1768  0.1130  0.1268
  462loPI   C1B 7389   4.582   2.052  10.046  0.0070  0.0640 -0.1056
  462loPI   C2B 7390   4.513   2.102   9.621  0.0155 -0.2599  0.3571
  462loPI   C3B 7391   4.624   2.073   9.138  0.1249  0.0573 -0.4198
  462loPI   C4B 7392   4.525   2.170   8.774  0.0566 -0.0627  0.1640
  463loPI    C1 7393   2.676   1.423  11.238 -0.1248  0.0087  0.0151
  463loPI    C2 7394   2.676   1.117  11.496 -0.0274 -0.0177 -0.0159
  463loPI    C3 7395   2.667   1.493  11.632 -0.0804 -0.0332  0.0237
  463loPI   PO4 7396   2.750   1.201  10.978  0.0398  0.1905  0.3185
  463loPI   GL1 7397   2.685   1.258  10.634 -0.0674  0.0024 -0.3198
  463loPI   GL2 7398   2.474   1.074  10.411  0.1289 -0.1004  0.1629
  463loPI   C1A 7399   2.814   1.421  10.182 -0.2362  0.0911  0.0125
  463loPI   C2A 7400   2.794   1.404   9.758 -0.0145 -0.3033 -0.0432
  463loPI   C3A 7401   2.805   1.396   9.269 -0.0366  0.2280 -0.0713
  463loPI   C4A 7402   2.886   1.456   8.836 -0.0249 -0.1239  0.0732
  463loPI   C5A 7403   2.698   1.634   8.472  0.2860  0.0298  0.1040
  463loPI   C6A 7404   2.791   1.782   8.115  0.1319  0.1830 -0.0765
  463loPI   C1B 7405   2.414   1.144   9.927 -0.0929 -0.0927  0.2806
  463loPI   C2B 7406   2.389   1.157   9.573  0.1997  0.3222  0.0403
  463loPI   C3B 7407   2.368   1.111   9.135  0.0210  0.2244 -0.0369
  463loPI   C4B 7408   2.380   1.254   8.715 -0.2050 -0.0141  0.0856
  464loPI    C1 7409   5.869   0.950  11.038  0.0378  0.2417  0.2094
  464loPI    C2 7410   5.491   0.877  11.145  0.0463 -0.1398 -0.0028
  464loPI    C3 7411   5.785   0.838  11.413 -0.0357 -0.0989  0.0943
  464loPI   PO4 7412   5.927   0.813  10.869  0.1845 -0.0729  0.0240
  464loPI   GL1 7413   6.032   0.847  10.461 -0.0496  0.3089 -0.2162
  464loPI   GL2 7414   6.319   0.643  10.434 -0.1898 -0.0306 -0.3214
  464loPI   C1A 7415   6.092   1.069  10.080  0.1444  0.0758 -0.1480
  464loPI   C2A 7416   6.016   0.931   9.601  0.1157 -0.0393 -0.1887
  464loPI   C3A 7417   5.975   0.996   9.110  0.2281  0.1500  0.3088
  464loPI   C4A 7418   5.999   0.963   8.698  0.2575  0.1824 -0.1613
  464loPI   C5A 7419   5.940   0.809   8.277  0.2068 -0.3085  0.1301
  464loPI   C6A 7420   5.520   0.515   8.156  0.1229  0.0446 -0.0570
  464loPI   C1B 7421   6.129   0.535  10.065  0.2295 -0.0777  0.1517
  464loPI   C2B 7422   6.044   0.415   9.621  0.3287 -0.1334 -0.1410
  464loPI   C3B 7423   6.065   0.451   9.276  0.4427  0.1118 -0.2617
  464loPI   C4B 7424   6.001   0.382   8.810  0.1472 -0.3393 -0.2662
  465loPI    C1 7425   5.085   5.579  11.427  0.1221  0.0355  0.1098
  465loPI    C2 7426   5.221   5.275  11.648  0.0159 -0.0815  0.0155
  465loPI    C3 7427   4.827   5.336  11.613  0.0360  0.0350 -0.0094
  465loPI   PO4 7428   5.200   5.557  11.185  0.1664  0.0027  0.3126
  465loPI   GL1 7429   4.985   5.484  10.723 -0.1256 -0.3026 -0.1426
  465loPI   GL2 7430   4.711   5.396  10.609 -0.2742 -0.2678  0.0788
  465loPI   C1A 7431   5.090   5.335  10.243 -0.1601  0.1327 -0.0913
  465loPI   C2A 7432   5.050   5.332   9.841  0.1182  0.0486  0.1560
  465loPI   C3A 7433   5.055   5.353   9.490 -0.3301  0.0323  0.2166
  465loPI   C4A 7434   5.038   5.311   9.038  0.0727  0.2441 -0.3338
  465loPI   C5A 7435   5.235   5.266   8.666 -0.0118  0.1254  0.1275
  465loPI   C6A 7436   5.650   5.306   8.374 -0.0677  0.0145  0.1028
  465loPI   C1B 7437   4.650   5.553  10.162 -0.3781  0.1152 -0.0002
  465loPI   C2B 7438   4.568   5.493   9.814  0.1716 -0.3367 -0.1300
  465loPI   C3B 7439   4.623   5.584   9.469  0.0077  0.2737 -0.1232
  465loPI   C4B 7440   4.589   5.542   8.991  0.1238  0.3618  0.2885
  466loPI    C1 7441  13.819  11.115  11.153  0.1951  0.0873 -0.0038
  466loPI    C2 7442  13.939  11.336  11.464  0.1264  0.1353 -0.0112
  466loPI    C3 7443  13.564  11.370  11.328  0.0200 -0.2109  0.1845
  466loPI   PO4 7444  14.028  11.155  10.987 -0.0239  0.1100 -0.2114
  466loPI   GL1 7445  14.109  11.514  10.622 -0.1368 -0.0337  0.1186
  466loPI   GL2 7446  14.357  11.272  10.482  0.0556 -0.0069 -0.0796
  466loPI   C1A 7447  13.884  11.349  10.275  0.0144  0.1884 -0.1634
  466loPI   C2A 7448  13.829  11.017   9.968  0.1228  0.0280  0.1286
  466loPI   C3A 7449  13.720  11.032   9.522  0.1227 -0.2252  0.2153
  466loPI   C4A 7450  13.713  10.891   9.122  0.0262  0.1122 -0.0453
  466loPI   C5A 7451  13.695  10.931   8.706 -0.1191 -0.0329  0.1498
  466loPI   C6A 7452  13.583  10.840   8.304  0.0995  0.3404  0.0357
  466loPI   C1B 7453  14.263  11.255  10.000  0.0086 -0.0012  0.1024
  466loPI   C2B 7454  14.172  11.253   9.587 -0.1179 -0.0256 -0.0756
  466loPI   C3B 7455  14.185  11.214   9.161  0.2616 -0.2509  0.0221
  466loPI   C4B 7456  14.176  11.230   8.748 -0.1299  0.0175  0.0571
  467loPI    C1 7457   6.934  12.994  10.942  0.0130 -0.1529 -0.1180
  467loPI    C2 7458   6.843  12.782  11.269  0.2333 -0.1317 -0.0415
  467loPI    C3 7459   7.125  12.651  11.018  0.2873  0.0113 -0.0560
  467loPI   PO4 7460   6.736  13.032  10.753 -0.1190 -0.1397 -0.0569
  467loPI   GL1 7461   6.628  13.137  10.349 -0.2162  0.1876  0.3790
  467loPI   GL2 7462   6.995  13.306  10.281 -0.1348 -0.1040 -0.2916
  467loPI   C1A 7463   6.761  13.164   9.847 -0.0077  0.0774  0.1251
  467loPI   C2A 7464   6.769  13.055   9.394  0.3034 -0.0906  0.1293
  467loPI   C3A 7465   6.754  13.115   9.032  0.0403 -0.1884 -0.1725
  467loPI   C4A 7466   6.759  13.060   8.522  0.0574 -0.0175  0.2164
  467loPI   C5A 7467   6.582  12.971   8.090  0.0179 -0.0165 -0.1685
  467loPI   C6A 7468   6.446  12.536   7.944  0.1058 -0.0686  0.1525
  467loPI   C1B 7469   7.201  13.375   9.918  0.0681 -0.0201 -0.2480
  467loPI   C2B 7470   7.203  13.334   9.495 -0.0715  0.1545 -0.0915
  467loPI   C3B 7471   7.139  13.386   9.120  0.0985  0.0866 -0.0510
  467loPI   C4B 7472   7.123  13.431   8.610 -0.0802 -0.1949  0.0887
  468loPI    C1 7473   6.684   2.350  11.143 -0.1637 -0.0861 -0.1787
  468loPI    C2 7474   6.786   2.629  11.411  0.2401  0.0668 -0.4812
  468loPI    C3 7475   6.899   2.249  11.465 -0.2985 -0.0494 -0.0758
  468loPI   PO4 7476   6.813   2.353  10.953 -0.0300 -0.1292 -0.1253
  468loPI   GL1 7477   6.918   2.215  10.583 -0.0552  0.0548  0.0940
  468loPI   GL2 7478   7.190   2.154  10.562 -0.0593 -0.0058 -0.3201
  468loPI   C1A 7479   6.868   2.083  10.150  0.0024 -0.1700  0.2446
  468loPI   C2A 7480   6.755   2.113   9.628  0.0692  0.0227  0.1423
  468loPI   C3A 7481   6.748   2.047   9.155 -0.1216 -0.0006  0.1601
  468loPI   C4A 7482   6.771   2.178   8.655  0.0106  0.4217  0.0792
  468loPI   C5A 7483   6.586   2.433   8.282 -0.0065 -0.3202  0.1841
  468loPI   C6A 7484   6.786   2.841   8.052  0.1927  0.1969  0.0708
  468loPI   C1B 7485   7.205   2.445  10.167  0.0582 -0.2074  0.2806
  468loPI   C2B 7486   7.218   2.382   9.690 -0.0394 -0.4384 -0.0911
  468loPI   C3B 7487   7.130   2.361   9.322 -0.1044  0.0100  0.0229
  468loPI   C4B 7488   7.123   2.433   9.014 -0.0905  0.2782  0.0220
  469loPI    C1 7489   9.078  13.533  10.862  0.0638 -0.0123  0.0743
  469loPI    C2 7490   8.776  13.791  10.909  0.0063 -0.0467 -0.0970
  469loPI    C3 7491   8.712  13.398  10.950  0.0621 -0.0443  0.0186
  469loPI   PO4 7492   9.233  13.607  10.564 -0.1578  0.1230  0.0099
  469loPI   GL1 7493   9.440  13.644  10.117  0.3603  0.0713  0.1192
  469loPI   GL2 7494   9.354  13.966  10.065  0.0723  0.1530 -0.4783
  469loPI   C1A 7495   9.464  13.495   9.813  0.0375 -0.2058  0.1063
  469loPI   C2A 7496   9.469  13.378   9.440  0.3948 -0.2874  0.2491
  469loPI   C3A 7497   9.455  13.303   9.057 -0.1049  0.1227  0.0945
  469loPI   C4A 7498   9.421  13.367   8.642  0.4256 -0.0825 -0.3284
  469loPI   C5A 7499   9.396  13.378   8.202  0.0707 -0.0705  0.0447
  469loPI   C6A 7500   8.991  13.263   7.938  0.1451 -0.0502  0.0045
  469loPI   C1B 7501   9.411  13.958   9.653  0.1088  0.0866 -0.0314
  469loPI   C2B 7502   9.390  13.922   9.253  0.1633  0.0728 -0.0412
  469loPI   C3B 7503   9.372  13.841   8.856 -0.2697 -0.0778  0.0615
  469loPI   C4B 7504   9.160  13.801   8.464 -0.0558 -0.1536 -0.0472
  470loPI    C1 7505   1.765  12.599  11.220  0.0415 -0.0915  0.1834
  470loPI    C2 7506   2.033  12.896  11.216 -0.0157 -0.0390  0.2117
  470loPI    C3 7507   1.820  12.823  11.547 -0.0750 -0.0455  0.1722
  470loPI   PO4 7508   1.632  12.616  10.998  0.2154  0.2305  0.3101
  470loPI   GL1 7509   1.514  12.568  10.565 -0.0256 -0.0547  0.2841
  470loPI   GL2 7510   1.345  12.633  10.313  0.1811 -0.0439  0.1027
  470loPI   C1A 7511   1.728  12.456  10.148  0.3945 -0.0477  0.1985
  470loPI   C2A 7512   1.700  12.286   9.716 -0.1586  0.1450  0.0656
  470loPI   C3A 7513   1.670  12.142   9.286  0.0199 -0.2807  0.2395
  470loPI   C4A 7514   1.644  12.140   8.842 -0.1550  0.1317 -0.1368
  470loPI   C5A 7515   1.778  12.122   8.452 -0.1201 -0.2133  0.0725
  470loPI   C6A 7516   2.025  11.993   8.123 -0.2623 -0.2243 -0.1265
  470loPI   C1B 7517   1.211  12.637   9.899  0.1364  0.2905  0.3130
  470loPI   C2B 7518   1.281  12.459   9.487 -0.0550 -0.1579 -0.0930
  470loPI   C3B 7519   1.313  12.475   9.093  0.0480 -0.1245  0.0299
  470loPI   C4B 7520   1.280  12.411   8.676  0.1617  0.2723  0.0755
  471loPI    C1 7521   2.057   5.472  11.521  0.0492 -0.0117  0.0300
  471loPI    C2 7522   1.672   5.496  11.629  0.0416 -0.0255  0.0062
  471loPI    C3 7523   1.920   5.249  11.823  0.0582  0.0468  0.0775
  471loPI   PO4 7524   2.025   5.382  11.266 -0.3255  0.3551 -0.1979
  471loPI   GL1 7525   1.905   5.413  10.785  0.4345  0.0469  0.1000
  471loPI   GL2 7526   2.112   5.221  10.740 -0.1469 -0.1029 -0.0129
  471loPI   C1A 7527   1.981   5.709  10.524 -0.2032  0.6704  0.0660
  471loPI   C2A 7528   1.920   5.743  10.089 -0.2116 -0.0735  0.1227
  471loPI   C3A 7529   1.904   5.880   9.642  0.3147 -0.0182 -0.0634
  471loPI   C4A 7530   1.913   5.735   9.229 -0.2194  0.2475 -0.0188
  471loPI   C5A 7531   1.788   5.833   8.909 -0.3122  0.0484 -0.3607
  471loPI   C6A 7532   1.940   5.500   8.569  0.0479  0.1003  0.0692
  471loPI   C1B 7533   2.038   5.277  10.284  0.0727  0.2330 -0.1553
  471loPI   C2B 7534   1.960   5.329   9.900  0.1192 -0.1038  0.1919
  471loPI   C3B 7535   1.825   5.315   9.505 -0.0362 -0.2572 -0.0175
  471loPI   C4B 7536   1.859   5.291   9.089  0.1905 -0.0930 -0.1967
  472loPI    C1 7537  16.913  17.536  11.113  0.3831 -0.2050  0.1130
  472loPI    C2 7538  16.777  17.608  11.482  0.0649 -0.1645 -0.0093
  472loPI    C3 7539  16.992  17.885  11.290  0.0085 -0.0815  0.0466
  472loPI   PO4 7540  16.768  17.313  11.019 -0.1544  0.1329 -0.0474
  472loPI   GL1 7541  16.830  16.970  10.752 -0.1484  0.0379  0.1393
  472loPI   GL2 7542  16.486  17.101  10.651  0.0458 -0.0235 -0.1626
  472loPI   C1A 7543  17.001  16.962  10.319 -0.1451 -0.0312  0.2446
  472loPI   C2A 7544  16.989  16.961   9.875  0.0656  0.2107  0.0371
  472loPI   C3A 7545  16.917  16.961   9.464  0.0192 -0.3604 -0.0806
  472loPI   C4A 7546  16.869  16.996   8.991  0.2281 -0.2869 -0.1721
  472loPI   C5A 7547  16.934  17.127   8.700  0.3123  0.1928 -0.3196
  472loPI   C6A 7548  16.942  17.190   8.254  0.3715 -0.1303  0.2548
  472loPI   C1B 7549  16.572  17.169  10.241  0.1971 -0.1393 -0.2538
  472loPI   C2B 7550  16.560  17.176   9.815 -0.1213 -0.0617  0.1898
  472loPI   C3B 7551  16.457  17.155   9.405 -0.1575  0.2863 -0.0269
  472loPI   C4B 7552  16.348  17.233   8.959 -0.2502 -0.2158 -0.1355
  473loPI    C1 7553   2.764   8.477  10.980 -0.1765 -0.3278 -0.1500
  473loPI    C2 7554   3.010   8.183  10.867  0.2992  0.0298 -0.0814
  473loPI    C3 7555   3.014   8.312  11.245  0.2232  0.2434 -0.1522
  473loPI   PO4 7556   2.629   8.529  10.758 -0.1857 -0.2086  0.1763
  473loPI   GL1 7557   2.617   8.511  10.363 -0.0412  0.2475 -0.0540
  473loPI   GL2 7558   2.967   8.378  10.339  0.1084  0.0519  0.1111
  473loPI   C1A 7559   2.446   8.569  10.060 -0.0187 -0.2171  0.0327
  473loPI   C2A 7560   2.505   8.541   9.556 -0.0585 -0.1245  0.2755
  473loPI   C3A 7561   2.544   8.393   9.168 -0.1182 -0.1556 -0.2315
  473loPI   C4A 7562   2.547   8.431   8.714  0.0096 -0.2392 -0.0765
  473loPI   C5A 7563   2.849   8.457   8.318 -0.1965  0.2197 -0.2022
  473loPI   C6A 7564   2.998   8.484   7.926  0.0265  0.2633 -0.3512
  473loPI   C1B 7565   2.989   8.265   9.912  0.0734 -0.0035  0.1268
  473loPI   C2B 7566   3.055   8.231   9.502 -0.0981 -0.2692  0.0835
  473loPI   C3B 7567   3.040   8.284   9.027 -0.0366  0.4305  0.3372
  473loPI   C4B 7568   2.996   8.037   8.630  0.2347 -0.4677  0.2587
  474loPI    C1 7569  15.677  15.570  11.347  0.0506  0.1004 -0.1090
  474loPI    C2 7570  15.859  15.409  11.665  0.1382  0.2600 -0.0768
  474loPI    C3 7571  15.643  15.743  11.707 -0.0024  0.1796 -0.1519
  474loPI   PO4 7572  15.887  15.573  11.209  0.0687  0.1860  0.1766
  474loPI   GL1 7573  16.173  15.758  11.052  0.0217 -0.2338  0.0507
  474loPI   GL2 7574  16.466  15.617  10.917  0.2516  0.2655  0.1522
  474loPI   C1A 7575  16.106  15.982  10.691 -0.0355  0.0199  0.1012
  474loPI   C2A 7576  16.168  15.912  10.227  0.1891 -0.1966  0.2907
  474loPI   C3A 7577  16.056  15.868   9.831  0.2040 -0.1401  0.0367
  474loPI   C4A 7578  16.115  15.850   9.444  0.1170  0.2719 -0.2362
  474loPI   C5A 7579  16.095  15.857   9.055 -0.3693 -0.3957 -0.2381
  474loPI   C6A 7580  16.352  15.893   8.727 -0.1927  0.2597 -0.1191
  474loPI   C1B 7581  16.575  15.730  10.526  0.5601  0.0812  0.1077
  474loPI   C2B 7582  16.549  15.663  10.041  0.1675  0.1643 -0.1668
  474loPI   C3B 7583  16.500  15.618   9.658  0.3701 -0.0820  0.0114
  474loPI   C4B 7584  16.520  15.677   9.178 -0.0138  0.1739 -0.1694
  475loPI    C1 7585   0.983   1.324  11.518 -0.0571  0.0661  0.2704
  475loPI    C2 7586   0.590   1.266  11.565 -0.0453 -0.3156 -0.0428
  475loPI    C3 7587   0.728   1.623  11.449 -0.2839 -0.1392  0.2043
  475loPI   PO4 7588   1.061   1.130  11.381  0.0584  0.2666  0.2772
  475loPI   GL1 7589   1.230   0.955  10.967  0.1932 -0.1290  0.0333
  475loPI   GL2 7590   1.294   1.163  10.811  0.1512 -0.1437  0.1295
  475loPI   C1A 7591   1.113   0.753  10.548  0.0880  0.0277  0.1578
  475loPI   C2A 7592   1.037   0.661  10.152 -0.2066  0.0879  0.0166
  475loPI   C3A 7593   1.112   0.738   9.722  0.0571  0.4495 -0.2382
  475loPI   C4A 7594   1.042   0.654   9.291 -0.0316  0.2711 -0.0451
  475loPI   C5A 7595   1.153   0.618   8.851  0.4811 -0.0110 -0.0760
  475loPI   C6A 7596   1.134   0.944   8.568  0.1845 -0.2715  0.0832
  475loPI   C1B 7597   1.025   1.262  10.483 -0.1201 -0.2114  0.1910
  475loPI   C2B 7598   1.045   1.162   9.982 -0.2045 -0.1892  0.3710
  475loPI   C3B 7599   1.012   1.249   9.566 -0.2704  0.0673  0.0636
  475loPI   C4B 7600   1.065   1.272   9.169  0.0748 -0.2680 -0.2218
  476loPI    C1 7601  13.883  14.588  11.261  0.2398  0.0573  0.1230
  476loPI    C2 7602  13.649  14.312  11.431  0.1687 -0.0428 -0.1328
  476loPI    C3 7603  13.908  14.519  11.655 -0.1131  0.0209  0.1422
  476loPI   PO4 7604  13.694  14.593  11.001  0.0081 -0.1369  0.0584
  476loPI   GL1 7605  13.707  14.401  10.633  0.0753 -0.1120  0.0797
  476loPI   GL2 7606  13.445  14.210  10.547  0.0913  0.0090  0.2502
  476loPI   C1A 7607  13.825  14.296  10.198 -0.1920  0.1164  0.0626
  476loPI   C2A 7608  13.873  14.354   9.717 -0.2536  0.1450 -0.0200
  476loPI   C3A 7609  13.928  14.298   9.285 -0.1380 -0.1160 -0.0408
  476loPI   C4A 7610  14.030  14.354   8.896 -0.0065 -0.0234  0.1359
  476loPI   C5A 7611  13.870  14.362   8.451 -0.1811 -0.0511  0.1219
  476loPI   C6A 7612  14.040  14.587   8.096 -0.0719 -0.2961 -0.2180
  476loPI   C1B 7613  13.406  14.058  10.217  0.1462  0.1661  0.1701
  476loPI   C2B 7614  13.451  14.079   9.705 -0.1031 -0.0188  0.0261
  476loPI   C3B 7615  13.473  14.062   9.211  0.0918 -0.1197  0.0281
  476loPI   C4B 7616  13.533  14.057   8.782 -0.2888 -0.2554 -0.1296
  477loPI    C1 7617   2.302  16.473  11.135 -0.0887 -0.1028  0.0894
  477loPI    C2 7618   2.497  16.817  11.198 -0.0731 -0.0953  0.0006
  477loPI    C3 7619   2.493  16.535  11.482 -0.1079 -0.0115  0.0838
  477loPI   PO4 7620   2.124  16.552  10.949 -0.2854 -0.5795 -0.1528
  477loPI   GL1 7621   2.073  16.723  10.555  0.0973 -0.1580 -0.1326
  477loPI   GL2 7622   2.269  16.558  10.464  0.2338  0.0687  0.2287
  477loPI   C1A 7623   1.770  16.797  10.206  0.1571  0.2600  0.1867
  477loPI   C2A 7624   1.744  16.782   9.776  0.0447 -0.0756  0.2539
  477loPI   C3A 7625   1.723  16.827   9.312 -0.0518 -0.2608  0.0509
  477loPI   C4A 7626   1.718  16.866   8.834  0.0899  0.3613 -0.2745
  477loPI   C5A 7627   1.647  16.916   8.455  0.2001  0.2062  0.2713
  477loPI   C6A 7628   1.324  16.994   8.147 -0.0156  0.1569 -0.5103
  477loPI   C1B 7629   2.218  16.567  10.019 -0.0649 -0.0940  0.0718
  477loPI   C2B 7630   2.193  16.611   9.532 -0.3491  0.3084 -0.0852
  477loPI   C3B 7631   2.253  16.538   9.132  0.2672 -0.2390  0.1350
  477loPI   C4B 7632   2.177  16.667   8.770 -0.1594  0.2926 -0.0594
  478loPI    C1 7633   0.102   0.755  11.393 -0.1373 -0.1510 -0.1274
  478loPI    C2 7634   0.201   1.021  11.675  0.0187 -0.2186 -0.1174
  478loPI    C3 7635  -0.168   0.866  11.666 -0.1016  0.0656 -0.1779
  478loPI   PO4 7636   0.206   0.905  11.166 -0.2915 -0.0403  0.0129
  478loPI   GL1 7637   0.198   0.777  10.735 -0.1734 -0.0318  0.0929
  478loPI   GL2 7638   0.449   0.964  10.655 -0.1580 -0.1156 -0.2711
  478loPI   C1A 7639   0.152   0.664  10.351  0.2307  0.0240  0.2697
  478loPI   C2A 7640   0.163   0.595   9.906  0.0874  0.0505 -0.1663
  478loPI   C3A 7641   0.243   0.570   9.484  0.0889 -0.1827  0.5426
  478loPI   C4A 7642   0.312   0.642   9.064  0.2539  0.0703  0.2633
  478loPI   C5A 7643   0.254   0.822   8.687  0.1025  0.1090 -0.0780
  478loPI   C6A 7644   0.346   0.746   8.273 -0.4480 -0.0667  0.1109
  478loPI   C1B 7645   0.613   0.925  10.264 -0.0759  0.0796  0.2516
  478loPI   C2B 7646   0.571   0.896   9.841 -0.1354 -0.0769 -0.2326
  478loPI   C3B 7647   0.652   0.939   9.463  0.1132  0.0728  0.0150
  478loPI   C4B 7648   0.762   0.886   9.016 -0.1704  0.1862 -0.0727
  479loPI    C1 7649   6.499   7.222  11.263  0.0160  0.0128 -0.1337
  479loPI    C2 7650   6.512   6.958  11.563  0.1067 -0.0046 -0.1526
  479loPI    C3 7651   6.175   7.159  11.487  0.1343  0.1316  0.0744
  479loPI   PO4 7652   6.480   7.058  11.027 -0.1698 -0.0601  0.2540
  479loPI   GL1 7653   6.570   7.202  10.591  0.0767 -0.0061  0.0895
  479loPI   GL2 7654   6.365   7.423  10.453 -0.1254  0.2723  0.0844
  479loPI   C1A 7655   6.696   7.101  10.051  0.0357 -0.1951 -0.0747
  479loPI   C2A 7656   6.690   7.090   9.593 -0.2434  0.2457  0.1911
  479loPI   C3A 7657   6.632   7.051   9.098 -0.0150 -0.1877 -0.0672
  479loPI   C4A 7658   6.722   6.968   8.672  0.0318 -0.0146 -0.1826
  479loPI   C5A 7659   6.788   7.224   8.334  0.1205  0.2019 -0.0616
  479loPI   C6A 7660   6.906   7.651   8.402  0.2513 -0.1041  0.0206
  479loPI   C1B 7661   6.173   7.337  10.073 -0.1302 -0.0774 -0.1453
  479loPI   C2B 7662   6.227   7.288   9.771 -0.0276  0.0783 -0.1631
  479loPI   C3B 7663   6.196   7.329   9.326  0.1726  0.1922  0.3161
  479loPI   C4B 7664   6.232   7.275   8.824  0.0930  0.0474  0.0055
  480loPI    C1 7665   5.387  10.686  10.827 -0.0258 -0.0321  0.2018
  480loPI    C2 7666   5.103  10.416  10.909  0.1379 -0.1788  0.2943
  480loPI    C3 7667   5.247  10.651  11.200 -0.0785  0.0845  0.1934
  480loPI   PO4 7668   5.541  10.552  10.703  0.1788  0.2298 -0.1501
  480loPI   GL1 7669   5.782  10.576  10.326 -0.0738  0.2118 -0.0446
  480loPI   GL2 7670   6.037  10.707  10.277 -0.1312 -0.0117  0.0418
  480loPI   C1A 7671   5.906  10.418   9.853 -0.1747 -0.2161  0.3154
  480loPI   C2A 7672   5.933  10.494   9.439 -0.1624 -0.1497 -0.0419
  480loPI   C3A 7673   5.949  10.377   8.985 -0.1070 -0.1590  0.0172
  480loPI   C4A 7674   6.002  10.352   8.570  0.1913 -0.2747  0.0707
  480loPI   C5A 7675   5.786  10.562   8.309 -0.0109  0.3855 -0.0976
  480loPI   C6A 7676   5.526  10.619   7.984 -0.0864 -0.0693  0.2131
  480loPI   C1B 7677   5.763  10.887   9.943  0.0042  0.2246 -0.0523
  480loPI   C2B 7678   5.847  11.020   9.527  0.0225  0.1508 -0.1419
  480loPI   C3B 7679   5.851  10.850   9.108 -0.0222 -0.1955  0.1338
  480loPI   C4B 7680   5.936  10.901   8.726 -0.0829 -0.3222  0.1824
  481loPI    C1 7681   4.562  16.745  10.754 -0.0840  0.0362  0.1308
  481loPI    C2 7682   4.624  16.751  11.149 -0.0592 -0.2734  0.1342
  481loPI    C3 7683   4.292  16.584  11.002 -0.1433 -0.0195  0.0310
  481loPI   PO4 7684   4.810  16.602  10.638  0.0094  0.2681  0.0973
  481loPI   GL1 7685   4.570  16.322  10.416  0.0481 -0.1381  0.1639
  481loPI   GL2 7686   4.685  15.981  10.503  0.1931 -0.0203  0.3296
  481loPI   C1A 7687   4.587  16.511   9.981  0.1075 -0.3352 -0.1649
  481loPI   C2A 7688   4.558  16.565   9.542 -0.0700 -0.0777  0.0410
  481loPI   C3A 7689   4.598  16.513   9.156 -0.4249 -0.2877  0.0056
  481loPI   C4A 7690   4.410  16.542   8.766 -0.0017  0.1128 -0.0921
  481loPI   C5A 7691   4.438  16.509   8.258  0.0345 -0.2536  0.3441
  481loPI   C6A 7692   4.718  16.477   7.919 -0.0610 -0.0000  0.0666
  481loPI   C1B 7693   4.597  15.966  10.009 -0.0706 -0.1339 -0.5600
  481loPI   C2B 7694   4.541  16.108   9.533  0.1865  0.3024  0.3134
  481loPI   C3B 7695   4.609  16.043   9.205  0.2299  0.2049  0.0103
  481loPI   C4B 7696   4.565  15.968   8.734  0.0524 -0.2355 -0.0276
  482loPI    C1 7697  17.146   8.729  10.866  0.0518 -0.0430 -0.0692
  482loPI    C2 7698  17.405   9.034  10.860 -0.0387  0.0441  0.2619
  482loPI    C3 7699  17.445   8.742  11.132  0.0244 -0.2229 -0.0278
  482loPI   PO4 7700  17.142   8.656  10.641 -0.1308  0.1854  0.1358
  482loPI   GL1 7701  17.334   8.647  10.249  0.0393  0.3442  0.0623
  482loPI   GL2 7702  17.305   8.916  10.270  0.0347  0.0499  0.1611
  482loPI   C1A 7703  17.638   8.670   9.822  0.5820 -0.0292  0.0300
  482loPI   C2A 7704  17.583   8.768   9.422 -0.3401 -0.2450  0.0535
  482loPI   C3A 7705  17.636   8.722   8.958 -0.0650  0.1226  0.0957
  482loPI   C4A 7706  17.755   8.652   8.498 -0.0367 -0.0201 -0.1151
  482loPI   C5A 7707  17.434   8.635   8.152  0.0420  0.0103  0.5329
  482loPI   C6A 7708  17.341   8.721   7.752 -0.0014 -0.1610  0.1033
  482loPI   C1B 7709  17.171   9.011   9.799 -0.2048 -0.2949  0.0644
  482loPI   C2B 7710  17.130   9.050   9.428 -0.4062 -0.0835  0.1689
  482loPI   C3B 7711  17.119   8.976   8.958 -0.1197  0.0421 -0.1106
  482loPI   C4B 7712  17.287   8.943   8.518 -0.0708 -0.1449 -0.2068
  483loPI    C1 7713   7.841  15.846  10.608  0.2268  0.0777 -0.1857
  483loPI    C2 7714   7.920  15.462  10.684  0.0212  0.0629 -0.0367
  483loPI    C3 7715   8.044  15.745  10.937  0.1905  0.0982 -0.1569
  483loPI   PO4 7716   7.827  15.888  10.353  0.2853 -0.0941 -0.1154
  483loPI   GL1 7717   7.798  16.088   9.930 -0.4587  0.1076 -0.2684
  483loPI   GL2 7718   7.816  15.703   9.884 -0.1841  0.0778 -0.0840
  483loPI   C1A 7719   7.793  16.142   9.492 -0.0692 -0.0575 -0.0398
  483loPI   C2A 7720   7.825  16.000   9.057  0.1780 -0.0112 -0.3134
  483loPI   C3A 7721   7.730  16.048   8.618  0.2340  0.1093  0.1050
  483loPI   C4A 7722   7.637  16.095   8.291 -0.0242  0.3011 -0.1799
  483loPI   C5A 7723   7.706  16.388   7.986 -0.0002 -0.2070 -0.1305
  483loPI   C6A 7724   7.866  16.764   7.975 -0.1403  0.1966  0.1862
  483loPI   C1B 7725   7.903  15.608   9.499  0.0964 -0.1559  0.2829
  483loPI   C2B 7726   7.939  15.552   9.016  0.1958  0.1175 -0.0495
  483loPI   C3B 7727   7.722  15.504   8.556 -0.0520  0.1421  0.0059
  483loPI   C4B 7728   7.852  15.550   8.103  0.2245 -0.0762 -0.0008
  484loPI    C1 7729   7.409   6.882  10.944  0.0096 -0.1886  0.0345
  484loPI    C2 7730   7.671   6.642  11.127  0.1918  0.0447  0.0838
  484loPI    C3 7731   7.318   6.721  11.299  0.2242 -0.0068  0.1750
  484loPI   PO4 7732   7.400   6.788  10.648 -0.3689 -0.1130  0.0707
  484loPI   GL1 7733   7.552   6.665  10.275  0.0539  0.0043  0.1219
  484loPI   GL2 7734   7.637   6.965  10.204 -0.3673 -0.1401 -0.1734
  484loPI   C1A 7735   7.642   6.252  10.065 -0.0156 -0.2293 -0.0493
  484loPI   C2A 7736   7.573   6.161   9.675 -0.1441 -0.0512  0.2601
  484loPI   C3A 7737   7.695   6.080   9.314 -0.1574  0.2368  0.0055
  484loPI   C4A 7738   7.538   5.996   8.907  0.1675  0.2619 -0.1723
  484loPI   C5A 7739   7.632   5.955   8.481  0.0235 -0.2391  0.0772
  484loPI   C6A 7740   7.936   5.827   8.132 -0.2835  0.3449  0.0366
  484loPI   C1B 7741   7.643   6.729   9.795 -0.0095 -0.1324 -0.1204
  484loPI   C2B 7742   7.599   6.669   9.393  0.1499  0.0805  0.0677
  484loPI   C3B 7743   7.574   6.605   8.989  0.0822  0.2838 -0.1023
  484loPI   C4B 7744   7.456   6.446   8.495 -0.2373  0.0058  0.3165
  485loPI    C1 7745   0.405   3.152  11.513  0.0009  0.1299 -0.2294
  485loPI    C2 7746   0.394   3.432  11.799  0.2064 -0.1337  0.0430
  485loPI    C3 7747   0.255   3.065  11.874 -0.2140 -0.0664 -0.3632
  485loPI   PO4 7748   0.288   3.162  11.312  0.1813  0.0695  0.0611
  485loPI   GL1 7749   0.300   3.186  10.878  0.0364 -0.0952 -0.1994
  485loPI   GL2 7750   0.419   3.041  10.694 -0.0125  0.2729 -0.1328
  485loPI   C1A 7751   0.083   3.291  10.511  0.0665 -0.0096  0.2804
  485loPI   C2A 7752  -0.055   3.337  10.070 -0.0979 -0.1429  0.3460
  485loPI   C3A 7753  -0.102   3.318   9.715  0.1353  0.0525  0.0044
  485loPI   C4A 7754  -0.060   3.212   9.294 -0.1890  0.0870  0.1089
  485loPI   C5A 7755  -0.109   3.258   8.822  0.1908  0.1707  0.3714
  485loPI   C6A 7756  -0.136   3.109   8.368 -0.0902 -0.0668 -0.0510
  485loPI   C1B 7757   0.419   3.065  10.206  0.0772 -0.1741 -0.0612
  485loPI   C2B 7758   0.436   2.931   9.805 -0.0067  0.1037  0.1328
  485loPI   C3B 7759   0.383   3.017   9.363  0.0920 -0.0246 -0.0432
  485loPI   C4B 7760   0.365   3.010   8.913  0.2914  0.1191  0.3287
  486loPI    C1 7761   3.356   8.801  11.175  0.2266  0.0776 -0.2365
  486loPI    C2 7762   3.319   8.757  11.571  0.1116  0.1759 -0.2355
  486loPI    C3 7763   3.476   8.462  11.350 -0.2088 -0.0487 -0.1696
  486loPI   PO4 7764   3.191   8.765  11.025 -0.0416 -0.2411  0.2797
  486loPI   GL1 7765   3.141   8.713  10.635 -0.1103  0.5621  0.3804
  486loPI   GL2 7766   2.854   8.909  10.546 -0.0022  0.0102 -0.2164
  486loPI   C1A 7767   3.487   8.642  10.319  0.2553 -0.3723  0.0042
  486loPI   C2A 7768   3.459   8.518   9.895  0.2323 -0.1396 -0.3543
  486loPI   C3A 7769   3.473   8.565   9.462  0.0960  0.0253  0.2216
  486loPI   C4A 7770   3.436   8.567   9.013 -0.0538 -0.3037 -0.0469
  486loPI   C5A 7771   3.517   8.516   8.582  0.0930 -0.3161 -0.1289
  486loPI   C6A 7772   3.300   8.256   8.336 -0.1110  0.0047 -0.3287
  486loPI   C1B 7773   2.917   8.812  10.136 -0.1320 -0.0607 -0.0184
  486loPI   C2B 7774   2.964   8.803   9.677 -0.1159  0.2807  0.4303
  486loPI   C3B 7775   2.960   8.741   9.196  0.2555 -0.2081 -0.3023
  486loPI   C4B 7776   2.980   8.695   8.718 -0.0959 -0.0376  0.3286
  487loPI    C1 7777   6.688  11.548  11.019  0.2491 -0.1426 -0.1965
  487loPI    C2 7778   7.059  11.675  11.099  0.2756 -0.3390  0.0037
  487loPI    C3 7779   6.842  11.498  11.385 -0.0060 -0.1486 -0.0876
  487loPI   PO4 7780   6.698  11.439  10.813  0.0764  0.3556 -0.0335
  487loPI   GL1 7781   6.686  11.468  10.404  0.2369  0.2154  0.0398
  487loPI   GL2 7782   6.525  11.699  10.415 -0.0069  0.2654  0.0240
  487loPI   C1A 7783   6.795  11.591   9.958 -0.1939  0.0476  0.1021
  487loPI   C2A 7784   6.781  11.611   9.518  0.1658 -0.3218  0.0619
  487loPI   C3A 7785   6.811  11.539   9.068  0.2531  0.0810  0.2755
  487loPI   C4A 7786   6.818  11.431   8.638 -0.0319  0.2158  0.1952
  487loPI   C5A 7787   6.889  11.380   8.262  0.0116  0.0181 -0.2126
  487loPI   C6A 7788   7.238  11.359   7.975  0.0899 -0.2752 -0.2046
  487loPI   C1B 7789   6.476  11.928  10.061  0.0807  0.4853 -0.2165
  487loPI   C2B 7790   6.299  11.849   9.614  0.1829 -0.0758 -0.0703
  487loPI   C3B 7791   6.390  11.728   9.210  0.2592  0.2360 -0.2053
  487loPI   C4B 7792   6.329  11.727   8.726 -0.1791  0.2715 -0.0726
  488loPI    C1 7793  13.493  13.152  11.031 -0.0966 -0.1312  0.0311
  488loPI    C2 7794  13.181  13.371  11.152 -0.0359 -0.1175  0.1646
  488loPI    C3 7795  13.243  13.008  11.308 -0.0424 -0.1621  0.0642
  488loPI   PO4 7796  13.472  13.190  10.764 -0.0289  0.0420  0.1024
  488loPI   GL1 7797  13.173  13.388  10.539 -0.4503  0.3531 -0.0971
  488loPI   GL2 7798  13.078  13.129  10.369  0.1958  0.2950  0.3756
  488loPI   C1A 7799  13.360  13.567  10.097  0.4654 -0.0610 -0.0401
  488loPI   C2A 7800  13.466  13.544   9.711 -0.1098  0.1785 -0.0886
  488loPI   C3A 7801  13.560  13.522   9.216 -0.1688 -0.0218  0.0478
  488loPI   C4A 7802  13.594  13.552   8.840  0.2193 -0.2683  0.1464
  488loPI   C5A 7803  13.448  13.641   8.444  0.0200 -0.0233  0.3849
  488loPI   C6A 7804  12.998  13.674   8.189  0.1449 -0.2096 -0.2034
  488loPI   C1B 7805  12.985  13.259   9.904  0.0558  0.2119 -0.1028
  488loPI   C2B 7806  13.142  13.273   9.444  0.3311 -0.0447  0.0150
  488loPI   C3B 7807  13.160  13.321   9.058 -0.0677  0.1880 -0.0549
  488loPI   C4B 7808  13.174  13.187   8.694 -0.0103 -0.1113  0.1477
  489loPI    C1 7809  11.894  13.299  11.167  0.1129  0.0467  0.2611
  489loPI    C2 7810  11.533  13.126  11.183  0.0163  0.1760 -0.3248
  489loPI    C3 7811  11.578  13.506  11.300  0.0713  0.0097  0.2205
  489loPI   PO4 7812  12.066  13.245  10.911 -0.1910  0.3692 -0.2134
  489loPI   GL1 7813  12.153  13.301  10.502 -0.2849  0.1426  0.0477
  489loPI   GL2 7814  12.154  13.616  10.394  0.0980  0.0014  0.1609
  489loPI   C1A 7815  12.108  13.123  10.082 -0.1023 -0.2153 -0.1807
  489loPI   C2A 7816  12.122  13.120   9.639 -0.0126  0.3243  0.0794
  489loPI   C3A 7817  12.198  13.100   9.212  0.1335 -0.0387  0.0385
  489loPI   C4A 7818  12.256  13.111   8.755  0.0272  0.2981 -0.0541
  489loPI   C5A 7819  12.219  13.228   8.343  0.0920  0.1708  0.0754
  489loPI   C6A 7820  12.194  13.091   7.836  0.3626  0.2763 -0.1864
  489loPI   C1B 7821  12.078  13.640   9.953  0.2966  0.3518  0.0174
  489loPI   C2B 7822  12.135  13.613   9.493  0.3009 -0.1392 -0.1812
  489loPI   C3B 7823  12.229  13.582   9.078  0.0373  0.1087  0.2976
  489loPI   C4B 7824  12.213  13.635   8.605  0.0731 -0.1043 -0.0240
  490loPI    C1 7825   9.605   2.370  11.190 -0.1182  0.0772 -0.0871
  490loPI    C2 7826   9.925   2.243  11.395 -0.3123  0.0448  0.2015
  490loPI    C3 7827   9.701   2.541  11.539 -0.3920  0.0923 -0.0171
  490loPI   PO4 7828   9.677   2.369  10.919 -0.0334  0.0499  0.1837
  490loPI   GL1 7829   9.742   2.178  10.593  0.0408  0.1628  0.2965
  490loPI   GL2 7830   9.552   1.941  10.393  0.2286 -0.1479 -0.1604
  490loPI   C1A 7831   9.866   2.193  10.168  0.1658 -0.1959 -0.0807
  490loPI   C2A 7832   9.891   2.203   9.723 -0.0808  0.3464 -0.0384
  490loPI   C3A 7833   9.876   2.202   9.362  0.0649 -0.0288  0.0609
  490loPI   C4A 7834   9.875   2.184   8.861 -0.2056  0.1702 -0.2604
  490loPI   C5A 7835  10.150   2.286   8.528 -0.0273 -0.0125  0.1484
  490loPI   C6A 7836  10.339   2.370   8.149 -0.2858 -0.1218 -0.0532
  490loPI   C1B 7837   9.475   1.972   9.927  0.0434  0.4240 -0.1773
  490loPI   C2B 7838   9.492   1.847   9.461  0.1255  0.0548  0.1535
  490loPI   C3B 7839   9.485   1.848   9.049  0.1324  0.0111 -0.0785
  490loPI   C4B 7840   9.438   1.802   8.730 -0.0672  0.0050 -0.0796
  491loPI    C1 7841  16.854   2.389  11.098 -0.0793  0.0334  0.1078
  491loPI    C2 7842  17.007   2.281  11.452 -0.2416  0.0246  0.1764
  491loPI    C3 7843  17.089   2.067  11.124  0.1006  0.1677  0.1646
  491loPI   PO4 7844  16.857   2.644  11.078  0.0726  0.0272  0.2928
  491loPI   GL1 7845  16.801   2.819  10.729 -0.1495  0.2308 -0.2425
  491loPI   GL2 7846  17.073   2.727  10.637  0.0673  0.0239  0.0568
  491loPI   C1A 7847  16.594   2.948  10.477  0.1487  0.0383 -0.0650
  491loPI   C2A 7848  16.525   2.884  10.118 -0.0147 -0.1932  0.3451
  491loPI   C3A 7849  16.418   2.888   9.593 -0.0701 -0.1193 -0.1229
  491loPI   C4A 7850  16.504   2.868   9.197  0.1193  0.3877 -0.0920
  491loPI   C5A 7851  16.497   2.960   8.828  0.1926 -0.0448 -0.3076
  491loPI   C6A 7852  16.826   2.905   8.503  0.1945  0.0306  0.1455
  491loPI   C1B 7853  17.037   2.650  10.290  0.2585  0.1736 -0.1942
  491loPI   C2B 7854  16.939   2.616   9.828  0.1416 -0.1893 -0.0567
  491loPI   C3B 7855  16.917   2.695   9.360 -0.0596 -0.0211  0.2832
  491loPI   C4B 7856  16.974   2.692   8.922 -0.0657  0.0307 -0.2167
  492loPI    C1 7857   7.807   0.142  10.731 -0.3047 -0.3080  0.2763
  492loPI    C2 7858   8.005  -0.138  10.937  0.1916 -0.0725  0.1349
  492loPI    C3 7859   8.059   0.248  11.023 -0.0178  0.0058 -0.0751
  492loPI   PO4 7860   7.763   0.167  10.446 -0.1331  0.1681 -0.2311
  492loPI   GL1 7861   8.120   0.317  10.091 -0.4083 -0.1854 -0.1300
  492loPI   GL2 7862   7.934  -0.032  10.051  0.1700 -0.1767  0.0137
  492loPI   C1A 7863   8.270   0.454   9.707  0.0866  0.0260 -0.2813
  492loPI   C2A 7864   8.238   0.416   9.317 -0.0466  0.2523  0.0565
  492loPI   C3A 7865   8.265   0.424   8.938  0.0641 -0.0909  0.0621
  492loPI   C4A 7866   8.347   0.379   8.494  0.0307  0.0103  0.0947
  492loPI   C5A 7867   8.533   0.637   8.211 -0.0687  0.1120  0.2221
  492loPI   C6A 7868   8.498   0.983   7.983  0.2627  0.2392 -0.1192
  492loPI   C1B 7869   7.856   0.169   9.673  0.0688 -0.3131  0.1504
  492loPI   C2B 7870   7.812   0.161   9.196  0.0734 -0.3137  0.1093
  492loPI   C3B 7871   7.740   0.161   8.854  0.0807 -0.1034 -0.3867
  492loPI   C4B 7872   7.880   0.095   8.496 -0.1384  0.0180 -0.1113
  493loPI    C1 7873   3.249  12.551  10.670  0.1621 -0.0295  0.1374
  493loPI    C2 7874   2.882  12.649  10.796  0.0596 -0.0974 -0.1024
  493loPI    C3 7875   3.203  12.823  10.959 -0.0694 -0.1643  0.2300
  493loPI   PO4 7876   3.236  12.490  10.475 -0.2244 -0.0355  0.0883
  493loPI   GL1 7877   3.483  12.512  10.105  0.1200  0.0828 -0.2855
  493loPI   GL2 7878   3.519  12.175   9.960 -0.0965  0.0278  0.2681
  493loPI   C1A 7879   3.506  12.585   9.724  0.0664  0.0902 -0.0735
  493loPI   C2A 7880   3.405  12.482   9.213  0.0791 -0.2009  0.2375
  493loPI   C3A 7881   3.563  12.459   8.779 -0.1944  0.1121 -0.0920
  493loPI   C4A 7882   3.476  12.388   8.400  0.3465  0.0119  0.4117
  493loPI   C5A 7883   3.162  12.491   8.115 -0.0485 -0.1316 -0.5023
  493loPI   C6A 7884   2.879  12.772   8.039  0.0187 -0.0085  0.0463
  493loPI   C1B 7885   3.493  12.121   9.528 -0.0236  0.0482  0.3013
  493loPI   C2B 7886   3.551  12.006   9.057  0.1025  0.0845 -0.0918
  493loPI   C3B 7887   3.465  11.936   8.659  0.2415  0.0414  0.0928
  493loPI   C4B 7888   3.378  11.862   8.233  0.0089  0.2921  0.1749
  494loPI    C1 7889   0.886  10.355  11.146 -0.0519  0.0773  0.1149
  494loPI    C2 7890   0.798  10.637  11.417  0.0812  0.0408  0.1968
  494loPI    C3 7891   1.025  10.324  11.519 -0.2101 -0.1895  0.1541
  494loPI   PO4 7892   0.940  10.496  10.972  0.1413  0.3104 -0.0578
  494loPI   GL1 7893   1.101  10.425  10.614  0.1202 -0.0159 -0.3111
  494loPI   GL2 7894   1.029  10.165  10.421  0.1678 -0.1315  0.0133
  494loPI   C1A 7895   0.903  10.692  10.193 -0.1165  0.2371 -0.2206
  494loPI   C2A 7896   0.902  10.701   9.729  0.2836  0.2465  0.2588
  494loPI   C3A 7897   0.968  10.650   9.319 -0.1619 -0.2276 -0.0242
  494loPI   C4A 7898   0.870  10.662   8.977 -0.3237 -0.1827  0.6414
  494loPI   C5A 7899   0.789  10.498   8.538  0.1778 -0.0932  0.0847
  494loPI   C6A 7900   0.374  10.369   8.428 -0.0582 -0.0857 -0.0460
  494loPI   C1B 7901   0.991  10.183  10.012 -0.1951  0.1044  0.1038
  494loPI   C2B 7902   1.072  10.242   9.653 -0.2473  0.3278  0.1750
  494loPI   C3B 7903   1.014  10.163   9.201 -0.2994  0.0817  0.0760
  494loPI   C4B 7904   1.013  10.126   8.806  0.0718  0.3143  0.0978
  495loPI    C1 7905   0.894   5.508  10.926  0.0262  0.1606  0.0078
  495loPI    C2 7906   0.901   5.147  11.098 -0.4435 -0.0186 -0.3289
  495loPI    C3 7907   0.698   5.446  11.269 -0.1899  0.0451 -0.1340
  495loPI   PO4 7908   1.108   5.480  10.820 -0.1538  0.0043  0.1462
  495loPI   GL1 7909   1.127   5.184  10.516 -0.0184 -0.4199  0.1473
  495loPI   GL2 7910   1.497   5.140  10.583  0.0091 -0.0403 -0.2203
  495loPI   C1A 7911   1.094   5.130  10.163 -0.0133 -0.0896  0.0455
  495loPI   C2A 7912   1.042   5.187   9.724  0.1551  0.1223 -0.0011
  495loPI   C3A 7913   0.974   5.202   9.274 -0.0094  0.1260 -0.1166
  495loPI   C4A 7914   0.970   5.191   8.831 -0.0100  0.1052  0.0259
  495loPI   C5A 7915   0.891   5.368   8.400 -0.0116  0.0391  0.0120
  495loPI   C6A 7916   0.673   5.321   7.995 -0.2929  0.0918 -0.3451
  495loPI   C1B 7917   1.614   4.997  10.112  0.0288  0.0717 -0.0705
  495loPI   C2B 7918   1.517   4.949   9.664 -0.1718 -0.3392  0.1985
  495loPI   C3B 7919   1.449   5.035   9.254  0.0734 -0.0968  0.1909
  495loPI   C4B 7920   1.500   4.967   8.763  0.1144  0.1532  0.0503
  496loPI    C1 7921  17.760  14.316  11.101  0.0581 -0.0504  0.0102
  496loPI    C2 7922  17.930  14.356  11.461  0.1126 -0.1530 -0.0037
  496loPI    C3 7923  17.872  13.992  11.307  0.1641 -0.1067 -0.1341
  496loPI   PO4 7924  17.864  14.462  10.957  0.0804 -0.1454 -0.2320
  496loPI   GL1 7925  17.805  14.474  10.567 -0.1834 -0.0761  0.0656
  496loPI   GL2 7926  17.439  14.646  10.425  0.0282  0.0179  0.0826
  496loPI   C1A 7927  17.966  14.626  10.184  0.2939 -0.1371 -0.0183
  496loPI   C2A 7928  18.019  14.523   9.742  0.3475  0.3474 -0.0019
  496loPI   C3A 7929  17.955  14.624   9.379  0.0476  0.2102  0.1453
  496loPI   C4A 7930  17.889  14.484   9.001 -0.1049  0.1166  0.0962
  496loPI   C5A 7931  18.001  14.544   8.532 -0.1251 -0.1125 -0.0233
  496loPI   C6A 7932  18.168  14.490   8.177  0.1119  0.1232  0.0869
  496loPI   C1B 7933  17.512  14.705   9.991  0.1869  0.2083 -0.0533
  496loPI   C2B 7934  17.477  14.762   9.573  0.0731 -0.4103  0.1512
  496loPI   C3B 7935  17.508  14.723   9.174  0.0361 -0.4388  0.2058
  496loPI   C4B 7936  17.459  14.601   8.788  0.0494 -0.1401 -0.1538
  497loPI    C1 7937   6.429   1.080  10.714 -0.4089  0.0058 -0.0189
  497loPI    C2 7938   6.590   1.292  11.012 -0.1265 -0.1439 -0.0618
  497loPI    C3 7939   6.364   0.973  11.094  0.0155 -0.2316 -0.0067
  497loPI   PO4 7940   6.494   1.318  10.511 -0.1132 -0.0367  0.0242
  497loPI   GL1 7941   6.398   1.459  10.112  0.1815 -0.1017  0.3063
  497loPI   GL2 7942   6.096   1.487  10.272  0.2398  0.3058  0.3813
  497loPI   C1A 7943   6.406   1.296   9.714 -0.0448 -0.1263 -0.0783
  497loPI   C2A 7944   6.415   1.230   9.216 -0.2254 -0.1757 -0.0045
  497loPI   C3A 7945   6.351   1.270   8.767 -0.1241 -0.0102  0.0513
  497loPI   C4A 7946   6.264   1.379   8.306  0.1089  0.0484 -0.0681
  497loPI   C5A 7947   5.870   1.317   8.066  0.0549 -0.1184  0.1839
  497loPI   C6A 7948   5.594   0.975   7.950 -0.1841 -0.1038 -0.1144
  497loPI   C1B 7949   5.986   1.543   9.858 -0.0770  0.0350  0.0019
  497loPI   C2B 7950   5.938   1.421   9.365 -0.0063 -0.2133 -0.1764
  497loPI   C3B 7951   5.932   1.495   8.948  0.2331 -0.2145 -0.0181
  497loPI   C4B 7952   5.884   1.638   8.569 -0.2139 -0.0976  0.2204
  498loPI    C1 7953   3.846   5.795  11.325 -0.1091 -0.0095 -0.0475
  498loPI    C2 7954   4.017   5.663  11.662 -0.2422 -0.2996 -0.0901
  498loPI    C3 7955   3.758   5.969  11.675  0.2158  0.0974 -0.0161
  498loPI   PO4 7956   3.935   5.860  11.075  0.0998 -0.1065 -0.0174
  498loPI   GL1 7957   3.958   6.023  10.679 -0.1808  0.2218 -0.0268
  498loPI   GL2 7958   3.959   5.771  10.530  0.0550 -0.1560 -0.1011
  498loPI   C1A 7959   4.048   6.279  10.317 -0.1213 -0.2445  0.1353
  498loPI   C2A 7960   4.120   6.232   9.841 -0.1422  0.0205  0.1025
  498loPI   C3A 7961   3.971   6.217   9.476 -0.1581  0.0991 -0.1853
  498loPI   C4A 7962   4.073   6.279   9.045 -0.3042 -0.0938  0.1303
  498loPI   C5A 7963   4.173   6.275   8.650  0.3114 -0.1666  0.0168
  498loPI   C6A 7964   3.947   6.402   8.387 -0.0339 -0.0076 -0.1191
  498loPI   C1B 7965   4.076   5.778  10.071  0.0534 -0.3234 -0.3014
  498loPI   C2B 7966   4.175   5.741   9.659 -0.1664 -0.3360  0.0327
  498loPI   C3B 7967   4.118   5.726   9.167  0.2119  0.0322 -0.2355
  498loPI   C4B 7968   4.127   5.796   8.751  0.2352 -0.0490  0.1606
  499loPI    C1 7969   1.818   7.823  11.087  0.1116  0.0202  0.0456
  499loPI    C2 7970   1.805   7.751  11.480 -0.1258 -0.2603 -0.0105
  499loPI    C3 7971   1.591   8.050  11.324  0.0024 -0.1213  0.0780
  499loPI   PO4 7972   2.125   7.798  10.949 -0.0268  0.0355 -0.1149
  499loPI   GL1 7973   2.386   7.581  10.822 -0.1983  0.0670  0.3358
  499loPI   GL2 7974   2.504   7.373  10.852 -0.1541 -0.0686  0.1044
  499loPI   C1A 7975   2.231   7.710  10.336  0.1472  0.0277  0.3008
  499loPI   C2A 7976   2.148   7.709   9.954  0.1644  0.1282 -0.3439
  499loPI   C3A 7977   2.117   7.610   9.532  0.0007  0.3574  0.3175
  499loPI   C4A 7978   2.072   7.520   9.137 -0.2793  0.1312  0.0531
  499loPI   C5A 7979   2.196   7.642   8.677 -0.0361 -0.1455  0.0315
  499loPI   C6A 7980   2.370   7.471   8.233 -0.2764  0.0666  0.2099
  499loPI   C1B 7981   2.596   7.325  10.451  0.0215  0.3391 -0.1995
  499loPI   C2B 7982   2.578   7.478  10.057 -0.0078  0.1855 -0.0367
  499loPI   C3B 7983   2.607   7.405   9.557  0.0727 -0.2006  0.0241
  499loPI   C4B 7984   2.577   7.392   9.124  0.4133 -0.2087  0.0802
  500loPI    C1 7985  15.722  11.268  11.261 -0.1692  0.0442 -0.0638
  500loPI    C2 7986  15.530  11.611  11.339  0.0110  0.1643 -0.1420
  500loPI    C3 7987  15.881  11.533  11.515 -0.1604 -0.1060  0.0888
  500loPI   PO4 7988  15.700  11.251  11.012 -0.2889  0.0343  0.3025
  500loPI   GL1 7989  15.462  11.187  10.614 -0.1167 -0.3036 -0.1102
  500loPI   GL2 7990  15.540  11.519  10.590  0.0805 -0.0816  0.1309
  500loPI   C1A 7991  15.665  11.114  10.311 -0.1969 -0.2355  0.0069
  500loPI   C2A 7992  15.567  11.104   9.902 -0.1462 -0.1502 -0.1203
  500loPI   C3A 7993  15.599  11.138   9.495 -0.1465 -0.1829 -0.3320
  500loPI   C4A 7994  15.658  11.076   9.106  0.0058 -0.0949  0.0363
  500loPI   C5A 7995  15.577  11.207   8.678 -0.0241  0.1892  0.1442
  500loPI   C6A 7996  15.471  11.093   8.255 -0.3047 -0.1908  0.0046
  500loPI   C1B 7997  15.587  11.569  10.167  0.1534  0.1503  0.0603
  500loPI   C2B 7998  15.483  11.604   9.751  0.0576  0.1122  0.0895
  500loPI   C3B 7999  15.561  11.640   9.413  0.0402 -0.1797 -0.0557
  500loPI   C4B 8000  15.539  11.552   9.007 -0.1376  0.0612 -0.0222
  501loPI    C1 8001   0.061  15.263  11.167 -0.2049 -0.1375  0.3277
  501loPI    C2 8002   0.402  15.128  11.327  0.0244  0.0046 -0.0301
  501loPI    C3 8003   0.102  14.874  11.253  0.1237 -0.1550  0.1077
  501loPI   PO4 8004   0.150  15.449  10.994 -0.5241 -0.1828  0.0152
  501loPI   GL1 8005   0.204  15.476  10.563  0.2279  0.3769 -0.0219
  501loPI   GL2 8006   0.150  15.147  10.409 -0.4799  0.0279 -0.0337
  501loPI   C1A 8007  -0.003  15.576  10.176 -0.2504 -0.1068 -0.1847
  501loPI   C2A 8008  -0.017  15.590   9.810  0.0792 -0.2523  0.3331
  501loPI   C3A 8009   0.030  15.505   9.343 -0.1537  0.1244 -0.0065
  501loPI   C4A 8010   0.009  15.575   8.962  0.1327  0.0949 -0.0478
  501loPI   C5A 8011  -0.081  15.713   8.518  0.6354  0.2503 -0.1356
  501loPI   C6A 8012  -0.254  16.049   8.203  0.2999 -0.0311  0.1172
  501loPI   C1B 8013   0.097  15.046   9.974 -0.0137 -0.0108  0.1785
  501loPI   C2B 8014   0.060  15.094   9.618 -0.0303  0.1098 -0.0737
  501loPI   C3B 8015   0.048  15.052   9.160 -0.0987 -0.2329  0.3324
  501loPI   C4B 8016  -0.033  15.036   8.702  0.0093  0.0489 -0.0383
  502loPI    C1 8017   5.105   8.552  11.229  0.0213  0.1732  0.0044
  502loPI    C2 8018   5.262   8.357  11.541  0.1061  0.3799  0.0930
  502loPI    C3 8019   5.319   8.751  11.503 -0.1280  0.4022 -0.0425
  502loPI   PO4 8020   5.213   8.504  10.953 -0.1343  0.3041  0.0914
  502loPI   GL1 8021   5.370   8.544  10.511 -0.1417  0.1410 -0.0634
  502loPI   GL2 8022   5.177   8.304  10.295  0.0042  0.0911 -0.3096
  502loPI   C1A 8023   5.610   8.621  10.122 -0.0805 -0.3708  0.3815
  502loPI   C2A 8024   5.713   8.530   9.681  0.2661 -0.2686  0.1348
  502loPI   C3A 8025   5.714   8.551   9.242 -0.1183 -0.1888  0.0689
  502loPI   C4A 8026   5.696   8.502   8.764 -0.1145 -0.1188 -0.0924
  502loPI   C5A 8027   5.815   8.597   8.310 -0.2377  0.1958 -0.2781
  502loPI   C6A 8028   5.879   8.986   8.017 -0.0114  0.0394 -0.0769
  502loPI   C1B 8029   5.281   8.280   9.898  0.0955  0.1426  0.1368
  502loPI   C2B 8030   5.280   8.296   9.453 -0.4372 -0.3122  0.2448
  502loPI   C3B 8031   5.251   8.199   9.015 -0.0901 -0.1287 -0.1212
  502loPI   C4B 8032   5.296   8.244   8.524 -0.1489  0.0347 -0.1636
  503loPI    C1 8033   8.321  14.059  10.685  0.2327 -0.0803  0.0036
  503loPI    C2 8034   8.292  14.370  10.935  0.0629 -0.0961  0.0047
  503loPI    C3 8035   8.231  13.999  11.070 -0.0060 -0.1066 -0.0545
  503loPI   PO4 8036   8.468  14.073  10.548 -0.0980  0.1428 -0.0757
  503loPI   GL1 8037   8.384  13.949  10.104  0.2586  0.1764  0.0678
  503loPI   GL2 8038   8.391  13.691   9.990  0.1748  0.0096  0.1269
  503loPI   C1A 8039   8.758  13.972   9.874 -0.1359 -0.0404  0.1345
  503loPI   C2A 8040   8.947  14.059   9.439 -0.0351 -0.1984 -0.0271
  503loPI   C3A 8041   8.964  14.080   9.006  0.0253  0.0220  0.0892
  503loPI   C4A 8042   8.819  14.141   8.505 -0.1213 -0.2895  0.3502
  503loPI   C5A 8043   8.822  14.168   8.045  0.0231  0.2075 -0.2680
  503loPI   C6A 8044   8.900  14.402   7.679 -0.1890 -0.0944  0.0537
  503loPI   C1B 8045   8.461  13.762   9.544 -0.4075 -0.1604  0.2141
  503loPI   C2B 8046   8.446  13.730   9.067 -0.0181  0.0960  0.0510
  503loPI   C3B 8047   8.479  13.679   8.575  0.0129  0.0488 -0.4638
  503loPI   C4B 8048   8.650  13.689   8.165  0.1056 -0.2232  0.0212
  504loPI    C1 8049  10.415  11.303  10.751 -0.2438 -0.1894 -0.1307
  504loPI    C2 8050  10.618  11.184  11.075 -0.0341 -0.0375 -0.2043
  504loPI    C3 8051  10.521  10.919  10.791  0.0696 -0.1099 -0.1729
  504loPI   PO4 8052  10.526  11.402  10.643 -0.1130  0.0449 -0.1132
  504loPI   GL1 8053  10.700  11.458  10.287  0.0140 -0.0529  0.0379
  504loPI   GL2 8054  10.344  11.352  10.175  0.0232 -0.0079 -0.3077
  504loPI   C1A 8055  10.867  11.662   9.987  0.0542  0.1793  0.0550
  504loPI   C2A 8056  10.873  11.692   9.602 -0.0294 -0.1145 -0.0383
  504loPI   C3A 8057  10.863  11.734   9.189  0.0150  0.0696 -0.1869
  504loPI   C4A 8058  10.980  11.728   8.754  0.0889  0.1064  0.0257
  504loPI   C5A 8059  11.137  11.893   8.330  0.0825  0.0299 -0.3337
  504loPI   C6A 8060  10.963  12.265   8.011  0.1501 -0.1200  0.1272
  504loPI   C1B 8061  10.436  11.377   9.845 -0.0269  0.0825  0.1627
  504loPI   C2B 8062  10.411  11.366   9.406  0.0335 -0.1518  0.1370
  504loPI   C3B 8063  10.564  11.410   8.931 -0.2508  0.1963 -0.0212
  504loPI   C4B 8064  10.525  11.470   8.493 -0.0747 -0.2212  0.1736
  505loPI    C1 8065   9.763   9.405  11.221 -0.0141 -0.0192  0.0929
  505loPI    C2 8066  10.128   9.270  11.312 -0.0565 -0.1149  0.1218
  505loPI    C3 8067   9.809   9.034  11.364 -0.0799 -0.1819 -0.2962
  505loPI   PO4 8068   9.807   9.490  10.940  0.0390 -0.0053  0.1160
  505loPI   GL1 8069   9.621   9.509  10.589 -0.0970  0.2008  0.1079
  505loPI   GL2 8070   9.937   9.522  10.476 -0.2598  0.1710  0.0332
  505loPI   C1A 8071   9.329   9.647  10.269 -0.0763 -0.3889  0.1144
  505loPI   C2A 8072   9.162   9.853   9.867 -0.0589  0.0622 -0.1408
  505loPI   C3A 8073   9.300   9.853   9.443 -0.2465 -0.0716  0.0053
  505loPI   C4A 8074   9.289   9.834   8.995 -0.3724 -0.1047 -0.4008
  505loPI   C5A 8075   9.318   9.926   8.586  0.4581 -0.0068 -0.0749
  505loPI   C6A 8076   9.419  10.202   8.202  0.0801 -0.1903 -0.0016
  505loPI   C1B 8077   9.752   9.578  10.072  0.1138  0.0684 -0.0954
  505loPI   C2B 8078   9.809   9.612   9.592  0.0159 -0.2041 -0.4794
  505loPI   C3B 8079   9.839   9.744   9.145 -0.0833 -0.0620  0.0709
  505loPI   C4B 8080   9.772   9.677   8.619 -0.1364 -0.1639  0.0766
  506loPI    C1 8081  15.149   3.849  11.577 -0.0697 -0.1194  0.0916
  506loPI    C2 8082  15.428   4.136  11.578  0.1783 -0.3509 -0.2274
  506loPI    C3 8083  15.390   3.892  11.893 -0.1150  0.0980  0.0981
  506loPI   PO4 8084  15.211   3.675  11.313  0.0768 -0.1502 -0.0784
  506loPI   GL1 8085  14.914   3.669  10.957 -0.4561  0.3191 -0.0421
  506loPI   GL2 8086  15.066   3.840  10.698  0.1353 -0.0559  0.1563
  506loPI   C1A 8087  15.088   3.413  10.459 -0.0740  0.0185 -0.1703
  506loPI   C2A 8088  15.034   3.551  10.070 -0.1124  0.1083  0.0297
  506loPI   C3A 8089  15.099   3.568   9.624  0.0936 -0.0746 -0.0495
  506loPI   C4A 8090  15.025   3.460   9.162 -0.1639 -0.0008  0.1331
  506loPI   C5A 8091  14.958   3.676   8.720 -0.0233 -0.1463  0.0373
  506loPI   C6A 8092  14.685   4.010   8.650  0.0380  0.4138  0.0151
  506loPI   C1B 8093  14.918   4.002  10.364 -0.1808  0.1548  0.1406
  506loPI   C2B 8094  14.955   4.077  10.006 -0.1483  0.0613  0.0524
  506loPI   C3B 8095  14.997   4.033   9.626 -0.0162 -0.1158 -0.0061
  506loPI   C4B 8096  14.952   3.930   9.179  0.0398  0.2068  0.1703
  507loPI    C1 8097  11.923   1.861  11.254 -0.0484 -0.0347  0.0781
  507loPI    C2 8098  12.075   1.530  11.418 -0.0675 -0.0329  0.0997
  507loPI    C3 8099  11.716   1.664  11.534 -0.0313  0.0316  0.1379
  507loPI   PO4 8100  12.142   1.881  11.010 -0.3216  0.0189 -0.0165
  507loPI   GL1 8101  12.389   1.808  10.683  0.0492 -0.0326  0.0246
  507loPI   GL2 8102  12.103   1.729  10.536  0.0582 -0.0008  0.1048
  507loPI   C1A 8103  12.522   1.973  10.317  0.2971  0.1643  0.0266
  507loPI   C2A 8104  12.573   2.006   9.887  0.1419 -0.0431  0.3947
  507loPI   C3A 8105  12.585   2.099   9.469  0.0237  0.1719  0.0033
  507loPI   C4A 8106  12.628   2.139   9.014  0.1517 -0.1259  0.0893
  507loPI   C5A 8107  12.646   2.059   8.682  0.1214  0.1910  0.2491
  507loPI   C6A 8108  12.702   1.664   8.476 -0.0848  0.2305 -0.0527
  507loPI   C1B 8109  12.165   1.694  10.090  0.1187  0.0007 -0.1978
  507loPI   C2B 8110  12.189   1.722   9.599 -0.2832 -0.1694 -0.0182
  507loPI   C3B 8111  12.273   1.826   9.190  0.5485 -0.1929  0.0470
  507loPI   C4B 8112  12.271   1.760   8.796 -0.2107  0.0317  0.1377
  508loPI    C1 8113   4.392   6.926  11.300  0.0194  0.1700 -0.2017
  508loPI    C2 8114   4.064   6.903  11.527  0.0070  0.0832 -0.2279
  508loPI    C3 8115   4.415   7.001  11.692  0.0647 -0.3133 -0.1064
  508loPI   PO4 8116   4.272   6.726  11.022  0.0411  0.0384  0.0765
  508loPI   GL1 8117   4.365   6.623  10.568 -0.0710  0.4182  0.1573
  508loPI   GL2 8118   4.488   6.958  10.614 -0.3316  0.0745  0.2394
  508loPI   C1A 8119   4.466   6.511  10.090 -0.1450 -0.2592 -0.2759
  508loPI   C2A 8120   4.483   6.531   9.654  0.2222  0.1084 -0.0626
  508loPI   C3A 8121   4.410   6.609   9.260 -0.2229 -0.2069 -0.3183
  508loPI   C4A 8122   4.503   6.635   8.863  0.1802 -0.0579  0.0175
  508loPI   C5A 8123   4.447   6.697   8.486 -0.2119  0.0720 -0.1221
  508loPI   C6A 8124   4.123   6.874   8.198  0.0222  0.3588  0.0874
  508loPI   C1B 8125   4.412   7.135  10.124  0.0022 -0.0426  0.0554
  508loPI   C2B 8126   4.388   7.010   9.722 -0.1068 -0.1916  0.4231
  508loPI   C3B 8127   4.405   7.111   9.362  0.0736  0.0822  0.2008
  508loPI   C4B 8128   4.345   7.147   8.985 -0.2277  0.3248 -0.0194
  509loPI    C1 8129   7.364   1.584  10.887  0.0536  0.0601  0.1572
  509loPI    C2 8130   7.048   1.428  11.078 -0.0051 -0.0733 -0.0457
  509loPI    C3 8131   7.361   1.563  11.287 -0.1533 -0.0315  0.1526
  509loPI   PO4 8132   7.308   1.680  10.713  0.0686  0.1099  0.2032
  509loPI   GL1 8133   7.154   1.684  10.269 -0.0869 -0.0333  0.2120
  509loPI   GL2 8134   6.844   1.613  10.258 -0.0897 -0.1342 -0.1958
  509loPI   C1A 8135   7.241   1.933   9.923 -0.1153  0.2534 -0.0777
  509loPI   C2A 8136   7.205   1.902   9.429 -0.1500 -0.0320 -0.3355
  509loPI   C3A 8137   7.187   1.841   8.955  0.1361 -0.1928  0.0676
  509loPI   C4A 8138   7.325   1.791   8.496  0.2285 -0.0513  0.1068
  509loPI   C5A 8139   7.036   1.806   8.181 -0.2222 -0.1569  0.2589
  509loPI   C6A 8140   6.559   1.778   8.206  0.2281 -0.2313 -0.0870
  509loPI   C1B 8141   6.776   1.618   9.814  0.0495  0.0282  0.0228
  509loPI   C2B 8142   6.830   1.534   9.425  0.0316 -0.2920  0.2588
  509loPI   C3B 8143   6.768   1.516   8.927 -0.0778 -0.2596 -0.0816
  509loPI   C4B 8144   6.836   1.517   8.559  0.1484 -0.1398  0.2248
  510loPI    C1 8145   5.708   8.650  10.948 -0.2598 -0.2141  0.0434
  510loPI    C2 8146   5.875   8.397  10.687 -0.2832 -0.0915 -0.0917
  510loPI    C3 8147   6.047   8.460  11.042 -0.0814 -0.0240 -0.1998
  510loPI   PO4 8148   5.696   8.888  10.757  0.0246 -0.0911  0.2802
  510loPI   GL1 8149   5.499   9.177  10.595  0.0280 -0.0003 -0.0866
  510loPI   GL2 8150   5.667   9.184  10.343  0.3606 -0.1955  0.2376
  510loPI   C1A 8151   5.146   8.961  10.376 -0.0517  0.0112 -0.2236
  510loPI   C2A 8152   5.122   8.729   9.991  0.1961  0.2130  0.0937
  510loPI   C3A 8153   5.273   8.748   9.585 -0.0520  0.1199 -0.0305
  510loPI   C4A 8154   5.225   8.713   9.140  0.0865 -0.1544 -0.0183
  510loPI   C5A 8155   5.239   8.718   8.674  0.5026 -0.1950 -0.0991
  510loPI   C6A 8156   5.272   8.687   8.263 -0.0150 -0.1362  0.0501
  510loPI   C1B 8157   5.612   9.079   9.874  0.1202 -0.0789 -0.1402
  510loPI   C2B 8158   5.645   9.084   9.399 -0.1460  0.1616  0.2471
  510loPI   C3B 8159   5.571   9.032   8.981  0.1193  0.1360 -0.0298
  510loPI   C4B 8160   5.776   9.004   8.571  0.2444  0.3571  0.0606
  511loPI    C1 8161  16.552  16.035  11.298  0.0369  0.0523  0.0241
  511loPI    C2 8162  16.784  16.258  11.535  0.0714 -0.0374  0.0753
  511loPI    C3 8163  16.624  15.919  11.674 -0.1244  0.0449  0.0534
  511loPI   PO4 8164  16.348  16.217  11.234  0.0136 -0.1431  0.0075
  511loPI   GL1 8165  16.099  16.439  10.936  0.2970  0.1193  0.2066
  511loPI   GL2 8166  15.810  16.524  10.806 -0.0530  0.2071 -0.2004
  511loPI   C1A 8167  16.150  16.441  10.468  0.1212 -0.0307  0.6457
  511loPI   C2A 8168  16.034  16.424  10.055  0.3412 -0.1553 -0.0700
  511loPI   C3A 8169  16.073  16.451   9.618 -0.2122  0.1429 -0.3681
  511loPI   C4A 8170  16.075  16.407   9.198 -0.0039 -0.0459 -0.0432
  511loPI   C5A 8171  16.091  16.299   8.744 -0.0363  0.0416 -0.0856
  511loPI   C6A 8172  16.453  16.364   8.470  0.1100 -0.2581 -0.0427
  511loPI   C1B 8173  15.690  16.635  10.364  0.2123  0.3356  0.0402
  511loPI   C2B 8174  15.522  16.602   9.946  0.1862 -0.0982  0.3576
  511loPI   C3B 8175  15.582  16.610   9.489 -0.1857  0.1128 -0.0594
  511loPI   C4B 8176  15.657  16.641   9.042 -0.0428 -0.1041  0.3366
  512loPI    C1 8177   1.733  13.538  11.089  0.0369 -0.0122  0.1085
  512loPI    C2 8178   2.104  13.390  11.118  0.1061  0.1271 -0.0540
  512loPI    C3 8179   2.011  13.735  11.298 -0.0041 -0.0156  0.1663
  512loPI   PO4 8180   1.792  13.512  10.727 -0.2271 -0.1867  0.3187
  512loPI   GL1 8181   1.655  13.470  10.336  0.0894  0.4488  0.0315
  512loPI   GL2 8182   1.409  13.765  10.276 -0.4233 -0.0702 -0.0050
  512loPI   C1A 8183   1.553  13.480   9.935  0.3521 -0.0920  0.2016
  512loPI   C2A 8184   1.530  13.385   9.489 -0.0618  0.0993 -0.1708
  512loPI   C3A 8185   1.440  13.377   9.101  0.0301 -0.1027  0.1769
  512loPI   C4A 8186   1.465  13.487   8.797  0.1558 -0.0335  0.2713
  512loPI   C5A 8187   1.619  13.274   8.487  0.0137 -0.3465 -0.1181
  512loPI   C6A 8188   1.942  12.974   8.251  0.0441  0.0453  0.1991
  512loPI   C1B 8189   1.508  13.951   9.843  0.1680  0.0862  0.0502
  512loPI   C2B 8190   1.496  13.892   9.377 -0.2593 -0.1134  0.1415
  512loPI   C3B 8191   1.457  13.980   8.933 -0.0073  0.0444  0.0181
  512loPI   C4B 8192   1.585  14.011   8.500 -0.1134 -0.0798  0.1713
  513loPI    C1 8193   1.180   4.158  11.216 -0.0800 -0.1778 -0.2151
  513loPI    C2 8194   0.870   3.996  11.408 -0.0395 -0.0044  0.0007
  513loPI    C3 8195   1.133   4.222  11.608  0.4338 -0.4462 -0.1000
  513loPI   PO4 8196   1.254   3.975  10.990  0.0537  0.2518 -0.1681
  513loPI   GL1 8197   1.022   3.811  10.639 -0.0483  0.1411  0.2751
  513loPI   GL2 8198   0.786   3.942  10.459  0.1802 -0.0071 -0.3491
  513loPI   C1A 8199   1.184   3.586  10.280  0.2006  0.1380 -0.0142
  513loPI   C2A 8200   1.242   3.693   9.799 -0.0043 -0.0546  0.2584
  513loPI   C3A 8201   1.229   3.750   9.334 -0.0384  0.1148  0.0034
  513loPI   C4A 8202   1.240   3.723   8.932 -0.0848 -0.2390  0.0490
  513loPI   C5A 8203   1.212   3.502   8.622 -0.2339 -0.0603 -0.1083
  513loPI   C6A 8204   1.301   3.087   8.495 -0.1195  0.3767  0.2620
  513loPI   C1B 8205   0.772   3.887   9.985 -0.2415  0.2644  0.1368
  513loPI   C2B 8206   0.713   3.862   9.613  0.0046  0.2628  0.1894
  513loPI   C3B 8207   0.653   3.938   9.130  0.1428 -0.2143  0.0558
  513loPI   C4B 8208   0.779   3.785   8.763 -0.5545  0.1030 -0.5169
  514loPI    C1 8209   8.179   2.730  11.185 -0.1526 -0.0332  0.0156
  514loPI    C2 8210   8.484   2.668  11.437 -0.0443 -0.1975 -0.1544
  514loPI    C3 8211   8.153   2.445  11.465 -0.1227 -0.0650 -0.0140
  514loPI   PO4 8212   8.263   2.814  10.955  0.2953  0.2685 -0.0195
  514loPI   GL1 8213   8.232   2.889  10.555  0.1049 -0.0807  0.1106
  514loPI   GL2 8214   8.461   2.832  10.416 -0.0509 -0.1182  0.3351
  514loPI   C1A 8215   8.031   3.034  10.260 -0.0766  0.2864 -0.0179
  514loPI   C2A 8216   8.002   3.046   9.730 -0.0153  0.1553  0.0638
  514loPI   C3A 8217   7.922   3.017   9.314 -0.1323  0.1600  0.4128
  514loPI   C4A 8218   8.033   2.969   9.003 -0.0441  0.2930  0.5434
  514loPI   C5A 8219   7.917   2.985   8.608  0.0480 -0.0744  0.2792
  514loPI   C6A 8220   7.990   2.585   8.324  0.1774 -0.1351 -0.0482
  514loPI   C1B 8221   8.523   2.778  10.017  0.0216 -0.0740  0.3271
  514loPI   C2B 8222   8.577   2.826   9.555  0.1778  0.0866  0.0985
  514loPI   C3B 8223   8.418   2.796   9.207 -0.4169 -0.1350 -0.0147
  514loPI   C4B 8224   8.464   2.749   8.729  0.1573 -0.1407 -0.0077
  515loPI    C1 8225   6.852  12.099  11.132  0.0611 -0.2642  0.1969
  515loPI    C2 8226   6.686  12.320  11.421 -0.0848 -0.0682 -0.0329
  515loPI    C3 8227   7.083  12.316  11.376 -0.0547 -0.1716  0.2252
  515loPI   PO4 8228   6.568  12.079  10.986 -0.0674 -0.2265  0.0226
  515loPI   GL1 8229   6.469  12.135  10.562 -0.1300 -0.2374  0.1035
  515loPI   GL2 8230   6.151  12.044  10.531  0.1578  0.0812  0.0241
  515loPI   C1A 8231   6.335  12.381  10.185 -0.1326 -0.0701  0.2788
  515loPI   C2A 8232   6.356  12.384   9.701  0.2695  0.0323 -0.0690
  515loPI   C3A 8233   6.328  12.297   9.329 -0.0380 -0.0128 -0.3913
  515loPI   C4A 8234   6.411  12.229   8.964  0.1845 -0.1002 -0.1451
  515loPI   C5A 8235   6.276  12.223   8.541  0.1356 -0.2655  0.3048
  515loPI   C6A 8236   6.397  11.951   8.248 -0.1478  0.0981 -0.2468
  515loPI   C1B 8237   5.990  11.964  10.097 -0.6805 -0.0725 -0.2092
  515loPI   C2B 8238   5.851  12.035   9.724  0.2935 -0.0006 -0.3257
  515loPI   C3B 8239   5.896  12.012   9.300  0.0491  0.1893 -0.0843
  515loPI   C4B 8240   5.877  11.911   8.892 -0.0448  0.0051 -0.0879
  516loPI    C1 8241   1.100   2.988  11.393  0.1214 -0.0792 -0.2624
  516loPI    C2 8242   1.469   2.838  11.434  0.1360  0.0855  0.2874
  516loPI    C3 8243   1.294   3.027  11.741 -0.4228 -0.0198  0.0462
  516loPI   PO4 8244   1.243   3.124  11.126  0.0000 -0.1963  0.0853
  516loPI   GL1 8245   1.153   3.306  10.745 -0.2153  0.3194  0.0065
  516loPI   GL2 8246   1.194   3.057  10.581  0.0804 -0.0732 -0.0393
  516loPI   C1A 8247   0.833   3.294  10.361 -0.1670 -0.0453  0.2133
  516loPI   C2A 8248   0.820   3.394   9.982  0.1465  0.0018 -0.0017
  516loPI   C3A 8249   0.790   3.380   9.587  0.1752 -0.2851  0.1261
  516loPI   C4A 8250   0.796   3.414   9.106  0.0311  0.1719  0.0558
  516loPI   C5A 8251   0.793   3.253   8.720 -0.2365  0.0572  0.2622
  516loPI   C6A 8252   0.407   3.089   8.434  0.2842  0.0412  0.1919
  516loPI   C1B 8253   1.306   3.107  10.116 -0.0262 -0.2009 -0.1693
  516loPI   C2B 8254   1.292   3.021   9.778  0.1753  0.0073  0.2375
  516loPI   C3B 8255   1.288   3.241   9.369  0.0363  0.0819  0.2021
  516loPI   C4B 8256   1.261   3.172   8.986 -0.3187  0.1902 -0.0984
  517loPI    C1 8257   4.937  17.271  10.976 -0.2870 -0.0539 -0.2475
  517loPI    C2 8258   4.928  17.073  11.324  0.1229  0.0924 -0.1476
  517loPI    C3 8259   4.700  17.398  11.271 -0.0377 -0.0056 -0.0650
  517loPI   PO4 8260   4.967  17.099  10.800 -0.0297 -0.2387  0.0271
  517loPI   GL1 8261   4.782  17.217  10.486 -0.0350 -0.2081  0.0862
  517loPI   GL2 8262   4.870  16.990  10.275  0.0064 -0.0482 -0.0467
  517loPI   C1A 8263   4.837  17.392  10.064  0.1764 -0.1634  0.2086
  517loPI   C2A 8264   4.834  17.350   9.651 -0.0102  0.0301  0.2041
  517loPI   C3A 8265   4.839  17.307   9.229  0.1322 -0.1123  0.3166
  517loPI   C4A 8266   4.857  17.360   8.837 -0.1673 -0.2351 -0.1586
  517loPI   C5A 8267   5.025  17.325   8.461  0.1483  0.0045  0.0242
  517loPI   C6A 8268   5.302  17.190   8.217  0.1461  0.0068 -0.1067
  517loPI   C1B 8269   4.914  16.876   9.872 -0.0363 -0.3249  0.1280
  517loPI   C2B 8270   4.976  16.904   9.415 -0.1449  0.1806  0.1802
  517loPI   C3B 8271   4.929  16.845   8.948 -0.1235 -0.1009  0.0474
  517loPI   C4B 8272   4.874  16.857   8.527 -0.0685  0.0161 -0.3253
  518loPI    C1 8273   1.561  17.331  10.974  0.0086 -0.1045  0.0591
  518loPI    C2 8274   1.892  17.485  11.137  0.0061 -0.0109 -0.0234
  518loPI    C3 8275   1.547  17.494  11.339  0.0491 -0.0911  0.0547
  518loPI   PO4 8276   1.564  17.554  10.788 -0.2731 -0.4143  0.2029
  518loPI   GL1 8277   1.645  17.672  10.386  0.3372 -0.1023  0.1555
  518loPI   GL2 8278   1.229  17.624  10.424  0.3844  0.1654 -0.0138
  518loPI   C1A 8279   1.641  17.834   9.895 -0.0947  0.1321  0.1095
  518loPI   C2A 8280   1.596  17.871   9.485  0.1295  0.0912 -0.0386
  518loPI   C3A 8281   1.606  17.769   9.100  0.0708 -0.0317  0.1762
  518loPI   C4A 8282   1.533  17.998   8.730  0.1290  0.0768  0.3622
  518loPI   C5A 8283   1.520  18.361   8.507 -0.0661  0.4677 -0.0248
  518loPI   C6A 8284   1.610  18.795   8.457 -0.0084 -0.1885  0.2463
  518loPI   C1B 8285   1.216  17.531   9.979 -0.2004 -0.1293  0.1241
  518loPI   C2B 8286   1.218  17.507   9.572  0.0534 -0.0542  0.0895
  518loPI   C3B 8287   1.151  17.465   9.069  0.1165 -0.5544 -0.1142
  518loPI   C4B 8288   1.210  17.632   8.654  0.2380  0.2528 -0.3311
  519loPI    C1 8289  14.578   7.760  11.218 -0.1598  0.1162 -0.0308
  519loPI    C2 8290  14.285   8.010  11.323 -0.2918 -0.0942  0.1093
  519loPI    C3 8291  14.235   7.616  11.365 -0.0900 -0.1459 -0.1201
  519loPI   PO4 8292  14.604   7.805  10.913  0.0556 -0.0160 -0.1948
  519loPI   GL1 8293  14.758   7.784  10.547  0.3929  0.1121 -0.1231
  519loPI   GL2 8294  14.726   7.461  10.518  0.0560 -0.1269  0.0994
  519loPI   C1A 8295  14.550   7.646  10.086  0.2468  0.0805 -0.1252
  519loPI   C2A 8296  14.534   7.706   9.673  0.0889 -0.0078  0.1077
  519loPI   C3A 8297  14.505   7.593   9.214  0.0678  0.2201  0.1291
  519loPI   C4A 8298  14.602   7.574   8.776  0.1933  0.3493 -0.1072
  519loPI   C5A 8299  14.581   7.744   8.356 -0.0982 -0.3512  0.0457
  519loPI   C6A 8300  14.251   7.927   8.117  0.1386  0.0067  0.1432
  519loPI   C1B 8301  14.726   7.175  10.276 -0.0631  0.0354  0.1750
  519loPI   C2B 8302  14.643   7.082   9.867 -0.1417 -0.0494  0.1771
  519loPI   C3B 8303  14.610   7.038   9.384 -0.0344  0.1244  0.0193
  519loPI   C4B 8304  14.689   7.083   8.876 -0.2085  0.0161 -0.3177
  520loPI    C1 8305  11.569  17.616  11.168 -0.0195 -0.1126 -0.0225
  520loPI    C2 8306  11.694  17.274  11.334 -0.1208 -0.0470  0.1929
  520loPI    C3 8307  11.759  17.622  11.520 -0.1191  0.0410  0.0298
  520loPI   PO4 8308  11.625  17.613  10.951 -0.3996 -0.0342 -0.3810
  520loPI   GL1 8309  11.469  17.592  10.533  0.0521  0.0337 -0.2342
  520loPI   GL2 8310  11.459  17.892  10.366 -0.1519 -0.1799  0.2354
  520loPI   C1A 8311  11.460  17.429  10.037 -0.1296 -0.1811 -0.0529
  520loPI   C2A 8312  11.423  17.558   9.497 -0.1071  0.2341 -0.1187
  520loPI   C3A 8313  11.251  17.359   9.127 -0.1253 -0.0812 -0.0420
  520loPI   C4A 8314  11.065  17.367   8.777 -0.1309 -0.2855 -0.1401
  520loPI   C5A 8315  11.225  17.541   8.437 -0.1258  0.0808  0.0075
  520loPI   C6A 8316  11.649  17.422   8.441 -0.1969  0.1406 -0.1917
  520loPI   C1B 8317  11.443  17.922   9.900  0.1006 -0.1427 -0.0547
  520loPI   C2B 8318  11.519  18.068   9.526 -0.0187 -0.2267  0.2693
  520loPI   C3B 8319  11.384  17.993   9.126 -0.2052  0.3437  0.3117
  520loPI   C4B 8320  11.371  17.773   8.843  0.1679 -0.3090  0.0481
  521loPI    C1 8321  16.618  10.689  11.121 -0.0613  0.0829  0.0633
  521loPI    C2 8322  16.334  10.708  10.840  0.0031  0.0897 -0.0015
  521loPI    C3 8323  16.241  10.587  11.209 -0.0885  0.1140 -0.0163
  521loPI   PO4 8324  16.852  10.654  10.920 -0.2439 -0.0531  0.1667
  521loPI   GL1 8325  16.870  10.418  10.583 -0.0400  0.0674 -0.1955
  521loPI   GL2 8326  17.109  10.503  10.413 -0.0895 -0.1905 -0.4109
  521loPI   C1A 8327  16.552  10.657  10.212  0.2793 -0.1569  0.0785
  521loPI   C2A 8328  16.523  10.635   9.788  0.1028 -0.1428 -0.3786
  521loPI   C3A 8329  16.517  10.680   9.297 -0.2859 -0.1641 -0.1998
  521loPI   C4A 8330  16.645  10.701   8.914 -0.1991  0.0695  0.1283
  521loPI   C5A 8331  16.435  10.825   8.552  0.2237 -0.0793 -0.0873
  521loPI   C6A 8332  16.241  10.704   8.170 -0.0611  0.0700  0.3177
  521loPI   C1B 8333  17.039  10.523  10.028  0.1399  0.1057  0.0402
  521loPI   C2B 8334  16.935  10.512   9.546  0.2262 -0.2153  0.1076
  521loPI   C3B 8335  17.085  10.509   9.078 -0.3593 -0.1982 -0.1446
  521loPI   C4B 8336  17.036  10.522   8.597 -0.0552 -0.1959  0.0579
  522loPI    C1 8337  13.013  16.703  11.257 -0.1838  0.0143 -0.0200
  522loPI    C2 8338  12.625  16.615  11.298 -0.1612  0.0017  0.1793
  522loPI    C3 8339  12.851  16.675  11.622 -0.0087  0.0641  0.0625
  522loPI   PO4 8340  12.970  16.860  11.064  0.1224 -0.1092  0.5138
  522loPI   GL1 8341  13.171  17.076  10.708  0.0735 -0.0168 -0.0661
  522loPI   GL2 8342  12.942  17.265  10.702  0.1436 -0.2680 -0.1196
  522loPI   C1A 8343  13.407  17.183  10.317 -0.1635  0.0317 -0.1135
  522loPI   C2A 8344  13.296  17.119   9.944  0.2462 -0.3047  0.1210
  522loPI   C3A 8345  13.349  17.172   9.534 -0.2220  0.1265  0.2071
  522loPI   C4A 8346  13.287  17.184   9.153  0.2248 -0.0114  0.0457
  522loPI   C5A 8347  13.279  17.154   8.697  0.1222  0.0975 -0.2078
  522loPI   C6A 8348  13.501  17.197   8.298 -0.0456 -0.0615 -0.0601
  522loPI   C1B 8349  12.934  17.345  10.303  0.1780  0.2144  0.2165
  522loPI   C2B 8350  12.838  17.361   9.776  0.1594 -0.0335 -0.3161
  522loPI   C3B 8351  12.772  17.431   9.337 -0.1373 -0.0812 -0.0203
  522loPI   C4B 8352  12.812  17.404   8.913 -0.3696  0.4598  0.1758
  523loPI    C1 8353   9.147   4.740  11.197  0.1027 -0.0211 -0.0247
  523loPI    C2 8354   8.897   4.487  11.379 -0.0791  0.0986 -0.1054
  523loPI    C3 8355   8.941   4.858  11.519 -0.0360  0.1148 -0.1616
  523loPI   PO4 8356   9.045   4.759  10.893  0.2763 -0.0697 -0.3601
  523loPI   GL1 8357   9.214   4.727  10.534 -0.0590 -0.1340 -0.1607
  523loPI   GL2 8358   9.230   4.461  10.538  0.1058  0.0497 -0.1427
  523loPI   C1A 8359   9.216   4.578  10.009  0.1973  0.0905 -0.1767
  523loPI   C2A 8360   9.192   4.458   9.501  0.0570  0.0887 -0.4812
  523loPI   C3A 8361   9.170   4.518   8.992 -0.0220 -0.1723 -0.0836
  523loPI   C4A 8362   9.174   4.457   8.619 -0.0263 -0.0824 -0.1393
  523loPI   C5A 8363   8.956   4.479   8.204 -0.2450  0.0770 -0.1271
  523loPI   C6A 8364   8.620   4.745   8.002 -0.0339  0.1066 -0.0475
  523loPI   C1B 8365   8.867   4.130  10.228 -0.3695 -0.1391 -0.0692
  523loPI   C2B 8366   8.862   4.203   9.820  0.0017 -0.2447 -0.2329
  523loPI   C3B 8367   8.778   4.203   9.431 -0.4146 -0.3691  0.0732
  523loPI   C4B 8368   8.764   4.152   9.106  0.1176  0.0500 -0.2528
  524loPI    C1 8369   2.214   8.420  11.130  0.0647 -0.0131 -0.2047
  524loPI    C2 8370   2.140   8.133  11.400  0.2663 -0.0210 -0.1558
  524loPI    C3 8371   2.199   8.510  11.520 -0.0536  0.0537 -0.2245
  524loPI   PO4 8372   2.034   8.399  10.965  0.0916  0.0681 -0.1251
  524loPI   GL1 8373   1.966   8.156  10.655  0.2691 -0.2496 -0.0796
  524loPI   GL2 8374   2.350   8.116  10.581 -0.0627 -0.2325 -0.1070
  524loPI   C1A 8375   2.007   8.210  10.254 -0.1014  0.1385  0.1744
  524loPI   C2A 8376   2.152   8.187   9.850  0.0422  0.2149  0.2205
  524loPI   C3A 8377   2.104   8.204   9.437 -0.1947  0.1813  0.4443
  524loPI   C4A 8378   2.115   8.064   8.983 -0.0219 -0.1611 -0.3316
  524loPI   C5A 8379   2.201   8.140   8.509 -0.2546  0.0402 -0.1908
  524loPI   C6A 8380   2.586   7.932   8.258  0.0800  0.3210 -0.2086
  524loPI   C1B 8381   2.553   8.022  10.120 -0.0660  0.0914  0.2250
  524loPI   C2B 8382   2.540   8.008   9.667  0.1362 -0.0213 -0.0625
  524loPI   C3B 8383   2.498   7.910   9.318 -0.0318 -0.1630 -0.1188
  524loPI   C4B 8384   2.637   7.928   8.930 -0.2548 -0.1332  0.0024
  525loPI    C1 8385   1.805   6.288  11.177 -0.0046 -0.2456  0.1106
  525loPI    C2 8386   1.842   5.940  10.982 -0.3141 -0.2995  0.1433
  525loPI    C3 8387   1.839   5.946  11.382  0.1385 -0.2082  0.1506
  525loPI   PO4 8388   1.631   6.398  11.006 -0.0549  0.0471  0.0341
  525loPI   GL1 8389   1.381   6.305  10.610  0.1364  0.1691 -0.2789
  525loPI   GL2 8390   1.404   6.571  10.444 -0.1533 -0.0320 -0.0109
  525loPI   C1A 8391   1.565   6.079  10.263  0.1394  0.0557  0.2886
  525loPI   C2A 8392   1.416   6.004   9.790  0.0215 -0.1836  0.0122
  525loPI   C3A 8393   1.385   6.042   9.296 -0.2883  0.0327 -0.0382
  525loPI   C4A 8394   1.314   6.016   8.899  0.0488  0.1585 -0.0386
  525loPI   C5A 8395   1.545   6.104   8.499  0.1928 -0.1211  0.0129
  525loPI   C6A 8396   1.347   6.212   8.161 -0.3044 -0.0344  0.0138
  525loPI   C1B 8397   1.401   6.522   9.924 -0.0658  0.1465 -0.4574
  525loPI   C2B 8398   1.332   6.525   9.421  0.0937 -0.0873  0.1901
  525loPI   C3B 8399   1.333   6.576   8.968  0.0747 -0.2323  0.0482
  525loPI   C4B 8400   1.363   6.611   8.545 -0.0761  0.1191  0.1146
  526loPI    C1 8401   4.057   9.205  11.269 -0.0790 -0.0554 -0.0229
  526loPI    C2 8402   3.802   8.942  11.429  0.0172 -0.1051  0.0497
  526loPI    C3 8403   3.849   9.303  11.596 -0.1518 -0.0223 -0.0788
  526loPI   PO4 8404   3.946   9.221  10.966  0.0077 -0.2157 -0.3012
  526loPI   GL1 8405   3.866   9.348  10.561  0.0402  0.1700  0.1291
  526loPI   GL2 8406   4.266   9.387  10.583  0.2615 -0.1092 -0.1606
  526loPI   C1A 8407   3.763   9.401  10.135 -0.3843  0.1759 -0.1643
  526loPI   C2A 8408   3.744   9.432   9.603  0.1881  0.1738  0.2951
  526loPI   C3A 8409   3.799   9.293   9.239  0.0229  0.0284 -0.0325
  526loPI   C4A 8410   3.847   9.326   8.891 -0.0154  0.2149 -0.1580
  526loPI   C5A 8411   3.914   9.308   8.438  0.1689 -0.2964 -0.3041
  526loPI   C6A 8412   4.158   9.375   8.024  0.0491  0.0017 -0.1274
  526loPI   C1B 8413   4.240   9.197  10.104 -0.0523  0.3399  0.1562
  526loPI   C2B 8414   4.284   9.109   9.657  0.1668  0.0773  0.0739
  526loPI   C3B 8415   4.302   9.107   9.245 -0.2849  0.1788 -0.1403
  526loPI   C4B 8416   4.267   9.118   8.879 -0.2536  0.0008 -0.1642
  527loPI    C1 8417   8.767   5.763  11.092 -0.0607  0.2293 -0.0432
  527loPI    C2 8418   8.926   5.713  11.455 -0.0126 -0.0234 -0.0967
  527loPI    C3 8419   9.103   5.955  11.191 -0.0209  0.1228  0.0298
  527loPI   PO4 8420   8.751   5.642  10.921 -0.0493 -0.1064 -0.0540
  527loPI   GL1 8421   8.862   5.688  10.467 -0.0149  0.0450 -0.0907
  527loPI   GL2 8422   8.630   5.909  10.511 -0.0922 -0.0009 -0.1234
  527loPI   C1A 8423   8.920   5.573   9.996  0.3322  0.0247  0.0429
  527loPI   C2A 8424   9.020   5.538   9.591 -0.1729 -0.3331 -0.3246
  527loPI   C3A 8425   9.064   5.454   9.154 -0.0287 -0.1469 -0.1540
  527loPI   C4A 8426   9.119   5.502   8.654  0.2447 -0.1327 -0.0091
  527loPI   C5A 8427   8.947   5.560   8.205 -0.2413  0.1558 -0.1585
  527loPI   C6A 8428   8.632   5.274   7.910 -0.1597 -0.1370  0.0400
  527loPI   C1B 8429   8.494   5.769  10.132 -0.4110 -0.2172 -0.1701
  527loPI   C2B 8430   8.546   5.770   9.702  0.2722  0.0762 -0.2614
  527loPI   C3B 8431   8.537   5.701   9.194  0.0592 -0.0489 -0.2982
  527loPI   C4B 8432   8.604   5.676   8.714  0.2030  0.2927 -0.1757
  528loPI    C1 8433  16.811   7.449  10.928  0.1424 -0.1095  0.0272
  528loPI    C2 8434  16.923   7.359  11.301 -0.1304 -0.1274  0.1065
  528loPI    C3 8435  16.639   7.634  11.238 -0.3678 -0.4061 -0.0674
  528loPI   PO4 8436  17.031   7.368  10.773  0.0128 -0.0508  0.1152
  528loPI   GL1 8437  17.255   7.112  10.597 -0.2028  0.2778  0.1602
  528loPI   GL2 8438  17.261   7.388  10.306  0.0448 -0.2166  0.0104
  528loPI   C1A 8439  17.346   6.897  10.084 -0.1854 -0.0844 -0.2205
  528loPI   C2A 8440  17.444   6.822   9.610  0.0309  0.0766  0.2800
  528loPI   C3A 8441  17.388   6.861   9.134 -0.0782  0.1616  0.1987
  528loPI   C4A 8442  17.345   6.861   8.686 -0.0701 -0.1929 -0.0750
  528loPI   C5A 8443  17.335   6.444   8.438 -0.0988 -0.2165 -0.1723
  528loPI   C6A 8444  17.073   6.117   8.245  0.1147 -0.2755  0.1695
  528loPI   C1B 8445  17.299   7.393   9.969  0.0380 -0.1924  0.1852
  528loPI   C2B 8446  17.250   7.358   9.490  0.0034  0.0886 -0.0441
  528loPI   C3B 8447  17.379   7.464   9.089  0.1783  0.3858 -0.1702
  528loPI   C4B 8448  17.236   7.430   8.689 -0.0630  0.1091  0.1635
  529loPI    C1 8449  17.366   0.494  11.403  0.0201  0.0292  0.0237
  529loPI    C2 8450  17.013   0.547  11.583  0.0549  0.1371  0.0610
  529loPI    C3 8451  17.338   0.465  11.801  0.0586  0.0680  0.0295
  529loPI   PO4 8452  17.422   0.686  11.287  0.0465 -0.1659  0.4136
  529loPI   GL1 8453  17.382   0.674  10.762  0.2239  0.5743  0.2840
  529loPI   GL2 8454  17.608   0.960  10.874  0.4936 -0.1005 -0.2524
  529loPI   C1A 8455  17.367   0.577  10.396  0.2060  0.0572  0.1580
  529loPI   C2A 8456  17.464   0.637   9.961  0.0837 -0.2444 -0.0962
  529loPI   C3A 8457  17.627   0.734   9.569  0.1495 -0.0230 -0.0256
  529loPI   C4A 8458  17.648   0.803   8.989 -0.0647  0.0589 -0.0702
  529loPI   C5A 8459  17.689   1.165   8.653 -0.2174  0.1603 -0.1829
  529loPI   C6A 8460  17.398   1.481   8.718  0.0451  0.3124  0.3094
  529loPI   C1B 8461  17.610   1.020  10.478 -0.0756 -0.1170  0.1077
  529loPI   C2B 8462  17.584   1.316  10.184 -0.0984  0.0502  0.2181
  529loPI   C3B 8463  17.614   1.287   9.750  0.0142 -0.0539  0.1608
  529loPI   C4B 8464  17.448   1.369   9.300  0.0609 -0.1867 -0.1656
  530loPI    C1 8465  12.208   7.871  11.106 -0.1360 -0.0346  0.0556
  530loPI    C2 8466  12.120   8.261  11.086  0.0443  0.0066  0.0460
  530loPI    C3 8467  12.405   8.133  11.335 -0.0254 -0.1218  0.0607
  530loPI   PO4 8468  12.148   7.791  10.819  0.0004  0.0856  0.2276
  530loPI   GL1 8469  12.174   7.809  10.447  0.1592  0.1052  0.2792
  530loPI   GL2 8470  11.904   7.744  10.270 -0.1210 -0.1921 -0.2510
  530loPI   C1A 8471  12.494   7.626   9.952  0.0011  0.0068 -0.0041
  530loPI   C2A 8472  12.494   7.676   9.532 -0.1465 -0.3363 -0.0284
  530loPI   C3A 8473  12.396   7.681   9.091  0.2474 -0.0798  0.0107
  530loPI   C4A 8474  12.277   7.672   8.716 -0.0299  0.0355  0.0568
  530loPI   C5A 8475  12.133   7.897   8.273  0.3412  0.0229 -0.0827
  530loPI   C6A 8476  12.079   8.023   7.893 -0.3346  0.1873  0.1606
  530loPI   C1B 8477  12.023   7.471   9.942 -0.1341  0.0092 -0.3980
  530loPI   C2B 8478  11.996   7.510   9.419 -0.1677  0.2796 -0.0688
  530loPI   C3B 8479  11.877   7.579   9.054 -0.2205  0.1617 -0.2637
  530loPI   C4B 8480  11.851   7.965   8.843 -0.5610  0.1464  0.2556
  531loPI    C1 8481  15.915  14.537  11.423 -0.2775  0.1115  0.2648
  531loPI    C2 8482  16.205  14.505  11.697  0.0005  0.1234 -0.0219
  531loPI    C3 8483  15.855  14.320  11.753  0.1194 -0.0238  0.2538
  531loPI   PO4 8484  16.037  14.526  11.207 -0.0846 -0.1834 -0.3286
  531loPI   GL1 8485  16.057  14.679  10.894 -0.2055 -0.2780 -0.0471
  531loPI   GL2 8486  15.746  14.471  10.770  0.2191  0.1292 -0.2072
  531loPI   C1A 8487  16.193  14.851  10.486 -0.0869  0.0348  0.1594
  531loPI   C2A 8488  16.161  14.802  10.080  0.3145 -0.0117 -0.0303
  531loPI   C3A 8489  16.115  14.750   9.648 -0.1936  0.0536 -0.0606
  531loPI   C4A 8490  16.128  14.787   9.287 -0.1137  0.1444 -0.0037
  531loPI   C5A 8491  16.070  14.837   8.805 -0.3723 -0.1297  0.0695
  531loPI   C6A 8492  16.498  15.056   8.438 -0.1685 -0.1713  0.1357
  531loPI   C1B 8493  15.735  14.619  10.319  0.0975 -0.1200 -0.2037
  531loPI   C2B 8494  15.791  14.451   9.877 -0.2525 -0.0395  0.1084
  531loPI   C3B 8495  15.745  14.464   9.355  0.1442  0.0743 -0.4220
  531loPI   C4B 8496  15.675  14.482   8.963 -0.1685 -0.0752 -0.0099
  532loPI    C1 8497  16.310   4.275  11.164 -0.0192  0.0298 -0.0385
  532loPI    C2 8498  16.259   4.245  11.559  0.1046  0.1294 -0.0143
  532loPI    C3 8499  15.945   4.310  11.321  0.0113 -0.0622  0.0545
  532loPI   PO4 8500  16.525   3.993  11.117  0.1763  0.0305  0.1214
  532loPI   GL1 8501  16.707   3.781  10.788  0.1177 -0.2359  0.1701
  532loPI   GL2 8502  16.464   3.841  10.656 -0.0883  0.2369  0.2601
  532loPI   C1A 8503  16.790   4.118  10.403 -0.0917  0.1463 -0.2174
  532loPI   C2A 8504  16.873   4.187  10.030  0.1533 -0.2363  0.2250
  532loPI   C3A 8505  16.694   4.209   9.626 -0.0962  0.1700  0.0375
  532loPI   C4A 8506  16.807   4.213   9.168 -0.2966  0.0776 -0.2356
  532loPI   C5A 8507  16.666   4.137   8.895 -0.0135 -0.0837 -0.0537
  532loPI   C6A 8508  16.681   4.246   8.410  0.0967  0.0101 -0.3011
  532loPI   C1B 8509  16.415   3.830  10.201 -0.0689  0.3950 -0.0837
  532loPI   C2B 8510  16.257   3.901   9.786  0.0058 -0.0585  0.1460
  532loPI   C3B 8511  16.397   3.922   9.355  0.0321  0.0757  0.0873
  532loPI   C4B 8512  16.270   3.821   9.021  0.2086 -0.0628  0.0385
  533loPI    C1 8513   6.022   4.919  11.383 -0.0668  0.1327 -0.3057
  533loPI    C2 8514   5.960   4.591  11.604  0.2791  0.1398 -0.1925
  533loPI    C3 8515   6.195   4.884  11.742 -0.1501  0.5096 -0.2254
  533loPI   PO4 8516   6.120   4.813  11.205  0.2216 -0.0243  0.2946
  533loPI   GL1 8517   6.252   4.757  10.866  0.0168 -0.2088  0.1384
  533loPI   GL2 8518   6.251   4.983  10.664 -0.0363  0.0546 -0.0190
  533loPI   C1A 8519   6.162   4.452  10.559 -0.1825  0.1220  0.1467
  533loPI   C2A 8520   6.062   4.394  10.151 -0.3441 -0.0860 -0.0309
  533loPI   C3A 8521   6.051   4.412   9.691  0.2226  0.1512  0.3112
  533loPI   C4A 8522   6.136   4.422   9.308  0.0294  0.2469  0.2394
  533loPI   C5A 8523   6.216   4.566   8.763  0.1151 -0.2018 -0.0017
  533loPI   C6A 8524   6.044   4.578   8.368 -0.0028  0.1165  0.1022
  533loPI   C1B 8525   5.998   4.872  10.359 -0.4915 -0.3842  0.1116
  533loPI   C2B 8526   5.973   4.894  10.016 -0.1639 -0.0747  0.1374
  533loPI   C3B 8527   6.007   4.956   9.570 -0.1675  0.0208 -0.1746
  533loPI   C4B 8528   5.955   4.862   9.170  0.1628 -0.2192  0.1013
  534loPI    C1 8529   6.472   5.643  11.111 -0.1361  0.0305 -0.1444
  534loPI    C2 8530   6.168   5.806  10.909 -0.3367  0.1007  0.2059
  534loPI    C3 8531   6.374   6.026  11.173 -0.0913  0.0043  0.0979
  534loPI   PO4 8532   6.668   5.516  10.916 -0.2306 -0.3477 -0.0694
  534loPI   GL1 8533   6.461   5.410  10.603  0.2291 -0.1200 -0.0497
  534loPI   GL2 8534   6.448   5.718  10.518  0.1503  0.1223 -0.0881
  534loPI   C1A 8535   6.554   5.267  10.248  0.2027  0.1305 -0.1486
  534loPI   C2A 8536   6.375   5.191   9.869  0.2472 -0.1164 -0.0333
  534loPI   C3A 8537   6.431   5.124   9.391  0.2047  0.0245 -0.1939
  534loPI   C4A 8538   6.381   5.151   9.035 -0.1602 -0.2670  0.3294
  534loPI   C5A 8539   6.360   5.086   8.700  0.0429 -0.2085 -0.0606
  534loPI   C6A 8540   6.579   5.269   8.398  0.0620 -0.2533 -0.2623
  534loPI   C1B 8541   6.429   5.665  10.025 -0.2344  0.1286 -0.0306
  534loPI   C2B 8542   6.433   5.752   9.609 -0.1248  0.2154 -0.1466
  534loPI   C3B 8543   6.337   5.750   9.230 -0.1533  0.1975  0.0231
  534loPI   C4B 8544   6.287   5.557   8.773  0.0561  0.1356 -0.0205
  535loPI    C1 8545   6.525  16.023  10.729 -0.1889 -0.0494  0.0319
  535loPI    C2 8546   6.425  16.305  10.995 -0.2067  0.1049 -0.1369
  535loPI    C3 8547   6.809  16.251  10.895 -0.1957  0.0184 -0.0489
  535loPI   PO4 8548   6.308  16.115  10.573 -0.3494  0.3522 -0.0050
  535loPI   GL1 8549   6.099  16.361  10.266  0.3183  0.2659  0.0729
  535loPI   GL2 8550   5.826  16.200  10.385  0.0793  0.1808 -0.1224
  535loPI   C1A 8551   5.858  16.445   9.826 -0.1028  0.0029  0.1017
  535loPI   C2A 8552   5.805  16.451   9.376  0.0530 -0.4210 -0.0633
  535loPI   C3A 8553   5.828  16.330   8.909 -0.1063  0.0530  0.1087
  535loPI   C4A 8554   5.894  16.199   8.392  0.0251  0.0045  0.0870
  535loPI   C5A 8555   6.130  16.228   8.045 -0.2267 -0.0501 -0.1537
  535loPI   C6A 8556   6.564  16.280   7.963  0.0708  0.0088 -0.0606
  535loPI   C1B 8557   6.003  15.894  10.025 -0.1467 -0.1021 -0.0138
  535loPI   C2B 8558   6.004  15.907   9.625 -0.1188  0.0417  0.3603
  535loPI   C3B 8559   5.954  15.891   9.212 -0.2146  0.1103  0.0059
  535loPI   C4B 8560   5.927  15.860   8.770 -0.1777 -0.0371  0.0649
  536loPI    C1 8561   7.274  17.781  10.652  0.0815 -0.2458  0.1155
  536loPI    C2 8562   7.329  18.104  10.882 -0.3922 -0.1029  0.0390
  536loPI    C3 8563   7.485  17.752  10.991 -0.1096  0.0888  0.2686
  536loPI   PO4 8564   7.284  17.821  10.453  0.2434 -0.1575 -0.2260
  536loPI   GL1 8565   7.233  17.877  10.150 -0.1192  0.0639 -0.1142
  536loPI   GL2 8566   7.465  18.024   9.978 -0.0655  0.1185 -0.1569
  536loPI   C1A 8567   6.965  17.949   9.823 -0.1226 -0.1214 -0.1812
  536loPI   C2A 8568   6.949  17.912   9.395  0.1274  0.0499 -0.2713
  536loPI   C3A 8569   6.900  17.880   8.951 -0.1991  0.1191  0.0657
  536loPI   C4A 8570   7.009  17.943   8.483  0.1168  0.0542 -0.1136
  536loPI   C5A 8571   7.347  17.784   8.124 -0.1333 -0.0058 -0.0946
  536loPI   C6A 8572   7.671  17.566   8.142  0.1210  0.0730  0.1337
  536loPI   C1B 8573   7.385  18.178   9.605  0.3177 -0.2163  0.1121
  536loPI   C2B 8574   7.321  18.197   9.116 -0.1768 -0.3012 -0.0576
  536loPI   C3B 8575   7.329  18.227   8.675  0.1704 -0.2897  0.3791
  536loPI   C4B 8576   7.369  18.234   8.263  0.0856 -0.1026 -0.1833
  537loPI    C1 8577  13.716  10.315  10.929  0.3439  0.1333  0.0612
  537loPI    C2 8578  14.017  10.151  11.136  0.2093 -0.2041 -0.0049
  537loPI    C3 8579  13.652   9.988  11.149  0.0580  0.1243 -0.0319
  537loPI   PO4 8580  13.818  10.372  10.718  0.2732 -0.4032 -0.0192
  537loPI   GL1 8581  13.589  10.358  10.368 -0.1386 -0.0022 -0.1627
  537loPI   GL2 8582  13.820  10.584  10.265  0.0312 -0.0791 -0.3389
  537loPI   C1A 8583  13.719  10.053  10.023  0.0208 -0.0368  0.0992
  537loPI   C2A 8584  13.797   9.933   9.659  0.1161 -0.0995 -0.0994
  537loPI   C3A 8585  13.841   9.920   9.265 -0.0230 -0.0017  0.0783
  537loPI   C4A 8586  13.846   9.870   8.904 -0.0918 -0.1083 -0.3367
  537loPI   C5A 8587  14.027   9.696   8.601  0.3128  0.0561  0.0474
  537loPI   C6A 8588  14.029   9.907   8.274 -0.0358  0.2342 -0.1643
  537loPI   C1B 8589  13.730  10.472   9.832  0.1536  0.0481  0.1601
  537loPI   C2B 8590  13.807  10.456   9.414 -0.0655 -0.1782  0.1066
  537loPI   C3B 8591  13.833  10.383   8.978  0.1842 -0.0460 -0.0003
  537loPI   C4B 8592  13.778  10.187   8.570  0.1429  0.0569 -0.0118
  538loPI    C1 8593  14.539   5.823  11.292 -0.1872 -0.0825  0.0156
  538loPI    C2 8594  14.514   5.434  11.380  0.0898 -0.1109 -0.0230
  538loPI    C3 8595  14.317   5.702  11.602 -0.0740 -0.2695  0.0252
  538loPI   PO4 8596  14.542   5.740  10.985  0.0594  0.1689 -0.1732
  538loPI   GL1 8597  14.360   5.744  10.597  0.1172 -0.1295 -0.0261
  538loPI   GL2 8598  14.480   5.447  10.510 -0.1842 -0.3542 -0.1733
  538loPI   C1A 8599  14.368   5.840  10.158  0.5267 -0.3008  0.1152
  538loPI   C2A 8600  14.455   5.690   9.794 -0.0139 -0.1970  0.0168
  538loPI   C3A 8601  14.474   5.615   9.382 -0.0998 -0.1441  0.1841
  538loPI   C4A 8602  14.363   5.783   9.046  0.3167  0.1335  0.2371
  538loPI   C5A 8603  14.381   5.802   8.638 -0.1381 -0.1129  0.3208
  538loPI   C6A 8604  14.432   5.650   8.232  0.0688 -0.2335 -0.0387
  538loPI   C1B 8605  14.376   5.351  10.122  0.1519  0.2978  0.1347
  538loPI   C2B 8606  14.457   5.186   9.705  0.0410  0.0555  0.0512
  538loPI   C3B 8607  14.376   5.130   9.262  0.1687  0.0824  0.0466
  538loPI   C4B 8608  14.477   5.214   8.884 -0.0029  0.2600  0.1618
  539loPI    C1 8609  13.248   9.694  11.137 -0.0779 -0.4470  0.4145
  539loPI    C2 8610  12.902   9.820  11.295  0.0432  0.0786  0.2811
  539loPI    C3 8611  13.244   9.869  11.497  0.0942 -0.0393  0.2246
  539loPI   PO4 8612  13.141   9.743  10.834 -0.2317  0.1608 -0.4636
  539loPI   GL1 8613  13.011   9.895  10.445 -0.4828 -0.0105 -0.0103
  539loPI   GL2 8614  13.309   9.865  10.233 -0.0686 -0.1379 -0.1892
  539loPI   C1A 8615  12.751   9.824  10.049 -0.3863  0.1122  0.3681
  539loPI   C2A 8616  12.895   9.750   9.641  0.4970  0.0003 -0.1105
  539loPI   C3A 8617  12.896   9.760   9.237  0.0396  0.1393 -0.1669
  539loPI   C4A 8618  12.783   9.794   8.782  0.0324 -0.2227 -0.1072
  539loPI   C5A 8619  13.131   9.654   8.480  0.2784 -0.2735  0.0025
  539loPI   C6A 8620  13.417   9.873   8.238 -0.2662 -0.1056 -0.0465
  539loPI   C1B 8621  13.410   9.663   9.840  0.1271  0.5583  0.1223
  539loPI   C2B 8622  13.419   9.592   9.372 -0.1728  0.0035 -0.1922
  539loPI   C3B 8623  13.391   9.582   8.935 -0.0841 -0.0244 -0.2205
  539loPI   C4B 8624  13.583   9.476   8.561  0.0413 -0.1761 -0.0889
  540loPI    C1 8625  10.574   2.560  11.135 -0.0338 -0.2252 -0.0315
  540loPI    C2 8626  10.230   2.402  11.006 -0.1620  0.1378 -0.1440
  540loPI    C3 8627  10.249   2.574  11.367 -0.1220  0.1929 -0.1722
  540loPI   PO4 8628  10.713   2.750  10.900 -0.0800  0.2545 -0.0631
  540loPI   GL1 8629  10.779   2.947  10.439  0.0431  0.4528 -0.0521
  540loPI   GL2 8630  10.484   3.132  10.397 -0.1633  0.3395 -0.0909
  540loPI   C1A 8631  10.747   3.017   9.992 -0.1562 -0.0996  0.2197
  540loPI   C2A 8632  10.789   2.933   9.569 -0.1485 -0.2376 -0.2376
  540loPI   C3A 8633  10.759   2.853   9.225  0.0500  0.1828 -0.1907
  540loPI   C4A 8634  10.686   2.878   8.837 -0.0363 -0.0151  0.1183
  540loPI   C5A 8635  10.509   2.696   8.533 -0.1958  0.0599  0.0853
  540loPI   C6A 8636  10.112   2.747   8.458  0.1581  0.0375  0.2212
  540loPI   C1B 8637  10.231   3.102  10.093 -0.0737  0.0128  0.0135
  540loPI   C2B 8638  10.295   3.112   9.640  0.3251 -0.1131  0.3367
  540loPI   C3B 8639  10.212   2.998   9.225 -0.2578  0.0478 -0.0324
  540loPI   C4B 8640  10.265   3.051   8.858  0.0901  0.0726 -0.0680
  541loPI    C1 8641   7.572  12.507  10.846  0.0329  0.0408 -0.0992
  541loPI    C2 8642   7.345  12.199  10.963  0.2587 -0.0656  0.0653
  541loPI    C3 8643   7.528  12.427  11.236  0.0424  0.2558 -0.0531
  541loPI   PO4 8644   7.453  12.474  10.575 -0.4029 -0.1486  0.0650
  541loPI   GL1 8645   7.459  12.350  10.215 -0.2890 -0.0556  0.0857
  541loPI   GL2 8646   7.726  12.525  10.169 -0.0464 -0.2946  0.3226
  541loPI   C1A 8647   7.250  12.361   9.865 -0.2833  0.0240  0.0881
  541loPI   C2A 8648   7.155  12.340   9.468 -0.1631 -0.1166  0.1109
  541loPI   C3A 8649   7.276  12.339   8.999  0.1407  0.0658 -0.1576
  541loPI   C4A 8650   7.242  12.196   8.543 -0.0212 -0.1908  0.0018
  541loPI   C5A 8651   7.363  12.328   8.082 -0.1505  0.2005 -0.2909
  541loPI   C6A 8652   7.451  12.200   7.655  0.3871  0.1859 -0.4484
  541loPI   C1B 8653   7.667  12.643   9.812  0.0700 -0.2236  0.2665
  541loPI   C2B 8654   7.638  12.562   9.378  0.1622  0.0947  0.0904
  541loPI   C3B 8655   7.666  12.679   9.033  0.0735 -0.1544  0.1723
  541loPI   C4B 8656   7.715  12.720   8.569 -0.1167  0.0787 -0.2496
  542loPI    C1 8657   2.766   2.295  11.433 -0.1189 -0.1594 -0.0218
  542loPI    C2 8658   2.887   1.924  11.522  0.1465 -0.0617  0.0354
  542loPI    C3 8659   2.977   2.228  11.766 -0.0631  0.0431 -0.0148
  542loPI   PO4 8660   2.817   2.312  11.212  0.0178  0.0601 -0.0230
  542loPI   GL1 8661   2.903   2.335  10.828 -0.0094 -0.3465  0.2324
  542loPI   GL2 8662   3.119   2.159  10.665  0.2696  0.3793 -0.0029
  542loPI   C1A 8663   2.764   2.370  10.384  0.1523 -0.0173  0.2693
  542loPI   C2A 8664   2.700   2.428   9.999  0.0284 -0.3277 -0.1510
  542loPI   C3A 8665   2.701   2.491   9.571 -0.0784  0.1535  0.0539
  542loPI   C4A 8666   2.691   2.530   9.169  0.1969  0.2770 -0.0604
  542loPI   C5A 8667   2.688   2.449   8.758 -0.0440  0.2884 -0.0475
  542loPI   C6A 8668   2.708   2.233   8.304 -0.2064  0.1559 -0.1338
  542loPI   C1B 8669   3.175   2.241  10.250 -0.1826  0.1907  0.2015
  542loPI   C2B 8670   3.193   2.261   9.791 -0.2026 -0.4212 -0.2489
  542loPI   C3B 8671   3.206   2.277   9.344  0.0685  0.0812  0.0696
  542loPI   C4B 8672   3.070   2.227   8.983 -0.3267 -0.2441  0.0687
  543loPI    C1 8673  17.632   6.326  11.076  0.2404 -0.3149 -0.0003
  543loPI    C2 8674  17.390   6.248  11.385  0.0897 -0.3180 -0.1180
  543loPI    C3 8675  17.771   6.351  11.450  0.0060 -0.1249  0.0766
  543loPI   PO4 8676  17.587   6.259  10.832 -0.1754 -0.3106  0.2519
  543loPI   GL1 8677  17.840   6.304  10.431  0.2277  0.1631 -0.0329
  543loPI   GL2 8678  17.866   6.668  10.309 -0.0713  0.2170 -0.2813
  543loPI   C1A 8679  17.940   6.172  10.100 -0.1753 -0.1151  0.0615
  543loPI   C2A 8680  17.886   6.123   9.660 -0.0994  0.0979 -0.1183
  543loPI   C3A 8681  17.873   6.198   9.225  0.0141  0.1569 -0.1466
  543loPI   C4A 8682  17.862   6.152   8.861  0.1258  0.0377  0.3887
  543loPI   C5A 8683  17.716   6.128   8.416 -0.0859  0.0131  0.0665
  543loPI   C6A 8684  17.966   6.352   8.086 -0.1028 -0.1360 -0.0488
  543loPI   C1B 8685  17.868   6.680   9.840 -0.0223  0.3164 -0.0066
  543loPI   C2B 8686  17.858   6.627   9.433  0.1850 -0.0524  0.0107
  543loPI   C3B 8687  17.793   6.662   8.941 -0.1599 -0.4329 -0.1629
  543loPI   C4B 8688  17.779   6.617   8.499  0.0513  0.0914  0.1101
  544loPI    C1 8689   7.739   5.622  11.044 -0.2539 -0.2733  0.1699
  544loPI    C2 8690   8.004   5.631  11.344 -0.0975 -0.0378  0.0272
  544loPI    C3 8691   7.614   5.680  11.420 -0.0687 -0.0729  0.2020
  544loPI   PO4 8692   7.820   5.412  10.828 -0.1145  0.0363 -0.0252
  544loPI   GL1 8693   8.021   5.400  10.445  0.0290 -0.0330 -0.0769
  544loPI   GL2 8694   7.896   5.114  10.250 -0.2049 -0.2363 -0.1272
  544loPI   C1A 8695   8.175   5.419  10.043  0.1638  0.0441 -0.0791
  544loPI   C2A 8696   8.153   5.409   9.634  0.1239  0.0743  0.0132
  544loPI   C3A 8697   8.160   5.376   9.170  0.0158  0.4149 -0.1445
  544loPI   C4A 8698   8.189   5.347   8.748 -0.4180  0.0374  0.0354
  544loPI   C5A 8699   8.122   5.310   8.337 -0.0725 -0.0571 -0.2292
  544loPI   C6A 8700   8.066   4.831   8.167  0.0151  0.1753 -0.0591
  544loPI   C1B 8701   7.797   5.132   9.853 -0.1611  0.1672  0.1441
  544loPI   C2B 8702   7.772   5.132   9.393 -0.1982 -0.1726 -0.3056
  544loPI   C3B 8703   7.786   5.059   9.051 -0.0649  0.2301  0.2480
  544loPI   C4B 8704   7.811   4.990   8.608  0.1712 -0.1275  0.1257
  545loPI    C1 8705   1.811  10.643  11.109 -0.2353  0.1600 -0.1408
  545loPI    C2 8706   2.130  10.530  11.322 -0.0851  0.2571 -0.3115
  545loPI    C3 8707   1.815  10.694  11.506 -0.1210 -0.0217 -0.1176
  545loPI   PO4 8708   1.943  10.805  10.904 -0.0420 -0.0139 -0.3691
  545loPI   GL1 8709   2.105  10.812  10.511 -0.0562  0.0007  0.0931
  545loPI   GL2 8710   2.286  10.661  10.347  0.2924 -0.1341 -0.0069
  545loPI   C1A 8711   1.798  10.756  10.113 -0.0803  0.0936 -0.0076
  545loPI   C2A 8712   1.820  10.816   9.678  0.1621  0.2348  0.1054
  545loPI   C3A 8713   1.862  10.739   9.242 -0.0492  0.0585 -0.0876
  545loPI   C4A 8714   1.986  10.733   8.879  0.1295  0.2643  0.2152
  545loPI   C5A 8715   2.007  10.706   8.463 -0.3651 -0.1117  0.0319
  545loPI   C6A 8716   2.325  10.379   8.293  0.4088 -0.0443 -0.1012
  545loPI   C1B 8717   2.355  10.619   9.947  0.3044 -0.4187 -0.1855
  545loPI   C2B 8718   2.227  10.555   9.529  0.0521  0.2489 -0.2919
  545loPI   C3B 8719   2.383  10.494   9.147  0.1010 -0.1109  0.2050
  545loPI   C4B 8720   2.463  10.473   8.732  0.1302 -0.1283  0.0428
  546loPI    C1 8721   4.248   0.534  11.015  0.1604 -0.0095 -0.0158
  546loPI    C2 8722   4.560   0.654  11.234  0.1619  0.1644 -0.1116
  546loPI    C3 8723   4.190   0.771  11.332  0.1647  0.2587 -0.2121
  546loPI   PO4 8724   4.290   0.587  10.817 -0.3974 -0.2360  0.0066
  546loPI   GL1 8725   4.392   0.302  10.383  0.0254  0.1754 -0.0125
  546loPI   GL2 8726   4.601   0.472  10.229 -0.1254 -0.0832  0.1849
  546loPI   C1A 8727   4.223   0.224   9.992  0.2621  0.2482 -0.1582
  546loPI   C2A 8728   4.321   0.263   9.712 -0.0260  0.2133 -0.2951
  546loPI   C3A 8729   4.260   0.204   9.331 -0.0559  0.0016  0.0269
  546loPI   C4A 8730   4.259   0.271   8.864  0.0460 -0.1204  0.0372
  546loPI   C5A 8731   4.342   0.286   8.508  0.0508 -0.1985  0.0649
  546loPI   C6A 8732   4.454   0.475   8.012 -0.0016  0.0124  0.0280
  546loPI   C1B 8733   4.712   0.527   9.765 -0.1053 -0.0971  0.0847
  546loPI   C2B 8734   4.647   0.499   9.406 -0.0949 -0.0329 -0.1806
  546loPI   C3B 8735   4.680   0.558   9.013 -0.2165  0.0564  0.2404
  546loPI   C4B 8736   4.733   0.554   8.674 -0.1152 -0.2067 -0.0250
  547loPI    C1 8737  15.329  15.939  11.322 -0.3562 -0.0410 -0.2669
  547loPI    C2 8738  15.185  15.653  11.563  0.0793 -0.2036 -0.1906
  547loPI    C3 8739  15.087  16.035  11.626 -0.0352 -0.2740  0.0723
  547loPI   PO4 8740  15.334  15.887  11.092  0.1144  0.0591 -0.2335
  547loPI   GL1 8741  15.617  15.934  10.897 -0.1718 -0.3753  0.3309
  547loPI   GL2 8742  15.728  15.536  10.759 -0.1819  0.0335  0.0459
  547loPI   C1A 8743  15.653  16.083  10.408  0.0789 -0.3357  0.0449
  547loPI   C2A 8744  15.619  16.103  10.028  0.1136  0.2922  0.2987
  547loPI   C3A 8745  15.548  16.042   9.582 -0.3126 -0.1242  0.0221
  547loPI   C4A 8746  15.675  16.100   9.195 -0.2075  0.0267  0.2975
  547loPI   C5A 8747  15.608  16.137   8.807  0.4358 -0.2146  0.1627
  547loPI   C6A 8748  15.440  15.986   8.481  0.0658 -0.1694  0.3370
  547loPI   C1B 8749  15.704  15.607  10.268  0.1948  0.0951 -0.0607
  547loPI   C2B 8750  15.633  15.522   9.854 -0.0965 -0.1795  0.0461
  547loPI   C3B 8751  15.676  15.559   9.468  0.1414 -0.1384 -0.0050
  547loPI   C4B 8752  15.637  15.610   8.978  0.2250  0.0620 -0.0470
  548loPI    C1 8753   7.332  17.288  10.884 -0.3322 -0.1309  0.2299
  548loPI    C2 8754   7.170  17.258  11.249 -0.1061 -0.2687  0.3207
  548loPI    C3 8755   7.342  16.939  11.079  0.1168 -0.1134  0.2492
  548loPI   PO4 8756   7.223  17.297  10.637  0.0372 -0.0728 -0.0188
  548loPI   GL1 8757   7.124  17.344  10.162 -0.3910 -0.0919 -0.0275
  548loPI   GL2 8758   7.451  17.385  10.191  0.0697  0.1188  0.0577
  548loPI   C1A 8759   7.082  17.435   9.795 -0.0838 -0.1657  0.0988
  548loPI   C2A 8760   7.040  17.432   9.384  0.0743  0.2489  0.2258
  548loPI   C3A 8761   7.105  17.319   8.910  0.0759 -0.2854  0.1179
  548loPI   C4A 8762   7.196  17.258   8.537  0.1594 -0.0396 -0.1905
  548loPI   C5A 8763   7.101  17.092   8.129  0.0159 -0.0689 -0.3141
  548loPI   C6A 8764   6.773  16.822   8.018  0.5158 -0.1233  0.2958
  548loPI   C1B 8765   7.523  17.583   9.797 -0.0363  0.0813  0.3396
  548loPI   C2B 8766   7.461  17.741   9.440 -0.1566  0.0891 -0.0036
  548loPI   C3B 8767   7.360  17.709   9.035 -0.1263 -0.2620  0.0425
  548loPI   C4B 8768   7.424  17.699   8.608  0.2825 -0.1693 -0.1020
  549loPI    C1 8769   1.997   3.210  11.287  0.0833  0.1639  0.0588
  549loPI    C2 8770   1.698   3.355  11.510 -0.1224 -0.0125 -0.0983
  549loPI    C3 8771   2.000   3.593  11.402 -0.2614  0.1971 -0.0305
  549loPI   PO4 8772   1.786   3.097  11.080  0.1196 -0.1787  0.1091
  549loPI   GL1 8773   1.692   3.082  10.768  0.3149  0.0823 -0.0612
  549loPI   GL2 8774   1.648   3.414  10.520 -0.4733  0.4465 -0.1783
  549loPI   C1A 8775   1.766   2.852  10.289 -0.0531  0.0293 -0.1557
  549loPI   C2A 8776   1.755   2.892   9.804 -0.0595  0.1843  0.3447
  549loPI   C3A 8777   1.731   3.000   9.370  0.0393  0.3047  0.0428
  549loPI   C4A 8778   1.777   2.954   8.918  0.0767  0.2967  0.2544
  549loPI   C5A 8779   1.819   2.914   8.496  0.3149  0.3296 -0.1148
  549loPI   C6A 8780   2.236   3.027   8.305  0.1678 -0.1803 -0.1404
  549loPI   C1B 8781   1.731   3.436  10.139 -0.3889  0.4158 -0.0526
  549loPI   C2B 8782   1.685   3.399   9.695  0.4417  0.3183 -0.0230
  549loPI   C3B 8783   1.682   3.525   9.243  0.0208 -0.4013  0.0977
  549loPI   C4B 8784   1.691   3.458   8.822 -0.0462 -0.2998 -0.0990
  550loPI    C1 8785  12.898   3.639  11.147 -0.0360 -0.0022  0.1961
  550loPI    C2 8786  12.624   3.374  11.267  0.1455 -0.1977  0.1861
  550loPI    C3 8787  12.903   3.502  11.523 -0.0242  0.0922  0.2306
  550loPI   PO4 8788  12.919   3.594  10.899  0.3148  0.0008  0.0654
  550loPI   GL1 8789  12.809   3.476  10.543  0.1295 -0.1721  0.0356
  550loPI   GL2 8790  12.759   3.847  10.481 -0.2326  0.0746 -0.0223
  550loPI   C1A 8791  12.815   3.485  10.082 -0.0704  0.1858  0.0834
  550loPI   C2A 8792  12.903   3.442   9.661 -0.0916  0.1640 -0.2730
  550loPI   C3A 8793  12.859   3.445   9.167 -0.0364  0.0132 -0.0588
  550loPI   C4A 8794  12.880   3.413   8.757  0.2185  0.2182 -0.1795
  550loPI   C5A 8795  13.153   3.508   8.484  0.1711  0.1885 -0.0449
  550loPI   C6A 8796  13.420   3.460   8.141  0.2782 -0.1161  0.1263
  550loPI   C1B 8797  12.746   3.954  10.122 -0.0548 -0.1622  0.0978
  550loPI   C2B 8798  12.788   3.954   9.627 -0.1577  0.2011  0.0397
  550loPI   C3B 8799  12.738   4.020   9.237  0.0483  0.0715  0.0972
  550loPI   C4B 8800  12.628   3.915   8.775 -0.1882 -0.1258 -0.0616
  551loPI    C1 8801  10.142   4.453  10.986 -0.0841 -0.0241  0.1114
  551loPI    C2 8802  10.478   4.315  11.153  0.0736  0.0509 -0.1389
  551loPI    C3 8803  10.189   4.467  11.383  0.1586 -0.1253  0.0882
  551loPI   PO4 8804  10.120   4.635  10.894 -0.0657  0.0634  0.1171
  551loPI   GL1 8805   9.978   4.764  10.474  0.2577 -0.0822  0.2321
  551loPI   GL2 8806   9.788   4.860  10.553 -0.0604  0.0948  0.1277
  551loPI   C1A 8807  10.049   4.686  10.015  0.5220  0.2091  0.1475
  551loPI   C2A 8808  10.124   4.552   9.561 -0.0490 -0.1620 -0.2048
  551loPI   C3A 8809   9.990   4.615   9.146  0.3204  0.0508  0.3788
  551loPI   C4A 8810  10.131   4.540   8.651  0.4906 -0.1763  0.0233
  551loPI   C5A 8811  10.492   4.747   8.447 -0.1970  0.0007 -0.1403
  551loPI   C6A 8812  10.762   5.028   8.347 -0.1470  0.1218  0.1667
  551loPI   C1B 8813   9.607   4.893  10.151 -0.4042  0.0067 -0.0551
  551loPI   C2B 8814   9.619   4.808   9.715  0.0062  0.0023 -0.3298
  551loPI   C3B 8815   9.575   4.768   9.310  0.1894 -0.3753 -0.1400
  551loPI   C4B 8816   9.655   4.744   8.793  0.1726 -0.1135 -0.3443
  552loPI    C1 8817  16.487  16.717  11.349 -0.0397  0.1144  0.1298
  552loPI    C2 8818  16.089  16.708  11.319 -0.0326  0.1836  0.0058
  552loPI    C3 8819  16.264  16.951  11.584 -0.0756  0.0800  0.1302
  552loPI   PO4 8820  16.559  16.730  11.122 -0.1350  0.0879  0.1374
  552loPI   GL1 8821  16.544  16.561  10.729  0.1378  0.2017 -0.2251
  552loPI   GL2 8822  16.598  16.207  10.777 -0.1101  0.2144  0.3199
  552loPI   C1A 8823  16.577  16.663  10.309 -0.3625 -0.0044  0.1999
  552loPI   C2A 8824  16.540  16.617   9.954  0.1797  0.1624 -0.2304
  552loPI   C3A 8825  16.526  16.703   9.619  0.2001  0.1238 -0.3594
  552loPI   C4A 8826  16.475  16.693   9.261 -0.0514 -0.1118  0.2082
  552loPI   C5A 8827  16.364  16.684   8.867  0.3617 -0.1044 -0.1244
  552loPI   C6A 8828  16.393  17.099   8.488 -0.1232  0.1910 -0.3195
  552loPI   C1B 8829  16.616  16.159  10.244  0.1161  0.1795 -0.1317
  552loPI   C2B 8830  16.566  16.101   9.859 -0.2551 -0.4153  0.2440
  552loPI   C3B 8831  16.495  16.227   9.413  0.2726  0.1141 -0.2710
  552loPI   C4B 8832  16.545  16.214   9.033  0.0881  0.2050 -0.0120
  553loPI    C1 8833  15.576  12.515  11.413  0.1637  0.0637 -0.0003
  553loPI    C2 8834  15.956  12.498  11.535  0.1626  0.2320  0.0289
  553loPI    C3 8835  15.665  12.346  11.764  0.2055  0.1597  0.0356
  553loPI   PO4 8836  15.646  12.621  11.178 -0.0184  0.0638 -0.1821
  553loPI   GL1 8837  15.740  12.421  10.780  0.1663  0.3888  0.3999
  553loPI   GL2 8838  15.498  12.517  10.598  0.3003  0.0549  0.3032
  553loPI   C1A 8839  15.919  12.485  10.392  0.0230  0.2501  0.0939
  553loPI   C2A 8840  15.881  12.387  10.026 -0.2034  0.0588  0.1334
  553loPI   C3A 8841  15.867  12.455   9.636  0.2685 -0.0529  0.5427
  553loPI   C4A 8842  15.864  12.433   9.217  0.3437 -0.0947  0.1042
  553loPI   C5A 8843  15.942  12.703   8.633  0.1294 -0.1935 -0.0367
  553loPI   C6A 8844  16.413  12.899   8.506  0.0400  0.0134  0.2184
  553loPI   C1B 8845  15.507  12.660  10.208  0.2290  0.0713  0.2113
  553loPI   C2B 8846  15.426  12.604   9.816  0.0222 -0.0200 -0.3372
  553loPI   C3B 8847  15.433  12.651   9.341 -0.1340  0.0060 -0.0673
  553loPI   C4B 8848  15.372  12.655   8.826 -0.0492  0.1891  0.0669
  554loPI    C1 8849   9.843  11.976  10.572  0.0679 -0.1393 -0.0027
  554loPI    C2 8850   9.625  11.770  10.836 -0.0743  0.0489  0.0282
  554loPI    C3 8851   9.819  12.100  10.951  0.1406 -0.0577 -0.0245
  554loPI   PO4 8852   9.707  12.026  10.408 -0.2335 -0.0059 -0.0379
  554loPI   GL1 8853   9.795  12.259  10.142 -0.1884  0.1608  0.2657
  554loPI   GL2 8854   9.828  12.618  10.178 -0.0237  0.0496 -0.0446
  554loPI   C1A 8855   9.863  12.105   9.790  0.1202  0.0274  0.0226
  554loPI   C2A 8856   9.977  12.045   9.339  0.0140 -0.0887 -0.0287
  554loPI   C3A 8857  10.052  12.036   8.964  0.2285 -0.0826  0.1531
  554loPI   C4A 8858  10.173  12.189   8.517  0.3732 -0.3484  0.2688
  554loPI   C5A 8859   9.916  12.032   8.161 -0.1205  0.0701  0.1232
  554loPI   C6A 8860   9.676  12.096   7.686  0.0443 -0.0791  0.1326
  554loPI   C1B 8861   9.949  12.588   9.773 -0.0550  0.0128  0.0150
  554loPI   C2B 8862   9.911  12.539   9.318 -0.0472  0.1000 -0.1113
  554loPI   C3B 8863   9.999  12.566   8.907 -0.1414  0.0492  0.0593
  554loPI   C4B 8864  10.152  12.742   8.502 -0.0380  0.2192  0.0867
  555loPI    C1 8865   8.383  13.010  10.832  0.0607  0.0974  0.1059
  555loPI    C2 8866   8.238  13.135  11.183  0.0505  0.2545  0.0468
  555loPI    C3 8867   8.400  12.770  11.151 -0.2255  0.1212  0.1407
  555loPI   PO4 8868   8.352  13.141  10.652 -0.1655 -0.1177 -0.0235
  555loPI   GL1 8869   8.073  13.150  10.310 -0.2800  0.2308  0.1526
  555loPI   GL2 8870   8.050  12.892  10.093 -0.0737  0.0554 -0.3115
  555loPI   C1A 8871   8.020  13.422   9.940 -0.0704  0.0503  0.0635
  555loPI   C2A 8872   7.985  13.478   9.563 -0.2004  0.2809 -0.2936
  555loPI   C3A 8873   7.978  13.512   9.163 -0.0279 -0.2027  0.0445
  555loPI   C4A 8874   8.097  13.358   8.750  0.0567 -0.5311  0.1393
  555loPI   C5A 8875   8.302  13.224   8.362 -0.2328 -0.0754  0.2895
  555loPI   C6A 8876   8.470  13.328   7.920 -0.0690 -0.2726  0.0046
  555loPI   C1B 8877   8.069  12.948   9.718  0.0910  0.0317  0.0769
  555loPI   C2B 8878   8.061  12.964   9.243  0.0773  0.1690 -0.0037
  555loPI   C3B 8879   8.160  12.897   8.824  0.3203  0.2429  0.1252
  555loPI   C4B 8880   8.196  12.760   8.399 -0.0939  0.1537  0.0470
  556loPI    C1 8881   7.257   5.893  11.207  0.1703 -0.0078 -0.0038
  556loPI    C2 8882   7.173   6.200  11.449 -0.2270  0.0167 -0.1638
  556loPI    C3 8883   7.200   5.830  11.598 -0.0988  0.0803 -0.0261
  556loPI   PO4 8884   7.059   5.901  10.950 -0.1157 -0.1033 -0.0500
  556loPI   GL1 8885   6.979   6.117  10.653  0.1829  0.1543  0.1878
  556loPI   GL2 8886   7.166   6.363  10.496 -0.1159 -0.2856  0.0638
  556loPI   C1A 8887   6.724   6.110  10.224  0.2202  0.1060 -0.1853
  556loPI   C2A 8888   6.714   6.091   9.753  0.0933  0.1541  0.0703
  556loPI   C3A 8889   6.761   6.041   9.294 -0.0867 -0.1161  0.0297
  556loPI   C4A 8890   6.668   5.965   8.965  0.1383  0.2603 -0.0719
  556loPI   C5A 8891   6.587   5.838   8.517 -0.1570  0.1156 -0.0659
  556loPI   C6A 8892   6.532   5.996   7.995 -0.0524 -0.1490 -0.3637
  556loPI   C1B 8893   7.164   6.378  10.138  0.2127 -0.2992  0.2589
  556loPI   C2B 8894   7.139   6.320   9.734  0.1943 -0.1971  0.3146
  556loPI   C3B 8895   7.137   6.345   9.201 -0.1019 -0.0064  0.1881
  556loPI   C4B 8896   7.129   6.172   8.721 -0.0088  0.0380  0.0000
  557loPI    C1 8897  12.916   1.543  11.298 -0.3425  0.2590 -0.0693
  557loPI    C2 8898  13.054   1.905  11.396  0.0165  0.1165 -0.0348
  557loPI    C3 8899  12.948   1.647  11.683 -0.1432  0.1565 -0.0570
  557loPI   PO4 8900  12.863   1.605  10.974  0.4310 -0.0164  0.1230
  557loPI   GL1 8901  12.947   1.769  10.569  0.2890  0.0290  0.0383
  557loPI   GL2 8902  13.010   1.407  10.499 -0.0405  0.0230 -0.1953
  557loPI   C1A 8903  13.037   1.908  10.197 -0.0386 -0.0626  0.2923
  557loPI   C2A 8904  13.042   1.833   9.787  0.2736  0.0135  0.1428
  557loPI   C3A 8905  13.063   1.897   9.411  0.1101 -0.0423  0.0651
  557loPI   C4A 8906  13.115   1.992   8.982 -0.2247  0.3086 -0.2029
  557loPI   C5A 8907  13.142   2.095   8.566 -0.0190  0.3304  0.1430
  557loPI   C6A 8908  12.863   2.161   8.195 -0.1474 -0.0362  0.1080
  557loPI   C1B 8909  13.031   1.326  10.081  0.2530 -0.0062  0.2446
  557loPI   C2B 8910  13.063   1.340   9.623 -0.0842 -0.2023  0.0332
  557loPI   C3B 8911  13.149   1.387   9.273  0.2161  0.2446 -0.0114
  557loPI   C4B 8912  13.251   1.481   8.839  0.2598  0.2177 -0.1099
  558loPI    C1 8913  15.940  10.083  10.964 -0.3243 -0.0337  0.0641
  558loPI    C2 8914  16.149  10.043  11.303 -0.1828  0.2695  0.0165
  558loPI    C3 8915  15.793   9.864  11.264 -0.0554 -0.0308  0.2010
  558loPI   PO4 8916  15.960  10.371  10.806  0.1611 -0.3040 -0.1084
  558loPI   GL1 8917  16.072  10.358  10.432 -0.3185  0.2085  0.0400
  558loPI   GL2 8918  16.415  10.276  10.442 -0.1629  0.1222 -0.1325
  558loPI   C1A 8919  16.143  10.381   9.960  0.2193  0.0936  0.0557
  558loPI   C2A 8920  16.092  10.417   9.502  0.0740 -0.1684  0.2280
  558loPI   C3A 8921  16.216  10.407   9.056  0.0876  0.0315 -0.2663
  558loPI   C4A 8922  16.138  10.468   8.700 -0.1529 -0.0095  0.4481
  558loPI   C5A 8923  16.188  10.210   8.415 -0.0316  0.0173  0.0464
  558loPI   C6A 8924  16.101   9.765   8.302 -0.1259  0.1558 -0.0571
  558loPI   C1B 8925  16.640  10.206  10.024 -0.2496 -0.2500 -0.3994
  558loPI   C2B 8926  16.570  10.166   9.544  0.0965  0.0867 -0.1281
  558loPI   C3B 8927  16.644  10.197   9.211  0.1436  0.3181 -0.0620
  558loPI   C4B 8928  16.577  10.207   8.728  0.0854 -0.1648  0.1129
  559loPI    C1 8929   2.722   7.541  11.273 -0.1322 -0.1294  0.0192
  559loPI    C2 8930   2.358   7.676  11.366 -0.0315  0.1727 -0.0134
  559loPI    C3 8931   2.631   7.622  11.654 -0.0242  0.1833 -0.0183
  559loPI   PO4 8932   2.856   7.734  11.114  0.3493  0.0302 -0.0251
  559loPI   GL1 8933   2.939   7.630  10.798  0.0402  0.2067 -0.1570
  559loPI   GL2 8934   2.788   7.793  10.620  0.2004 -0.4696 -0.2947
  559loPI   C1A 8935   3.084   7.321  10.559  0.2174  0.1800 -0.1125
  559loPI   C2A 8936   3.003   7.247  10.039 -0.3616 -0.0618 -0.1426
  559loPI   C3A 8937   3.061   7.255   9.553  0.3911  0.2107  0.1034
  559loPI   C4A 8938   3.048   7.196   9.051 -0.1737 -0.0919 -0.0431
  559loPI   C5A 8939   3.011   7.248   8.651 -0.2372  0.1461  0.2692
  559loPI   C6A 8940   2.780   7.554   8.566  0.5707 -0.1425  0.2608
  559loPI   C1B 8941   2.966   7.743  10.280  0.0323 -0.0321 -0.0886
  559loPI   C2B 8942   2.928   7.711   9.820 -0.1104 -0.1575  0.1113
  559loPI   C3B 8943   2.963   7.774   9.357  0.0862 -0.1633 -0.1248
  559loPI   C4B 8944   3.092   7.688   8.973  0.2806  0.0443 -0.1396
  560loPI    C1 8945   8.719   1.940  10.889 -0.0383 -0.0166  0.1133
  560loPI    C2 8946   8.683   1.586  10.707  0.1573 -0.0199  0.0781
  560loPI    C3 8947   8.745   1.602  11.102  0.0889 -0.0229  0.0890
  560loPI   PO4 8948   8.831   2.035  10.795 -0.0665 -0.1657  0.0202
  560loPI   GL1 8949   8.817   2.154  10.433 -0.2369  0.0963  0.0396
  560loPI   GL2 8950   8.538   2.288  10.194 -0.2185 -0.0838 -0.0514
  560loPI   C1A 8951   8.964   2.093  10.066 -0.1131  0.1547 -0.1800
  560loPI   C2A 8952   9.080   2.017   9.637 -0.0686  0.0896  0.0395
  560loPI   C3A 8953   8.998   2.073   9.214  0.0641 -0.0885  0.1763
  560loPI   C4A 8954   8.996   1.992   8.757  0.1362 -0.0688 -0.2784
  560loPI   C5A 8955   8.883   1.983   8.293 -0.1217  0.2576  0.1110
  560loPI   C6A 8956   8.875   1.744   7.871 -0.1539  0.0477 -0.3761
  560loPI   C1B 8957   8.645   2.297   9.684 -0.0057 -0.1076  0.0254
  560loPI   C2B 8958   8.633   2.346   9.273  0.2504  0.0650  0.1916
  560loPI   C3B 8959   8.468   2.258   8.887  0.0754  0.2533 -0.0361
  560loPI   C4B 8960   8.366   2.205   8.461  0.0184 -0.1029  0.2758
  561loPI    C1 8961  12.690  13.238  11.028  0.1175  0.2184  0.0918
  561loPI    C2 8962  12.790  13.263  11.414  0.0484  0.2604  0.1071
  561loPI    C3 8963  12.405  13.277  11.306  0.0541  0.0382  0.0539
  561loPI   PO4 8964  12.811  13.435  10.833 -0.2120  0.1575  0.0974
  561loPI   GL1 8965  12.664  13.348  10.505 -0.2005  0.1506  0.2290
  561loPI   GL2 8966  12.589  13.077  10.549 -0.2081 -0.0983  0.1543
  561loPI   C1A 8967  12.538  13.433  10.081  0.2490 -0.1600  0.2012
  561loPI   C2A 8968  12.653  13.476   9.587  0.0589  0.0850  0.2143
  561loPI   C3A 8969  12.674  13.354   9.145  0.2145 -0.0727 -0.0687
  561loPI   C4A 8970  12.749  13.478   8.677  0.0582  0.0499  0.0121
  561loPI   C5A 8971  12.526  13.589   8.227 -0.1038 -0.0161 -0.2051
  561loPI   C6A 8972  12.072  13.664   8.083  0.0507 -0.2432  0.1022
  561loPI   C1B 8973  12.628  12.932  10.099  0.0497 -0.0428  0.0203
  561loPI   C2B 8974  12.632  12.972   9.717 -0.0393  0.1695 -0.2560
  561loPI   C3B 8975  12.700  12.906   9.248  0.0840  0.0055 -0.0800
  561loPI   C4B 8976  12.736  12.943   8.813  0.2173  0.0136 -0.0114
  562loPI    C1 8977  13.558  16.448  11.290  0.1257 -0.0272  0.1466
  562loPI    C2 8978  13.502  16.201  11.599  0.3476 -0.0105  0.2015
  562loPI    C3 8979  13.408  16.588  11.634  0.1485 -0.0548  0.1678
  562loPI   PO4 8980  13.572  16.279  11.054  0.3214 -0.3553 -0.2832
  562loPI   GL1 8981  13.473  16.172  10.512  0.1862  0.0340 -0.0766
  562loPI   GL2 8982  13.561  15.939  10.624 -0.2208  0.1509  0.1816
  562loPI   C1A 8983  13.380  16.132  10.082 -0.0030 -0.1000 -0.2846
  562loPI   C2A 8984  13.403  16.128   9.601 -0.3819 -0.1335 -0.0115
  562loPI   C3A 8985  13.366  16.080   9.220  0.0723  0.0462  0.1857
  562loPI   C4A 8986  13.268  16.120   8.863  0.1124 -0.0267  0.0048
  562loPI   C5A 8987  13.475  16.233   8.460 -0.1060 -0.1399 -0.1324
  562loPI   C6A 8988  13.722  16.676   8.267  0.1680 -0.0983  0.1320
  562loPI   C1B 8989  13.811  15.878  10.234  0.2335  0.0920 -0.1416
  562loPI   C2B 8990  13.859  15.902   9.831 -0.1181 -0.1362  0.2231
  562loPI   C3B 8991  13.878  15.950   9.482 -0.3724 -0.0280 -0.0031
  562loPI   C4B 8992  13.854  15.822   9.005 -0.2303 -0.0037 -0.1002
  563loPI    C1 8993  15.344   7.229  11.125  0.0705 -0.0871 -0.0283
  563loPI    C2 8994  15.184   6.943  11.354 -0.0990 -0.0305 -0.0751
  563loPI    C3 8995  15.411   7.228  11.520 -0.2189  0.0089  0.0232
  563loPI   PO4 8996  15.389   7.147  10.907 -0.2006  0.0212 -0.3096
  563loPI   GL1 8997  15.443   7.107  10.544 -0.1024 -0.2994  0.0307
  563loPI   GL2 8998  15.580   7.196  10.321 -0.0015  0.0336  0.2389
  563loPI   C1A 8999  15.126   6.893  10.320 -0.1460 -0.0614 -0.0611
  563loPI   C2A 9000  15.088   6.767   9.976  0.0429 -0.1995 -0.0617
  563loPI   C3A 9001  15.151   6.772   9.534 -0.0596  0.1042  0.2057
  563loPI   C4A 9002  15.195   6.921   9.134  0.0268  0.3282 -0.2553
  563loPI   C5A 9003  15.099   6.926   8.666  0.2161  0.1833 -0.3214
  563loPI   C6A 9004  14.812   7.314   8.441 -0.3158  0.1856  0.1210
  563loPI   C1B 9005  15.569   7.170   9.881 -0.2390  0.0578  0.0999
  563loPI   C2B 9006  15.564   7.204   9.455 -0.0136 -0.1589 -0.0047
  563loPI   C3B 9007  15.618   7.186   9.021 -0.3023  0.0304 -0.3014
  563loPI   C4B 9008  15.506   7.199   8.578  0.0050  0.1839  0.1029
  564loPI    C1 9009  11.390   3.210  11.072  0.0231 -0.1939 -0.0229
  564loPI    C2 9010  11.048   3.076  11.229 -0.1225  0.1435 -0.0444
  564loPI    C3 9011  11.342   3.202  11.469 -0.1621  0.2124 -0.0315
  564loPI   PO4 9012  11.623   3.024  10.889  0.0985  0.2315  0.0521
  564loPI   GL1 9013  11.566   2.785  10.435 -0.0375 -0.2637  0.0050
  564loPI   GL2 9014  11.222   2.643  10.298  0.0723 -0.0126 -0.1254
  564loPI   C1A 9015  11.655   2.570  10.071 -0.2920  0.0170 -0.0323
  564loPI   C2A 9016  11.684   2.486   9.639 -0.2965 -0.1371  0.0577
  564loPI   C3A 9017  11.656   2.517   9.145 -0.0833 -0.0878 -0.2799
  564loPI   C4A 9018  11.628   2.430   8.718  0.0808 -0.0335 -0.0903
  564loPI   C5A 9019  11.562   2.590   8.351 -0.0211  0.0266  0.1864
  564loPI   C6A 9020  11.160   2.644   8.118 -0.2247  0.1852  0.2701
  564loPI   C1B 9021  11.189   2.744   9.900  0.2972 -0.0044  0.0553
  564loPI   C2B 9022  11.249   2.703   9.356  0.2442 -0.2614  0.1290
  564loPI   C3B 9023  11.145   2.660   8.990 -0.2065 -0.1269  0.1578
  564loPI   C4B 9024  11.056   2.670   8.604 -0.2216 -0.4199 -0.1463
  565loPI    C1 9025   9.119   3.996  10.770 -0.0481  0.0196 -0.0311
  565loPI    C2 9026   9.212   4.269  11.048  0.1495 -0.0610 -0.0165
  565loPI    C3 9027   8.931   3.993  11.124  0.1257 -0.0155  0.0619
  565loPI   PO4 9028   9.396   3.966  10.688 -0.3067  0.2345 -0.0873
  565loPI   GL1 9029   9.367   3.966  10.269  0.0746  0.1536  0.1027
  565loPI   GL2 9030   9.702   3.905  10.301 -0.4037  0.1693 -0.1087
  565loPI   C1A 9031   9.285   4.105   9.948 -0.0576  0.2531  0.1198
  565loPI   C2A 9032   9.260   3.984   9.568 -0.2350 -0.1123 -0.0163
  565loPI   C3A 9033   9.240   3.965   9.166  0.0705  0.0925  0.0006
  565loPI   C4A 9034   9.280   3.946   8.718  0.2264  0.1540 -0.0580
  565loPI   C5A 9035   9.402   3.848   8.320  0.2595 -0.1005 -0.1201
  565loPI   C6A 9036   9.207   3.370   8.438 -0.1048  0.0401 -0.1130
  565loPI   C1B 9037   9.701   3.728   9.906 -0.0630  0.2309  0.1507
  565loPI   C2B 9038   9.722   3.821   9.554  0.1242  0.1068  0.3207
  565loPI   C3B 9039   9.728   3.745   9.129  0.2372  0.0664 -0.1691
  565loPI   C4B 9040   9.730   3.732   8.637 -0.2255  0.2550  0.0829
  566loPI    C1 9041   3.466  16.692  11.058  0.0333  0.1176 -0.0499
  566loPI    C2 9042   3.478  16.323  11.212 -0.0020  0.0990 -0.0919
  566loPI    C3 9043   3.787  16.572  11.264  0.0505  0.0402 -0.1209
  566loPI   PO4 9044   3.330  16.626  10.748  0.3426 -0.0931  0.3524
  566loPI   GL1 9045   3.191  16.930  10.390 -0.0982 -0.0031  0.0081
  566loPI   GL2 9046   3.141  16.675  10.180 -0.1701 -0.0531  0.0696
  566loPI   C1A 9047   3.058  17.180   9.983  0.2084 -0.0729  0.0678
  566loPI   C2A 9048   3.102  17.142   9.486  0.0190 -0.0633  0.1251
  566loPI   C3A 9049   3.045  17.236   9.054 -0.0366  0.1292 -0.2152
  566loPI   C4A 9050   3.019  17.272   8.633 -0.1249 -0.0084  0.1890
  566loPI   C5A 9051   3.032  17.204   8.221  0.2252 -0.1258  0.3028
  566loPI   C6A 9052   2.889  16.913   8.000 -0.0826  0.2366 -0.2172
  566loPI   C1B 9053   3.147  16.673   9.784  0.2147 -0.1134  0.1386
  566loPI   C2B 9054   3.127  16.656   9.380  0.0217 -0.1224  0.2259
  566loPI   C3B 9055   3.128  16.773   8.902 -0.0725 -0.1205 -0.1370
  566loPI   C4B 9056   3.032  16.790   8.511 -0.2102 -0.3535  0.1463
  567loPI    C1 9057  16.475  14.056  11.678 -0.3113  0.0472  0.0006
  567loPI    C2 9058  16.245  14.105  12.002 -0.1145 -0.1755  0.1772
  567loPI    C3 9059  16.618  14.250  11.997 -0.1349 -0.1260  0.0284
  567loPI   PO4 9060  16.242  14.104  11.465  0.2416  0.0533  0.0061
  567loPI   GL1 9061  16.189  13.915  11.029 -0.0898  0.3917  0.0514
  567loPI   GL2 9062  16.202  14.195  10.877 -0.0360 -0.1507 -0.1517
  567loPI   C1A 9063  16.233  13.678  10.585 -0.1158 -0.0711  0.5153
  567loPI   C2A 9064  16.231  13.771  10.182  0.0259 -0.1053  0.1459
  567loPI   C3A 9065  16.155  13.780   9.829  0.0441 -0.1836  0.1716
  567loPI   C4A 9066  16.158  13.727   9.449  0.1763 -0.2682  0.2799
  567loPI   C5A 9067  16.243  13.688   9.051  0.0241 -0.2924 -0.1828
  567loPI   C6A 9068  16.308  13.829   8.611  0.2522 -0.3075  0.1561
  567loPI   C1B 9069  16.120  14.356  10.463 -0.1780  0.0783 -0.0855
  567loPI   C2B 9070  16.205  14.303  10.098  0.2701  0.0444 -0.0582
  567loPI   C3B 9071  16.183  14.268   9.642 -0.3545  0.0170 -0.0902
  567loPI   C4B 9072  16.193  14.199   9.210  0.1663 -0.1843  0.1043
  568loPI    C1 9073   0.803  11.982  11.077  0.0466  0.0894  0.1279
  568loPI    C2 9074   0.895  12.327  11.258  0.2133  0.0034  0.2089
  568loPI    C3 9075   0.852  11.993  11.474 -0.0677 -0.0039  0.1454
  568loPI   PO4 9076   0.836  12.067  10.819  0.0326 -0.1114 -0.1411
  568loPI   GL1 9077   0.624  12.100  10.473  0.3554  0.3274  0.0120
  568loPI   GL2 9078   0.833  12.416  10.430  0.0532 -0.2164  0.2988
  568loPI   C1A 9079   0.340  11.953  10.111 -0.1155 -0.1786 -0.1016
  568loPI   C2A 9080   0.339  11.864   9.727  0.2350 -0.2625 -0.0928
  568loPI   C3A 9081   0.384  11.834   9.303 -0.1987  0.0500  0.1841
  568loPI   C4A 9082   0.408  11.851   8.921  0.0934  0.2034  0.0114
  568loPI   C5A 9083   0.291  12.028   8.551  0.2713  0.2899  0.1169
  568loPI   C6A 9084   0.138  12.362   8.374 -0.1304 -0.0711  0.0161
  568loPI   C1B 9085   0.703  12.324   9.977  0.2662 -0.0592 -0.1084
  568loPI   C2B 9086   0.760  12.200   9.674  0.0609  0.0483 -0.0166
  568loPI   C3B 9087   0.780  12.165   9.245 -0.2973 -0.0434 -0.5903
  568loPI   C4B 9088   0.779  12.123   8.779  0.1956  0.0604 -0.1706
  569loPI    C1 9089  14.329  13.870  11.225  0.1142 -0.2376  0.1070
  569loPI    C2 9090  14.191  14.225  11.348 -0.1065 -0.3113  0.0758
  569loPI    C3 9091  14.565  14.113  11.438  0.1386  0.1391 -0.3346
  569loPI   PO4 9092  14.243  13.799  11.012 -0.2555 -0.3306 -0.1052
  569loPI   GL1 9093  14.339  13.927  10.564  0.0658 -0.0403  0.1103
  569loPI   GL2 9094  14.319  14.236  10.413  0.0279 -0.1854 -0.1533
  569loPI   C1A 9095  14.384  13.807  10.030  0.2195 -0.5104  0.0514
  569loPI   C2A 9096  14.442  13.690   9.587  0.3087  0.2189  0.0813
  569loPI   C3A 9097  14.481  13.657   9.134 -0.0222 -0.1188  0.0078
  569loPI   C4A 9098  14.506  13.679   8.689 -0.0556 -0.2911  0.0945
  569loPI   C5A 9099  14.385  13.598   8.252 -0.1284  0.0783  0.0163
  569loPI   C6A 9100  14.347  13.771   7.815  0.1885 -0.0053  0.1097
  569loPI   C1B 9101  14.256  14.292  10.000 -0.1552 -0.3459 -0.3190
  569loPI   C2B 9102  14.332  14.190   9.656 -0.1086  0.0164 -0.1346
  569loPI   C3B 9103  14.432  14.165   9.251 -0.1939 -0.2241  0.3951
  569loPI   C4B 9104  14.508  14.146   8.830  0.4930  0.1890 -0.0810
  570loPI    C1 9105   6.032  11.223  11.294  0.0826 -0.1130 -0.1398
  570loPI    C2 9106   6.119  10.857  11.431 -0.0266 -0.1349 -0.1272
  570loPI    C3 9107   5.962  11.130  11.677  0.0414 -0.0837 -0.1402
  570loPI   PO4 9108   6.264  11.286  11.114  0.2948  0.0297 -0.2365
  570loPI   GL1 9109   6.199  11.269  10.629  0.2124  0.0622 -0.0453
  570loPI   GL2 9110   6.063  11.469  10.435 -0.0932  0.0242  0.1075
  570loPI   C1A 9111   6.322  11.136  10.214  0.2016  0.0186  0.1638
  570loPI   C2A 9112   6.277  10.784   9.874  0.3383  0.1790  0.0108
  570loPI   C3A 9113   6.368  10.812   9.435 -0.0243  0.1136 -0.3096
  570loPI   C4A 9114   6.475  10.745   8.983  0.2862 -0.0171 -0.3210
  570loPI   C5A 9115   6.398  10.746   8.501  0.1440 -0.0115 -0.0115
  570loPI   C6A 9116   6.501  10.927   8.215 -0.0979 -0.1047  0.0406
  570loPI   C1B 9117   6.204  11.496   9.956 -0.2810 -0.0606 -0.0505
  570loPI   C2B 9118   6.222  11.314   9.536 -0.2265 -0.0670  0.2550
  570loPI   C3B 9119   6.236  11.198   9.115  0.1854  0.0039  0.0403
  570loPI   C4B 9120   6.375  11.255   8.799 -0.1380 -0.2372  0.3558
  571loPI    C1 9121  13.701   7.864  11.162  0.1821  0.3305 -0.2450
  571loPI    C2 9122  13.415   7.890  11.440  0.2448 -0.2513 -0.1132
  571loPI    C3 9123  13.784   8.024  11.519  0.1240  0.0954 -0.1237
  571loPI   PO4 9124  13.543   7.912  10.948  0.1076 -0.2212 -0.5744
  571loPI   GL1 9125  13.627   7.640  10.606  0.1820  0.3604  0.1316
  571loPI   GL2 9126  13.864   7.393  10.576 -0.0765 -0.0103 -0.0610
  571loPI   C1A 9127  13.759   7.670  10.159 -0.3768 -0.0995 -0.0661
  571loPI   C2A 9128  13.705   7.447   9.721 -0.1000  0.6292  0.0307
  571loPI   C3A 9129  13.763   7.505   9.297 -0.1122  0.1024  0.1572
  571loPI   C4A 9130  13.679   7.506   8.853 -0.2929  0.0835 -0.1539
  571loPI   C5A 9131  13.626   7.461   8.514 -0.2156  0.2180  0.1314
  571loPI   C6A 9132  13.846   7.615   8.165  0.1391 -0.1262  0.0426
  571loPI   C1B 9133  13.822   7.127  10.217 -0.3635  0.0376 -0.2196
  571loPI   C2B 9134  13.746   6.953   9.843 -0.2581  0.1807  0.0439
  571loPI   C3B 9135  13.787   7.012   9.331  0.0416  0.2080  0.2542
  571loPI   C4B 9136  13.757   6.983   8.893  0.0590 -0.0387 -0.1210
  572loPI    C1 9137   9.484  11.280  10.653  0.3131  0.0209  0.0664
  572loPI    C2 9138   9.143  11.452  10.772  0.2255 -0.0215 -0.1199
  572loPI    C3 9139   9.397  11.305  11.043  0.0404 -0.0952  0.0155
  572loPI   PO4 9140   9.540  11.457  10.484 -0.2839  0.0005 -0.1793
  572loPI   GL1 9141   9.567  11.180  10.132 -0.1945  0.2373 -0.2203
  572loPI   GL2 9142   9.780  11.173  10.196 -0.3478  0.2821  0.2642
  572loPI   C1A 9143   9.557  11.226   9.619  0.2671 -0.1823 -0.1629
  572loPI   C2A 9144   9.566  11.218   9.164 -0.2502 -0.0398 -0.1065
  572loPI   C3A 9145   9.607  11.152   8.764  0.0754  0.0622  0.1697
  572loPI   C4A 9146   9.632  11.380   8.453 -0.1050 -0.0980 -0.1536
  572loPI   C5A 9147   9.441  11.665   8.153  0.2576  0.0736 -0.0945
  572loPI   C6A 9148   9.210  11.987   7.881  0.1026 -0.2810  0.1229
  572loPI   C1B 9149  10.000  11.038   9.873 -0.1325 -0.2684  0.2793
  572loPI   C2B 9150  10.021  11.014   9.408  0.2108  0.1214 -0.1753
  572loPI   C3B 9151  10.084  11.093   8.978  0.0331  0.4280 -0.2355
  572loPI   C4B 9152  10.115  11.064   8.513 -0.0591  0.1745 -0.0798
  573loPI    C1 9153  13.188   0.732  11.456  0.2645 -0.3278  0.0313
  573loPI    C2 9154  13.094   1.069  11.650  0.1538 -0.2331 -0.1828
  573loPI    C3 9155  13.202   0.743  11.855  0.1101 -0.1139  0.0326
  573loPI   PO4 9156  13.352   0.739  11.237  0.0608 -0.0067 -0.1818
  573loPI   GL1 9157  13.162   0.635  10.777  0.3103 -0.2311 -0.0019
  573loPI   GL2 9158  13.001   0.849  10.653  0.1576  0.0534 -0.1331
  573loPI   C1A 9159  13.165   0.329  10.447 -0.0555 -0.1198  0.1564
  573loPI   C2A 9160  13.155   0.348  10.053 -0.1721 -0.1384 -0.3928
  573loPI   C3A 9161  13.257   0.315   9.608  0.4398  0.1295  0.0325
  573loPI   C4A 9162  13.246   0.266   9.204  0.1222  0.2412 -0.3422
  573loPI   C5A 9163  13.355   0.262   8.726 -0.0119 -0.3343 -0.0943
  573loPI   C6A 9164  13.212   0.201   8.361  0.3583  0.0605  0.0686
  573loPI   C1B 9165  13.219   0.865  10.325  0.3851  0.3658  0.0567
  573loPI   C2B 9166  13.093   0.830   9.897 -0.3848 -0.3133 -0.2779
  573loPI   C3B 9167  13.132   0.871   9.473  0.2885  0.0639 -0.2247
  573loPI   C4B 9168  13.184   0.932   9.003 -0.2836  0.1712 -0.1335
  574loPI    C1 9169   4.544  10.286  11.142 -0.0282 -0.0498  0.0214
  574loPI    C2 9170   4.735  10.628  11.225  0.1316 -0.1562  0.0969
  574loPI    C3 9171   4.337  10.609  11.256  0.1024  0.0792 -0.1028
  574loPI   PO4 9172   4.604  10.206  10.955 -0.0560 -0.1676 -0.2270
  574loPI   GL1 9173   4.325   9.955  10.569  0.1873 -0.0520 -0.1613
  574loPI   GL2 9174   4.615   9.959  10.525  0.1947 -0.0851  0.0237
  574loPI   C1A 9175   4.157   9.716  10.271  0.1336  0.2911 -0.0580
  574loPI   C2A 9176   4.196   9.548   9.776 -0.2712  0.0568  0.0134
  574loPI   C3A 9177   4.202   9.679   9.339  0.2212  0.0212  0.0605
  574loPI   C4A 9178   4.211   9.666   8.910  0.4148 -0.2504  0.0061
  574loPI   C5A 9179   4.229   9.825   8.505  0.2506  0.1035 -0.0770
  574loPI   C6A 9180   4.237   9.884   8.045 -0.0299 -0.0543 -0.1131
  574loPI   C1B 9181   4.554   9.932  10.043  0.3033 -0.1549 -0.0763
  574loPI   C2B 9182   4.661   9.979   9.657 -0.1258  0.1137  0.0339
  574loPI   C3B 9183   4.664   9.881   9.228 -0.0649 -0.0616 -0.4680
  574loPI   C4B 9184   4.686  10.011   8.896  0.0197 -0.0262 -0.0624
  575loPI    C1 9185  17.284  14.988  11.049  0.0614 -0.0537 -0.0782
  575loPI    C2 9186  17.516  14.744  11.265 -0.0291 -0.0739 -0.0029
  575loPI    C3 9187  17.385  14.629  10.904 -0.1204 -0.1620  0.0576
  575loPI   PO4 9188  17.411  15.186  11.031  0.0691 -0.1583 -0.2115
  575loPI   GL1 9189  17.577  15.378  10.632 -0.0974  0.2830 -0.2066
  575loPI   GL2 9190  17.646  15.740  10.639  0.1135  0.2590 -0.0256
  575loPI   C1A 9191  17.519  15.241  10.242 -0.0451 -0.0966  0.0980
  575loPI   C2A 9192  17.459  15.194   9.778 -0.1101 -0.1553 -0.1346
  575loPI   C3A 9193  17.421  15.220   9.293  0.1257  0.1699 -0.2490
  575loPI   C4A 9194  17.329  15.129   8.875  0.2994 -0.0034 -0.0425
  575loPI   C5A 9195  16.983  15.329   8.634  0.4742 -0.0535  0.0983
  575loPI   C6A 9196  16.646  15.510   8.695 -0.1853  0.1679 -0.0158
  575loPI   C1B 9197  17.451  15.766  10.169  0.2772 -0.1331 -0.3296
  575loPI   C2B 9198  17.408  15.770   9.741 -0.3816 -0.2027  0.4634
  575loPI   C3B 9199  17.422  15.784   9.262  0.1437  0.2721 -0.5248
  575loPI   C4B 9200  17.328  15.594   8.822 -0.0720 -0.0955 -0.1762
  576loPI    C1 9201  14.493   7.232  10.958  0.0719 -0.2080  0.0513
  576loPI    C2 9202  14.236   7.075  11.220  0.0155 -0.3332 -0.0778
  576loPI    C3 9203  14.590   7.211  11.345 -0.1411 -0.0926  0.1123
  576loPI   PO4 9204  14.346   7.355  10.769 -0.1540  0.0943 -0.0605
  576loPI   GL1 9205  14.235   7.723  10.437  0.1414  0.3073  0.0965
  576loPI   GL2 9206  14.280   8.038  10.225 -0.2595  0.0406 -0.1873
  576loPI   C1A 9207  14.188   7.374  10.012  0.2500  0.0149  0.2549
  576loPI   C2A 9208  14.198   7.214   9.597  0.1827  0.2209  0.1183
  576loPI   C3A 9209  14.188   7.246   9.117  0.0523 -0.0797 -0.0956
  576loPI   C4A 9210  14.088   7.266   8.689  0.0365 -0.2486  0.1600
  576loPI   C5A 9211  13.842   7.075   8.414 -0.2578 -0.0232 -0.2132
  576loPI   C6A 9212  13.444   6.956   8.349  0.2580  0.1530 -0.1122
  576loPI   C1B 9213  14.080   7.873   9.827 -0.0102 -0.0756 -0.7055
  576loPI   C2B 9214  14.110   7.866   9.471  0.2427 -0.2544  0.0774
  576loPI   C3B 9215  14.093   7.748   9.004 -0.1410 -0.1229 -0.0849
  576loPI   C4B 9216  14.081   7.794   8.564 -0.0704 -0.0593 -0.0796
  577loPI    C1 9217   5.259  14.427  11.040 -0.0647  0.0670 -0.1094
  577loPI    C2 9218   5.544  14.565  11.285 -0.0412  0.1262 -0.1699
  577loPI    C3 9219   5.382  14.205  11.349 -0.0710  0.1630 -0.0376
  577loPI   PO4 9220   5.363  14.493  10.809  0.0364  0.2284 -0.2079
  577loPI   GL1 9221   5.187  14.662  10.378 -0.2926  0.1929  0.2776
  577loPI   GL2 9222   4.933  14.523  10.294 -0.0835  0.0041  0.0312
  577loPI   C1A 9223   5.268  14.804  10.014  0.1149  0.1555  0.1151
  577loPI   C2A 9224   5.244  14.768   9.571 -0.0258  0.0291 -0.1889
  577loPI   C3A 9225   5.156  14.771   9.121  0.0123  0.1465  0.1394
  577loPI   C4A 9226   5.083  14.776   8.683 -0.1256  0.1821 -0.0464
  577loPI   C5A 9227   4.791  14.794   8.379  0.4458 -0.0123  0.1265
  577loPI   C6A 9228   4.785  15.143   8.045 -0.3248 -0.0256  0.0981
  577loPI   C1B 9229   4.887  14.502   9.902  0.0799  0.3787  0.0104
  577loPI   C2B 9230   4.847  14.506   9.438 -0.2533 -0.1064  0.1288
  577loPI   C3B 9231   4.748  14.505   9.023  0.0714  0.2789 -0.5755
  577loPI   C4B 9232   4.779  14.304   8.594 -0.0372 -0.0872  0.0335
  578loPI    C1 9233   3.431   3.464  11.174 -0.0137  0.0085  0.0267
  578loPI    C2 9234   3.273   3.152  11.367 -0.0109  0.0089  0.0297
  578loPI    C3 9235   3.649   3.134  11.230  0.0446  0.0705  0.1716
  578loPI   PO4 9236   3.295   3.595  10.957  0.0004 -0.0064  0.1865
  578loPI   GL1 9237   3.342   3.594  10.515  0.1690 -0.0784 -0.2546
  578loPI   GL2 9238   3.081   3.398  10.522 -0.1741  0.1642 -0.0204
  578loPI   C1A 9239   3.495   3.585  10.109 -0.1809 -0.0047  0.1755
  578loPI   C2A 9240   3.531   3.505   9.641  0.0990  0.1732 -0.2590
  578loPI   C3A 9241   3.389   3.556   9.182  0.1822  0.0740 -0.0313
  578loPI   C4A 9242   3.491   3.662   8.693  0.1153 -0.0611 -0.0886
  578loPI   C5A 9243   3.627   3.837   8.273  0.2931  0.0982 -0.0501
  578loPI   C6A 9244   3.813   4.119   7.973 -0.1254  0.0018  0.5148
  578loPI   C1B 9245   3.055   3.362  10.151  0.1236 -0.0515  0.3042
  578loPI   C2B 9246   3.071   3.278   9.693  0.1112  0.0357 -0.0108
  578loPI   C3B 9247   3.038   3.249   9.306  0.2803 -0.0582  0.0327
  578loPI   C4B 9248   3.057   3.325   8.821  0.0489 -0.0773  0.0037
  579loPI    C1 9249   2.619  13.023  10.587  0.1474 -0.1252 -0.0777
  579loPI    C2 9250   2.270  13.160  10.727  0.1060 -0.0605 -0.2418
  579loPI    C3 9251   2.464  12.871  10.924  0.1451  0.1609  0.0534
  579loPI   PO4 9252   2.566  12.987  10.305  0.1099  0.2711  0.0065
  579loPI   GL1 9253   2.724  12.849   9.940  0.0057  0.1514  0.0859
  579loPI   GL2 9254   2.983  12.687   9.980  0.1958 -0.0193 -0.0454
  579loPI   C1A 9255   2.659  13.086   9.624 -0.2438 -0.0636 -0.1940
  579loPI   C2A 9256   2.514  13.040   9.152  0.0583  0.1465  0.1211
  579loPI   C3A 9257   2.588  12.843   8.771 -0.1275 -0.2779 -0.0882
  579loPI   C4A 9258   2.435  12.774   8.352  0.0337 -0.0099 -0.1212
  579loPI   C5A 9259   2.146  12.502   8.216  0.1763 -0.0323  0.0765
  579loPI   C6A 9260   1.929  12.378   7.788 -0.3543 -0.1603 -0.1041
  579loPI   C1B 9261   2.997  12.393   9.669 -0.1342  0.1138 -0.2781
  579loPI   C2B 9262   2.979  12.255   9.303 -0.0589 -0.1993 -0.1925
  579loPI   C3B 9263   3.055  12.167   8.862  0.1511 -0.0210 -0.2614
  579loPI   C4B 9264   3.018  12.112   8.393  0.1888 -0.3422 -0.1304
  580loPI    C1 9265   9.054  10.921  11.047  0.1706 -0.0958 -0.3809
  580loPI    C2 9266   8.689  10.756  11.035  0.0622  0.0980  0.0379
  580loPI    C3 9267   8.994  10.557  11.201  0.1519 -0.0635 -0.3109
  580loPI   PO4 9268   9.102  10.919  10.735 -0.1017 -0.2759  0.0706
  580loPI   GL1 9269   9.091  11.127  10.327  0.1813  0.0510  0.0350
  580loPI   GL2 9270   9.108  11.429  10.255 -0.2046 -0.1178  0.0769
  580loPI   C1A 9271   9.193  10.920   9.860 -0.2349 -0.0123 -0.2810
  580loPI   C2A 9272   9.171  10.940   9.409 -0.0604  0.1889 -0.1668
  580loPI   C3A 9273   9.173  10.909   8.899  0.3227  0.2206 -0.1797
  580loPI   C4A 9274   9.136  10.857   8.503 -0.0273  0.5359  0.0606
  580loPI   C5A 9275   9.299  11.119   8.199  0.1382  0.3755  0.0126
  580loPI   C6A 9276   9.018  11.403   7.861  0.1214  0.1628 -0.4466
  580loPI   C1B 9277   9.048  11.457   9.913  0.2154 -0.2093 -0.4331
  580loPI   C2B 9278   9.088  11.372   9.530 -0.2770 -0.2252  0.0681
  580loPI   C3B 9279   9.070  11.358   9.087  0.0235  0.0160  0.0937
  580loPI   C4B 9280   9.199  11.446   8.641 -0.1151  0.0421 -0.1785
  581loPI    C1 9281   0.082  13.569  11.010  0.0998 -0.1945 -0.0024
  581loPI    C2 9282   0.181  13.473  11.385  0.0508  0.1231  0.0948
  581loPI    C3 9283  -0.200  13.550  11.292  0.0974  0.2851  0.0354
  581loPI   PO4 9284   0.213  13.401  10.814  0.0558  0.1113  0.0595
  581loPI   GL1 9285   0.222  13.451  10.435 -0.1765 -0.1457  0.1219
  581loPI   GL2 9286   0.172  13.691  10.363  0.1548 -0.1826  0.1250
  581loPI   C1A 9287   0.202  13.505   9.909 -0.3020 -0.1816 -0.3629
  581loPI   C2A 9288   0.155  13.552   9.545 -0.3093 -0.2171  0.0468
  581loPI   C3A 9289   0.135  13.479   9.169  0.1896  0.1157  0.0051
  581loPI   C4A 9290   0.167  13.359   8.786 -0.0694 -0.0907  0.0030
  581loPI   C5A 9291   0.345  13.576   8.457 -0.1442 -0.1267  0.0730
  581loPI   C6A 9292   0.509  14.048   8.389 -0.0683 -0.1292 -0.1725
  581loPI   C1B 9293   0.508  13.847  10.107  0.2396  0.2756  0.0131
  581loPI   C2B 9294   0.559  13.790   9.746  0.2656 -0.0308 -0.1038
  581loPI   C3B 9295   0.619  13.875   9.313 -0.1923  0.1219 -0.3162
  581loPI   C4B 9296   0.508  13.862   8.900  0.0555  0.0528  0.1756
  582loPI    C1 9297   6.165  12.431  10.829  0.0623 -0.0005  0.0023
  582loPI    C2 9298   5.905  12.222  11.051 -0.0512  0.0612 -0.0718
  582loPI    C3 9299   6.215  12.406  11.225  0.0113 -0.1122  0.0020
  582loPI   PO4 9300   6.039  12.581  10.711 -0.0879  0.0350 -0.2101
  582loPI   GL1 9301   6.153  12.801  10.361 -0.0701 -0.2568  0.0612
  582loPI   GL2 9302   5.987  12.994  10.265  0.1165 -0.0485  0.5739
  582loPI   C1A 9303   6.440  12.818   9.987  0.1256 -0.1863  0.1993
  582loPI   C2A 9304   6.348  12.817   9.494 -0.1683 -0.1343  0.1747
  582loPI   C3A 9305   6.369  12.814   9.054 -0.0796 -0.0419  0.1706
  582loPI   C4A 9306   6.360  12.736   8.675 -0.1284 -0.1889  0.1632
  582loPI   C5A 9307   6.085  12.655   8.276 -0.0187  0.1241  0.0875
  582loPI   C6A 9308   5.643  12.527   8.085  0.0444 -0.1893 -0.3814
  582loPI   C1B 9309   6.001  13.049   9.885  0.2828 -0.2335 -0.0486
  582loPI   C2B 9310   5.940  13.059   9.468  0.1087  0.0019 -0.2094
  582loPI   C3B 9311   5.943  13.076   9.013  0.0505 -0.1186 -0.0597
  582loPI   C4B 9312   5.920  12.949   8.674 -0.2136 -0.2456  0.0249
  583loPI    C1 9313   3.773   0.522  11.158 -0.0015  0.0872  0.0683
  583loPI    C2 9314   3.438   0.550  11.375 -0.0476  0.0479  0.0027
  583loPI    C3 9315   3.784   0.459  11.553 -0.0750  0.0696  0.0677
  583loPI   PO4 9316   3.732   0.679  11.004 -0.0582  0.1307  0.1384
  583loPI   GL1 9317   3.835   0.532  10.588 -0.1718 -0.1954 -0.1115
  583loPI   GL2 9318   3.602   0.767  10.524 -0.3233  0.1783 -0.1683
  583loPI   C1A 9319   3.791   0.379  10.222  0.0183 -0.0532 -0.1440
  583loPI   C2A 9320   3.770   0.415   9.771 -0.0305  0.1503  0.0905
  583loPI   C3A 9321   3.785   0.438   9.362 -0.0786 -0.2365 -0.1134
  583loPI   C4A 9322   3.794   0.390   8.990 -0.0165 -0.2152 -0.0833
  583loPI   C5A 9323   3.839   0.517   8.541  0.0270 -0.0936 -0.1778
  583loPI   C6A 9324   3.935   0.435   8.186 -0.1228  0.1960 -0.0557
  583loPI   C1B 9325   3.689   1.030  10.196 -0.1643  0.0817 -0.1601
  583loPI   C2B 9326   3.667   1.009   9.764 -0.5064  0.3229  0.0303
  583loPI   C3B 9327   3.739   0.984   9.391 -0.0701 -0.2730  0.2413
  583loPI   C4B 9328   3.744   0.930   8.946  0.3862 -0.1063  0.3198
  584loPI    C1 9329   4.771   9.476  11.401  0.0565 -0.0557 -0.3037
  584loPI    C2 9330   4.381   9.556  11.438  0.0797  0.0961 -0.3800
  584loPI    C3 9331   4.649   9.850  11.475  0.2018 -0.0472 -0.1002
  584loPI   PO4 9332   4.895   9.308  11.125  0.3640  0.0272  0.0323
  584loPI   GL1 9333   4.854   8.894  10.787 -0.1757 -0.0836  0.1081
  584loPI   GL2 9334   4.870   8.590  10.565 -0.0289 -0.0425 -0.1843
  584loPI   C1A 9335   4.662   9.039  10.391 -0.2613  0.0478 -0.1757
  584loPI   C2A 9336   4.694   8.979   9.930  0.1571  0.0138  0.4310
  584loPI   C3A 9337   4.771   8.928   9.501 -0.0778  0.3109  0.0807
  584loPI   C4A 9338   4.733   8.917   9.131  0.2030  0.2205  0.2765
  584loPI   C5A 9339   4.735   9.011   8.769  0.3105  0.1473 -0.0195
  584loPI   C6A 9340   4.908   9.158   8.445  0.0253 -0.0034  0.0109
  584loPI   C1B 9341   4.707   8.511  10.138  0.0877  0.1553  0.0163
  584loPI   C2B 9342   4.822   8.465   9.670  0.2232 -0.2795  0.0420
  584loPI   C3B 9343   4.864   8.420   9.273 -0.0074 -0.2284  0.0592
  584loPI   C4B 9344   4.815   8.443   8.800  0.1430  0.0346 -0.2260
  585loPI    C1 9345   1.528  14.767  11.108 -0.0099  0.0497  0.0725
  585loPI    C2 9346   1.453  14.622  11.473  0.1107 -0.2622 -0.0240
  585loPI    C3 9347   1.726  14.910  11.425  0.1395 -0.2642  0.1238
  585loPI   PO4 9348   1.336  14.810  10.987 -0.0501 -0.0045  0.0692
  585loPI   GL1 9349   1.402  14.893  10.597 -0.0680 -0.1808  0.2515
  585loPI   GL2 9350   1.711  14.978  10.514 -0.0451 -0.1269  0.1062
  585loPI   C1A 9351   1.397  14.894  10.110 -0.0928 -0.2115 -0.0685
  585loPI   C2A 9352   1.417  14.904   9.704  0.2305 -0.0760  0.1450
  585loPI   C3A 9353   1.356  14.919   9.276  0.1695  0.3073  0.4189
  585loPI   C4A 9354   1.340  14.919   8.821  0.1135 -0.1620 -0.1283
  585loPI   C5A 9355   1.376  14.934   8.376 -0.2235 -0.0169 -0.1625
  585loPI   C6A 9356   1.467  15.073   7.892 -0.0429  0.1188 -0.1126
  585loPI   C1B 9357   1.850  15.006  10.049  0.1551  0.0733 -0.1396
  585loPI   C2B 9358   1.949  15.229   9.772  0.0069 -0.1384  0.1723
  585loPI   C3B 9359   1.959  15.243   9.298 -0.2206 -0.1936  0.3942
  585loPI   C4B 9360   1.780  15.272   8.947  0.1438 -0.1202 -0.0188
  586loPI    C1 9361   7.764  17.084  10.845 -0.0192  0.1263  0.1603
  586loPI    C2 9362   7.912  16.950  11.192  0.1549  0.0793  0.0694
  586loPI    C3 9363   7.716  17.299  11.179 -0.2729 -0.1437  0.3023
  586loPI   PO4 9364   7.910  17.000  10.680 -0.1000  0.0340  0.3326
  586loPI   GL1 9365   7.766  17.003  10.306  0.0618 -0.1850  0.1342
  586loPI   GL2 9366   7.963  17.299  10.215 -0.1878  0.1901  0.0739
  586loPI   C1A 9367   7.675  17.086   9.882  0.0218  0.2801  0.0266
  586loPI   C2A 9368   7.494  17.201   9.462  0.0182 -0.2396 -0.4077
  586loPI   C3A 9369   7.533  17.209   9.176  0.0995  0.0340  0.0198
  586loPI   C4A 9370   7.634  17.064   8.726 -0.0984  0.1539 -0.1725
  586loPI   C5A 9371   7.557  17.040   8.259  0.0107  0.0568 -0.0120
  586loPI   C6A 9372   7.495  17.144   7.830  0.3513 -0.0888  0.0290
  586loPI   C1B 9373   8.006  17.425   9.754  0.1388 -0.0105 -0.4251
  586loPI   C2B 9374   7.914  17.529   9.282 -0.0988  0.1444  0.0721
  586loPI   C3B 9375   7.795  17.500   8.862  0.1247  0.0331 -0.1308
  586loPI   C4B 9376   7.954  17.301   8.461  0.1251 -0.1161  0.3471
  587loPI    C1 9377  13.875  15.400  11.459  0.0359 -0.0223  0.1303
  587loPI    C2 9378  13.736  15.028  11.414 -0.1266  0.0372  0.1370
  587loPI    C3 9379  14.118  15.087  11.513 -0.0167 -0.1203 -0.1777
  587loPI   PO4 9380  13.846  15.499  11.214 -0.1079 -0.0951  0.4761
  587loPI   GL1 9381  13.876  15.429  10.674 -0.1534 -0.0633 -0.0252
  587loPI   GL2 9382  13.598  15.451  10.477 -0.0223  0.1194  0.1765
  587loPI   C1A 9383  13.997  15.245  10.251 -0.0777  0.3244  0.0001
  587loPI   C2A 9384  13.954  15.421   9.936 -0.1065  0.1484  0.1654
  587loPI   C3A 9385  13.852  15.418   9.529  0.0930  0.1548 -0.0247
  587loPI   C4A 9386  13.810  15.377   9.157 -0.3531 -0.0543 -0.2826
  587loPI   C5A 9387  13.870  15.377   8.733  0.2335  0.3507  0.1517
  587loPI   C6A 9388  14.130  15.492   8.396 -0.0243 -0.0172 -0.0397
  587loPI   C1B 9389  13.527  15.205  10.067  0.2168  0.0189  0.1217
  587loPI   C2B 9390  13.429  15.072   9.662 -0.0465  0.1803 -0.1057
  587loPI   C3B 9391  13.347  15.110   9.275  0.1658 -0.3029 -0.0316
  587loPI   C4B 9392  13.409  15.119   8.796  0.2374  0.3484  0.2805
  588loPI    C1 9393  10.607   2.079  11.027 -0.0838  0.0823 -0.2544
  588loPI    C2 9394  10.440   1.730  11.130  0.3690 -0.0710 -0.0103
  588loPI    C3 9395  10.360   2.060  11.341  0.1499 -0.0799 -0.0769
  588loPI   PO4 9396  10.504   2.080  10.798 -0.3745  0.0883  0.0667
  588loPI   GL1 9397  10.243   2.285  10.528 -0.0785 -0.1970  0.2479
  588loPI   GL2 9398  10.463   2.553  10.562 -0.0840 -0.0909  0.2346
  588loPI   C1A 9399  10.376   2.219  10.026  0.1826 -0.0053  0.0026
  588loPI   C2A 9400  10.387   2.044   9.696  0.1542 -0.2405  0.0432
  588loPI   C3A 9401  10.424   2.093   9.341 -0.3396  0.1029 -0.1270
  588loPI   C4A 9402  10.388   2.050   8.891  0.0899  0.0052  0.0408
  588loPI   C5A 9403  10.441   1.895   8.488  0.0900 -0.3395 -0.0961
  588loPI   C6A 9404  10.305   1.407   8.269 -0.0810 -0.0130  0.0013
  588loPI   C1B 9405  10.391   2.678  10.159 -0.1726 -0.0239  0.0541
  588loPI   C2B 9406  10.381   2.638   9.736  0.1165  0.2686 -0.2054
  588loPI   C3B 9407  10.338   2.597   9.386  0.0988  0.3257 -0.0448
  588loPI   C4B 9408  10.222   2.527   8.928 -0.0310 -0.1412 -0.0887
  589loPI    C1 9409   3.620   4.202  11.137  0.2070 -0.2010 -0.1689
  589loPI    C2 9410   3.480   3.961  11.423 -0.1114  0.2600  0.0761
  589loPI    C3 9411   3.239   4.082  11.127  0.1092  0.1013 -0.1730
  589loPI   PO4 9412   3.758   4.130  10.998 -0.0831  0.1742 -0.1190
  589loPI   GL1 9413   3.866   4.186  10.511  0.0538 -0.1374 -0.2808
  589loPI   GL2 9414   3.825   3.926  10.377  0.1105 -0.1564  0.2873
  589loPI   C1A 9415   3.897   4.398  10.175 -0.0170 -0.0146  0.0547
  589loPI   C2A 9416   3.814   4.432   9.824 -0.0961  0.0750  0.3615
  589loPI   C3A 9417   3.778   4.439   9.351 -0.0492 -0.0035 -0.1426
  589loPI   C4A 9418   3.847   4.359   8.788 -0.1047  0.0974 -0.3745
  589loPI   C5A 9419   3.584   4.330   8.445 -0.1452  0.0369 -0.0403
  589loPI   C6A 9420   3.158   4.115   8.495 -0.1110 -0.0108 -0.0427
  589loPI   C1B 9421   3.836   3.974   9.916 -0.4649 -0.2006 -0.0566
  589loPI   C2B 9422   3.795   3.911   9.511 -0.0368  0.1089 -0.0961
  589loPI   C3B 9423   3.790   3.890   9.063  0.0941  0.1697 -0.2257
  589loPI   C4B 9424   3.999   3.889   8.647 -0.0020  0.0311  0.1117
  590loPI    C1 9425   1.996   9.278  11.004  0.1241 -0.0209 -0.1455
  590loPI    C2 9426   2.226   9.569  11.155  0.1405 -0.0285 -0.1556
  590loPI    C3 9427   2.020   9.329  11.400  0.1285 -0.0096 -0.1471
  590loPI   PO4 9428   2.015   9.348  10.729  0.2326 -0.1122  0.0070
  590loPI   GL1 9429   1.917   9.127  10.367  0.2764 -0.1953 -0.0338
  590loPI   GL2 9430   1.612   9.045  10.298 -0.4162  0.0140  0.1119
  590loPI   C1A 9431   2.042   9.180   9.947 -0.4523 -0.0549  0.0106
  590loPI   C2A 9432   1.998   9.221   9.501 -0.0884 -0.0043  0.1250
  590loPI   C3A 9433   2.075   9.205   9.197  0.1555 -0.1265  0.1488
  590loPI   C4A 9434   2.076   9.204   8.787  0.1078 -0.2370  0.0413
  590loPI   C5A 9435   1.880   9.172   8.381  0.2715  0.0796  0.1744
  590loPI   C6A 9436   1.995   9.486   8.063  0.1435 -0.2405  0.0897
  590loPI   C1B 9437   1.639   8.882   9.858 -0.1016  0.2049  0.2620
  590loPI   C2B 9438   1.605   8.835   9.426  0.0213 -0.2477 -0.1137
  590loPI   C3B 9439   1.663   8.880   9.023  0.0228 -0.0139 -0.2908
  590loPI   C4B 9440   1.544   8.836   8.661 -0.4138  0.0234  0.1154
  591loPI    C1 9441   2.749   6.334  11.453  0.1396  0.1577  0.0854
  591loPI    C2 9442   2.925   6.306  11.811  0.1191  0.0211  0.0851
  591loPI    C3 9443   2.527   6.336  11.786  0.1200  0.0237  0.0736
  591loPI   PO4 9444   2.895   6.147  11.319 -0.0320 -0.1714  0.0987
  591loPI   GL1 9445   2.970   6.113  10.901  0.3283 -0.0063  0.1359
  591loPI   GL2 9446   2.755   6.011  10.858 -0.1684  0.0498 -0.0806
  591loPI   C1A 9447   2.846   6.429  10.494  0.1980  0.1498  0.0395
  591loPI   C2A 9448   2.705   6.329  10.084  0.3151 -0.2305  0.1445
  591loPI   C3A 9449   2.681   6.337   9.712 -0.0892  0.2311  0.0550
  591loPI   C4A 9450   2.689   6.350   9.258 -0.0927  0.1032 -0.4430
  591loPI   C5A 9451   2.641   6.365   8.847 -0.0356  0.1624  0.0915
  591loPI   C6A 9452   2.882   6.500   8.565  0.1929  0.1359  0.1076
  591loPI   C1B 9453   2.888   5.929  10.408  0.0288  0.0494 -0.1105
  591loPI   C2B 9454   2.732   5.862  10.026  0.1482  0.2306  0.0291
  591loPI   C3B 9455   2.762   5.818   9.604  0.0491  0.1788  0.2035
  591loPI   C4B 9456   2.776   5.827   9.120  0.1712 -0.2215 -0.1365
  592loPI    C1 9457   6.804   0.248  10.718 -0.1210  0.1019 -0.0233
  592loPI    C2 9458   6.542   0.527  10.836 -0.1103  0.1093 -0.0172
  592loPI    C3 9459   6.829   0.403  11.086 -0.3318 -0.1652  0.1072
  592loPI   PO4 9460   6.839   0.255  10.421 -0.1449  0.0365  0.2490
  592loPI   GL1 9461   6.665   0.469  10.105 -0.1099  0.3489 -0.0265
  592loPI   GL2 9462   6.971   0.598  10.061 -0.3343  0.3291  0.2269
  592loPI   C1A 9463   6.474   0.247   9.772 -0.1139  0.0729 -0.0886
  592loPI   C2A 9464   6.482   0.235   9.400  0.1723  0.0250  0.0728
  592loPI   C3A 9465   6.437   0.152   8.939 -0.2902 -0.1434  0.0878
  592loPI   C4A 9466   6.491   0.065   8.472  0.1346 -0.0407 -0.0571
  592loPI   C5A 9467   6.617   0.128   8.067 -0.0030 -0.0598 -0.1483
  592loPI   C6A 9468   6.609  -0.056   7.634 -0.0678 -0.1292  0.0545
  592loPI   C1B 9469   6.907   0.629   9.639  0.0168  0.0979 -0.1652
  592loPI   C2B 9470   6.799   0.512   9.146 -0.0987  0.0160  0.1083
  592loPI   C3B 9471   6.796   0.523   8.707 -0.0095  0.2825  0.4966
  592loPI   C4B 9472   6.834   0.545   8.251  0.2073 -0.1208  0.2018
  593loPI    C1 9473   2.714  16.529  10.805  0.1270 -0.1124 -0.1649
  593loPI    C2 9474   2.968  16.634  11.095 -0.2831 -0.0346  0.1763
  593loPI    C3 9475   2.776  16.284  11.115 -0.1977 -0.0985 -0.0855
  593loPI   PO4 9476   2.785  16.592  10.548 -0.0341 -0.0476 -0.1668
  593loPI   GL1 9477   2.631  16.903  10.209  0.1468  0.3173 -0.0537
  593loPI   GL2 9478   2.289  17.039  10.202  0.1961  0.3256 -0.3486
  593loPI   C1A 9479   2.676  16.841   9.745  0.1683 -0.1250 -0.1685
  593loPI   C2A 9480   2.692  16.897   9.341  0.3534  0.1692 -0.1212
  593loPI   C3A 9481   2.618  16.886   8.937  0.0977 -0.0208 -0.0447
  593loPI   C4A 9482   2.560  16.979   8.559  0.1104  0.2031 -0.0484
  593loPI   C5A 9483   2.519  17.178   8.170 -0.0451 -0.0667 -0.1221
  593loPI   C6A 9484   2.313  17.424   7.909  0.0986  0.2181  0.0263
  593loPI   C1B 9485   2.187  17.035   9.814 -0.1282 -0.0956 -0.3799
  593loPI   C2B 9486   2.157  17.148   9.311  0.2941  0.1541 -0.0472
  593loPI   C3B 9487   2.129  17.190   8.836 -0.1804  0.4573  0.2742
  593loPI   C4B 9488   2.093  17.288   8.442 -0.2507  0.0586 -0.0338
  594loPI    C1 9489   6.725   8.019  11.336 -0.0103 -0.1761 -0.1388
  594loPI    C2 9490   6.853   7.643  11.297  0.1307 -0.1054 -0.3802
  594loPI    C3 9491   6.908   7.839  11.642 -0.2071 -0.4014 -0.1510
  594loPI   PO4 9492   6.505   8.111  11.156  0.3700  0.1914 -0.0706
  594loPI   GL1 9493   6.373   8.195  10.722  0.0518  0.1367 -0.1211
  594loPI   GL2 9494   6.423   7.949  10.514 -0.4654  0.4016 -0.1497
  594loPI   C1A 9495   6.213   8.354  10.283 -0.1956  0.1802  0.0333
  594loPI   C2A 9496   6.110   8.276   9.879 -0.0736 -0.2824 -0.0224
  594loPI   C3A 9497   6.131   8.354   9.454 -0.0563 -0.3554  0.0392
  594loPI   C4A 9498   6.098   8.282   8.946 -0.1279  0.1126 -0.1287
  594loPI   C5A 9499   6.189   8.328   8.454  0.3261  0.1183 -0.0571
  594loPI   C6A 9500   6.161   8.231   8.044 -0.2713 -0.1335  0.1122
  594loPI   C1B 9501   6.230   7.870  10.158 -0.3481 -0.0755  0.0949
  594loPI   C2B 9502   6.183   7.785   9.754  0.0523 -0.1398 -0.0072
  594loPI   C3B 9503   6.140   7.894   9.311  0.3515  0.0825 -0.2133
  594loPI   C4B 9504   6.108   7.757   8.976  0.0490 -0.1473  0.0367
  595loPI    C1 9505   7.594   2.065  10.851 -0.0806 -0.1523 -0.1746
  595loPI    C2 9506   7.778   1.797  11.084 -0.1615 -0.1236 -0.0771
  595loPI    C3 9507   7.613   2.123  11.247  0.0701  0.0640 -0.2113
  595loPI   PO4 9508   7.759   2.127  10.613 -0.0668  0.1063  0.0384
  595loPI   GL1 9509   7.612   2.075  10.277  0.0141  0.0394 -0.0219
  595loPI   GL2 9510   7.655   1.729  10.164  0.0801 -0.2222  0.1379
  595loPI   C1A 9511   7.626   2.214   9.894  0.1823 -0.1591  0.0626
  595loPI   C2A 9512   7.680   2.154   9.455 -0.1491 -0.2665  0.0464
  595loPI   C3A 9513   7.589   2.193   9.090 -0.1782  0.1300 -0.2024
  595loPI   C4A 9514   7.680   2.114   8.611 -0.2102  0.0484 -0.2470
  595loPI   C5A 9515   7.585   2.027   8.123  0.1289  0.2583  0.0733
  595loPI   C6A 9516   7.384   1.619   7.891 -0.1041  0.1742  0.1345
  595loPI   C1B 9517   7.670   1.736   9.675  0.3684 -0.2079  0.0119
  595loPI   C2B 9518   7.648   1.692   9.212 -0.1959 -0.0904  0.3868
  595loPI   C3B 9519   7.724   1.593   8.729 -0.0517  0.3219 -0.0788
  595loPI   C4B 9520   7.661   1.519   8.283 -0.1074 -0.2225  0.2001
  596loPI    C1 9521   9.045   3.280  11.505 -0.2267 -0.2395 -0.0039
  596loPI    C2 9522   9.091   3.676  11.539  0.1418 -0.2501 -0.3087
  596loPI    C3 9523   8.822   3.486  11.766  0.1239  0.1389  0.0081
  596loPI   PO4 9524   9.030   3.314  11.182  0.0153  0.0916 -0.1205
  596loPI   GL1 9525   8.901   3.553  10.778 -0.2912  0.2122 -0.1107
  596loPI   GL2 9526   9.296   3.491  10.722  0.0091  0.0978  0.0015
  596loPI   C1A 9527   8.886   3.679  10.394 -0.2269 -0.1069  0.1099
  596loPI   C2A 9528   8.932   3.700   9.870 -0.0007 -0.2352 -0.2516
  596loPI   C3A 9529   8.830   3.699   9.461 -0.0749  0.0396  0.3354
  596loPI   C4A 9530   8.798   3.619   9.059 -0.3871  0.2048  0.3525
  596loPI   C5A 9531   8.710   3.678   8.684  0.1607 -0.1334  0.2075
  596loPI   C6A 9532   8.768   3.593   8.283 -0.1149  0.2629 -0.0971
  596loPI   C1B 9533   9.312   3.500  10.207 -0.0248  0.1940  0.2891
  596loPI   C2B 9534   9.335   3.461   9.726  0.0517  0.0622 -0.3278
  596loPI   C3B 9535   9.312   3.485   9.375  0.0079  0.2421  0.0514
  596loPI   C4B 9536   9.285   3.385   8.957 -0.4953  0.1103  0.0090
  597loPI    C1 9537  11.185  15.272  10.913  0.0480 -0.0062 -0.0413
  597loPI    C2 9538  11.356  15.185  11.264 -0.0731 -0.1260 -0.0112
  597loPI    C3 9539  11.107  15.497  11.234 -0.0191 -0.0822 -0.0042
  597loPI   PO4 9540  11.263  15.224  10.761 -0.1637 -0.1335  0.0408
  597loPI   GL1 9541  11.128  15.200  10.297 -0.2010  0.1090 -0.4575
  597loPI   GL2 9542  11.124  14.889  10.367  0.1306 -0.0742  0.0479
  597loPI   C1A 9543  11.097  15.171   9.961  0.0075 -0.2489  0.1366
  597loPI   C2A 9544  11.046  15.190   9.528  0.0926  0.0784  0.0849
  597loPI   C3A 9545  11.148  15.225   9.033  0.1624  0.0189  0.1438
  597loPI   C4A 9546  11.267  15.095   8.684  0.3398  0.1582 -0.0362
  597loPI   C5A 9547  11.154  14.932   8.276  0.0592  0.1853 -0.1043
  597loPI   C6A 9548  11.182  14.808   7.908  0.0192 -0.1234 -0.1620
  597loPI   C1B 9549  11.071  14.633  10.011 -0.3428 -0.0022  0.0089
  597loPI   C2B 9550  11.221  14.532   9.517  0.1718  0.1007 -0.3522
  597loPI   C3B 9551  11.267  14.510   9.096 -0.0764  0.0814 -0.1429
  597loPI   C4B 9552  11.240  14.584   8.632 -0.1267  0.1793 -0.0303
  598loPI    C1 9553   5.329  11.227  11.093 -0.0667 -0.1499  0.1111
  598loPI    C2 9554   5.591  10.999  11.291 -0.1877 -0.3275  0.0687
  598loPI    C3 9555   5.303  11.192  11.490  0.1432  0.0993  0.1503
  598loPI   PO4 9556   5.330  11.170  10.881  0.3848 -0.4603 -0.0390
  598loPI   GL1 9557   5.241  11.049  10.516  0.1011 -0.1144 -0.1426
  598loPI   GL2 9558   5.034  11.221  10.468  0.2566 -0.2922 -0.1773
  598loPI   C1A 9559   5.313  10.739  10.196 -0.1505 -0.0128 -0.0884
  598loPI   C2A 9560   5.438  10.656   9.676  0.1853  0.0998  0.1799
  598loPI   C3A 9561   5.457  10.557   9.219 -0.0217  0.0545 -0.0329
  598loPI   C4A 9562   5.479  10.553   8.747 -0.3308  0.1342  0.2378
  598loPI   C5A 9563   5.342  10.719   8.402  0.1222 -0.1562  0.2781
  598loPI   C6A 9564   4.974  10.670   8.269 -0.2052 -0.2691 -0.1382
  598loPI   C1B 9565   4.895  11.480  10.066 -0.1778  0.4029 -0.0001
  598loPI   C2B 9566   4.855  11.490   9.678  0.0085  0.1166 -0.0655
  598loPI   C3B 9567   4.920  11.269   9.324 -0.0327  0.0028  0.0411
  598loPI   C4B 9568   4.996  11.231   8.980 -0.0374  0.1074  0.0419
  599loPI    C1 9569  12.836   7.303  11.151 -0.0740 -0.1427  0.0361
  599loPI    C2 9570  13.077   7.557  11.343 -0.0402 -0.1302 -0.0227
  599loPI    C3 9571  13.135   7.163  11.377  0.0863 -0.1247 -0.1617
  599loPI   PO4 9572  12.901   7.309  10.910  0.0171 -0.1564  0.0056
  599loPI   GL1 9573  12.963   7.246  10.393 -0.1938 -0.0752  0.0985
  599loPI   GL2 9574  13.263   7.329  10.392 -0.1025  0.0782  0.3175
  599loPI   C1A 9575  12.852   6.883  10.097  0.0631  0.1701  0.0679
  599loPI   C2A 9576  12.765   6.855   9.630  0.3189  0.2600  0.5173
  599loPI   C3A 9577  12.912   6.913   9.270 -0.2240  0.0961  0.0871
  599loPI   C4A 9578  12.811   6.916   8.892 -0.2062 -0.1531  0.0909
  599loPI   C5A 9579  12.976   6.880   8.403 -0.0463  0.1166 -0.3053
  599loPI   C6A 9580  13.008   7.007   8.040  0.6119 -0.0761  0.0650
  599loPI   C1B 9581  13.359   7.186  10.042 -0.2443 -0.2061  0.2694
  599loPI   C2B 9582  13.334   7.125   9.653  0.2811  0.0482 -0.0533
  599loPI   C3B 9583  13.333   7.262   9.222  0.1572  0.1581 -0.2150
  599loPI   C4B 9584  13.291   7.188   8.777  0.2481 -0.1738 -0.0903
  600loPI    C1 9585  14.376   9.226  11.072  0.3112 -0.1126  0.0283
  600loPI    C2 9586  14.443   9.041  11.420  0.1312 -0.1017  0.0693
  600loPI    C3 9587  14.536   9.428  11.377  0.0890 -0.0849  0.1276
  600loPI   PO4 9588  14.483   9.152  10.880  0.0016  0.0666  0.1193
  600loPI   GL1 9589  14.507   8.965  10.379  0.0262 -0.0100 -0.1664
  600loPI   GL2 9590  14.470   8.626  10.296 -0.1039  0.1522 -0.0384
  600loPI   C1A 9591  14.396   9.135   9.979  0.1415 -0.0487 -0.1099
  600loPI   C2A 9592  14.373   9.116   9.590 -0.1737  0.1693 -0.0185
  600loPI   C3A 9593  14.423   9.094   9.152  0.0417  0.1091  0.2784
  600loPI   C4A 9594  14.489   9.280   8.701  0.2065  0.1795 -0.1941
  600loPI   C5A 9595  14.290   9.131   8.376 -0.0844  0.1472  0.1640
  600loPI   C6A 9596  14.081   9.109   7.958 -0.0462  0.1878 -0.0878
  600loPI   C1B 9597  14.524   8.657   9.824 -0.1922  0.0194  0.0822
  600loPI   C2B 9598  14.562   8.689   9.431  0.1465 -0.1515  0.0062
  600loPI   C3B 9599  14.489   8.579   8.955  0.2492  0.1149 -0.0967
  600loPI   C4B 9600  14.427   8.680   8.622  0.1432 -0.2332 -0.1260
  601loPI    C1 9601   2.202   1.453  11.437 -0.0482 -0.0568 -0.1330
  601loPI    C2 9602   2.144   1.559  11.819  0.1700 -0.0100 -0.1118
  601loPI    C3 9603   2.242   1.181  11.728  0.2230  0.0037 -0.1115
  601loPI   PO4 9604   2.022   1.546  11.334  0.0558 -0.2763  0.1507
  601loPI   GL1 9605   1.931   1.747  11.031  0.1408  0.0096  0.0490
  601loPI   GL2 9606   1.760   1.554  10.841 -0.0161  0.0561 -0.0412
  601loPI   C1A 9607   1.893   1.973  10.635 -0.1321 -0.0583 -0.1925
  601loPI   C2A 9608   1.871   1.883  10.188  0.0374 -0.0801  0.1002
  601loPI   C3A 9609   1.828   1.950   9.687  0.2820  0.0874 -0.2128
  601loPI   C4A 9610   1.898   1.857   9.329  0.2806  0.1664  0.1129
  601loPI   C5A 9611   1.830   1.949   8.933 -0.0184  0.0464  0.0717
  601loPI   C6A 9612   1.680   1.876   8.500 -0.1507 -0.0026 -0.1527
  601loPI   C1B 9613   1.500   1.502  10.466 -0.0161  0.0029 -0.1789
  601loPI   C2B 9614   1.541   1.496   9.984 -0.2536 -0.1617 -0.1004
  601loPI   C3B 9615   1.474   1.529   9.534  0.2744  0.0525 -0.0378
  601loPI   C4B 9616   1.434   1.651   9.151 -0.2380 -0.1231 -0.1423
  602loPI    C1 9617   6.214  13.990  10.826  0.1286  0.1057 -0.0590
  602loPI    C2 9618   6.261  13.746  11.139 -0.1360 -0.1093 -0.1832
  602loPI    C3 9619   6.388  14.124  11.160  0.0107 -0.1723  0.1176
  602loPI   PO4 9620   6.230  13.848  10.624  0.1840 -0.2619  0.1188
  602loPI   GL1 9621   6.348  14.052  10.288  0.1139 -0.0305  0.0214
  602loPI   GL2 9622   6.637  13.927  10.229 -0.1725 -0.0752  0.2043
  602loPI   C1A 9623   6.406  14.318   9.951  0.1780  0.1089 -0.2740
  602loPI   C2A 9624   6.205  14.404   9.499 -0.0116  0.2513  0.0950
  602loPI   C3A 9625   6.145  14.349   9.081  0.1351 -0.3394  0.3997
  602loPI   C4A 9626   6.124  14.213   8.619  0.0701  0.0646  0.1950
  602loPI   C5A 9627   6.203  14.189   8.181 -0.2744 -0.0075 -0.0897
  602loPI   C6A 9628   6.166  14.343   7.782 -0.0151  0.0666 -0.0459
  602loPI   C1B 9629   6.410  13.842   9.824  0.0706 -0.2242 -0.2288
  602loPI   C2B 9630   6.244  13.893   9.424  0.2057 -0.0522  0.1855
  602loPI   C3B 9631   6.169  13.788   9.012  0.3082  0.1496  0.1778
  602loPI   C4B 9632   6.156  13.663   8.539 -0.2315  0.0465 -0.1125
  603loPI    C1 9633   2.438   1.867  11.287  0.0489  0.2159  0.0022
  603loPI    C2 9634   2.110   2.009  11.468 -0.0296  0.1543 -0.0904
  603loPI    C3 9635   2.440   1.932  11.682 -0.0344  0.3336 -0.0163
  603loPI   PO4 9636   2.484   1.898  11.080 -0.0977  0.0872  0.2040
  603loPI   GL1 9637   2.455   2.015  10.787 -0.0889 -0.4947 -0.1821
  603loPI   GL2 9638   2.703   1.747  10.660  0.1086 -0.1352 -0.4326
  603loPI   C1A 9639   2.319   2.052  10.422 -0.1785 -0.1114 -0.1128
  603loPI   C2A 9640   2.270   2.119   9.990 -0.2860 -0.3242  0.0674
  603loPI   C3A 9641   2.277   2.162   9.512  0.1383  0.2941 -0.3021
  603loPI   C4A 9642   2.294   2.227   9.059 -0.0965  0.3198  0.2053
  603loPI   C5A 9643   2.251   2.205   8.712  0.2278 -0.1491  0.3885
  603loPI   C6A 9644   2.231   2.458   8.382 -0.0242  0.0968  0.3858
  603loPI   C1B 9645   2.768   1.924  10.266 -0.2246  0.0243  0.3950
  603loPI   C2B 9646   2.703   1.969   9.767 -0.1375 -0.2079 -0.0777
  603loPI   C3B 9647   2.722   2.000   9.300  0.1498  0.1227  0.0756
  603loPI   C4B 9648   2.699   1.961   8.849  0.0144 -0.3588  0.0464
  604loPI    C1 9649   8.947   6.405  11.369  0.2425 -0.1409 -0.0541
  604loPI    C2 9650   9.184   6.656  11.572  0.0169  0.0861 -0.0674
  604loPI    C3 9651   8.810   6.587  11.698  0.0279 -0.1295 -0.1483
  604loPI   PO4 9652   9.120   6.455  11.093  0.0452  0.3711  0.1722
  604loPI   GL1 9653   9.113   6.268  10.575  0.1113 -0.4398  0.1542
  604loPI   GL2 9654   9.335   6.456  10.314  0.0252 -0.2255 -0.1133
  604loPI   C1A 9655   8.987   6.051  10.219 -0.0636  0.1485  0.1308
  604loPI   C2A 9656   9.060   6.004   9.706 -0.0140 -0.0277  0.0760
  604loPI   C3A 9657   8.942   5.954   9.317  0.0546  0.1017  0.0919
  604loPI   C4A 9658   9.026   5.975   8.880 -0.2420 -0.2743  0.1578
  604loPI   C5A 9659   8.812   6.043   8.442  0.3383 -0.1002  0.0175
  604loPI   C6A 9660   8.706   6.323   8.168 -0.1391 -0.3045 -0.1078
  604loPI   C1B 9661   9.391   6.385   9.794 -0.0017 -0.1450 -0.1002
  604loPI   C2B 9662   9.313   6.286   9.365 -0.0892  0.1691 -0.2678
  604loPI   C3B 9663   9.413   6.430   8.888  0.1815  0.1256  0.3277
  604loPI   C4B 9664   9.309   6.226   8.482 -0.1349 -0.0682 -0.1567
  605loPI    C1 9665  12.085   1.029  11.181 -0.0049 -0.1228  0.0315
  605loPI    C2 9666  11.919   0.690  11.315  0.1526 -0.1644  0.1246
  605loPI    C3 9667  12.309   0.756  11.370  0.0938  0.0995  0.2410
  605loPI   PO4 9668  12.077   0.990  10.922 -0.0894  0.2114 -0.2874
  605loPI   GL1 9669  12.264   1.281  10.673  0.1306 -0.1582  0.1153
  605loPI   GL2 9670  12.530   1.345  10.679 -0.0019  0.0425  0.1412
  605loPI   C1A 9671  12.155   1.202  10.291  0.1287 -0.0249 -0.1345
  605loPI   C2A 9672  12.182   1.275   9.901  0.0245 -0.4514  0.4102
  605loPI   C3A 9673  12.197   1.284   9.424 -0.1929 -0.0433  0.0667
  605loPI   C4A 9674  12.283   1.243   9.029  0.1088 -0.0869 -0.1924
  605loPI   C5A 9675  12.306   1.232   8.607  0.1328 -0.0963 -0.2736
  605loPI   C6A 9676  12.041   1.561   8.356 -0.1584 -0.0214 -0.2496
  605loPI   C1B 9677  12.553   1.502  10.319 -0.3277  0.1129  0.0022
  605loPI   C2B 9678  12.637   1.541   9.876  0.0122  0.1001 -0.0187
  605loPI   C3B 9679  12.628   1.571   9.476 -0.2797 -0.4423 -0.0797
  605loPI   C4B 9680  12.744   1.582   9.006  0.0409  0.0377  0.0087
  606loPI    C1 9681   8.431   4.174  11.222  0.1381  0.1325  0.1074
  606loPI    C2 9682   8.090   4.252  11.415 -0.0196  0.0548 -0.1358
  606loPI    C3 9683   8.435   4.400  11.552 -0.1574  0.1839  0.0782
  606loPI   PO4 9684   8.408   4.032  10.987  0.1021 -0.3373 -0.2487
  606loPI   GL1 9685   8.554   3.920  10.632  0.1888  0.0116  0.2638
  606loPI   GL2 9686   8.440   4.161  10.478  0.0947  0.3384 -0.1848
  606loPI   C1A 9687   8.443   3.765  10.181  0.2699 -0.1800 -0.0354
  606loPI   C2A 9688   8.463   3.829   9.716  0.0310 -0.0184  0.0722
  606loPI   C3A 9689   8.391   3.868   9.287  0.3297  0.2670 -0.0713
  606loPI   C4A 9690   8.277   3.724   8.858  0.0780 -0.0154 -0.2027
  606loPI   C5A 9691   8.328   3.915   8.364 -0.1346  0.1871  0.0073
  606loPI   C6A 9692   8.247   4.285   8.223 -0.1199  0.2316  0.1461
  606loPI   C1B 9693   8.456   4.309  10.058 -0.2145  0.3904  0.1337
  606loPI   C2B 9694   8.265   4.400   9.664 -0.3441  0.0618 -0.2793
  606loPI   C3B 9695   8.342   4.392   9.240 -0.1739  0.2803 -0.4092
  606loPI   C4B 9696   8.353   4.254   8.815 -0.1517  0.2303  0.2441
  607loPI    C1 9697   9.726  10.473  10.809 -0.1276 -0.0936 -0.1382
  607loPI    C2 9698   9.536  10.796  10.947 -0.0375 -0.0745 -0.0579
  607loPI    C3 9699   9.523  10.453  11.153 -0.2745 -0.1706 -0.2279
  607loPI   PO4 9700   9.701  10.476  10.635  0.1857  0.0064  0.0314
  607loPI   GL1 9701   9.807  10.640  10.293  0.0082  0.0727  0.0223
  607loPI   GL2 9702   9.937  10.403  10.150  0.1194 -0.1839 -0.0796
  607loPI   C1A 9703   9.643  10.718   9.883  0.1561 -0.1539  0.0436
  607loPI   C2A 9704   9.636  10.711   9.396  0.0942  0.0179 -0.0550
  607loPI   C3A 9705   9.724  10.679   8.984  0.0090  0.0591  0.0645
  607loPI   C4A 9706   9.741  10.764   8.576  0.0858 -0.2292  0.2619
  607loPI   C5A 9707   9.601  10.685   8.290  0.1575  0.1792 -0.3094
  607loPI   C6A 9708   9.611  10.573   7.835  0.1401  0.0820  0.0244
  607loPI   C1B 9709  10.057  10.422   9.722  0.1410  0.0747  0.2484
  607loPI   C2B 9710  10.113  10.496   9.286  0.0608 -0.0883  0.3161
  607loPI   C3B 9711  10.203  10.615   8.836 -0.1012 -0.0295  0.1359
  607loPI   C4B 9712  10.256  10.545   8.460  0.1299  0.0038  0.0803
  608loPI    C1 9713  11.776  10.370  10.932  0.0726 -0.0196  0.0247
  608loPI    C2 9714  11.656  10.748  10.984  0.0822 -0.0130 -0.0004
  608loPI    C3 9715  11.735  10.517  11.302 -0.0539 -0.0360  0.0175
  608loPI   PO4 9716  11.609  10.340  10.723  0.1564 -0.1163 -0.0701
  608loPI   GL1 9717  11.392  10.469  10.359 -0.0602  0.1754  0.1240
  608loPI   GL2 9718  11.367  10.851  10.340  0.0919  0.1707 -0.2271
  608loPI   C1A 9719  11.416  10.399   9.921  0.0304 -0.2236 -0.1548
  608loPI   C2A 9720  11.505  10.430   9.371  0.0868 -0.1659 -0.2909
  608loPI   C3A 9721  11.489  10.495   8.860 -0.3149  0.1159 -0.0473
  608loPI   C4A 9722  11.603  10.452   8.510 -0.1599 -0.1894 -0.0402
  608loPI   C5A 9723  11.610  10.289   8.209 -0.2809 -0.0838  0.0518
  608loPI   C6A 9724  11.526   9.955   7.876 -0.2774  0.0976  0.1593
  608loPI   C1B 9725  11.367  10.904   9.931  0.2024  0.0495  0.0262
  608loPI   C2B 9726  11.421  10.944   9.554  0.0475  0.0752 -0.1319
  608loPI   C3B 9727  11.466  11.021   9.133 -0.1191  0.1516 -0.0855
  608loPI   C4B 9728  11.442  10.987   8.717 -0.1024  0.0266  0.2475
  609POPI    C1 9729  10.285  17.619  11.061  0.0314  0.0050  0.0947
  609POPI    C2 9730  10.030  17.857  11.257 -0.0549  0.0223 -0.0372
  609POPI    C3 9731   9.893  17.539  11.057  0.0089  0.1194 -0.2372
  609POPI   PO4 9732  10.376  17.712  10.785 -0.1856 -0.1042  0.0489
  609POPI   GL1 9733  10.534  17.774  10.427 -0.0578 -0.1265  0.2011
  609POPI   GL2 9734  10.282  17.946  10.314  0.2407  0.0659 -0.2969
  609POPI   C1A 9735  10.404  17.629   9.995 -0.1137  0.0571  0.3678
  609POPI   D2A 9736  10.213  17.590   9.533 -0.3247  0.1031  0.0918
  609POPI   C3A 9737  10.316  17.225   9.351 -0.2179  0.0138  0.1378
  609POPI   C4A 9738  10.710  17.235   9.145 -0.2857 -0.2607  0.0457
  609POPI   C1B 9739  10.176  18.089   9.946  0.1934 -0.0396  0.0978
  609POPI   C2B 9740  10.191  18.105   9.413  0.2155 -0.1724  0.0005
  609POPI   C3B 9741  10.178  18.070   8.999  0.1865  0.2151  0.1689
  609POPI   C4B 9742  10.317  17.984   8.674 -0.1349 -0.2328  0.0101
  610POPI    C1 9743  11.065   9.235  11.008  0.2555  0.1070 -0.1512
  610POPI    C2 9744  11.008   9.523  11.280 -0.1812 -0.2780  0.1816
  610POPI    C3 9745  11.330   9.287  11.304  0.0256 -0.0116  0.0796
  610POPI   PO4 9746  11.073   9.355  10.728 -0.1995  0.0539  0.3670
  610POPI   GL1 9747  10.982   9.606  10.396  0.3525 -0.0829 -0.0484
  610POPI   GL2 9748  10.772   9.775  10.324  0.0455  0.1957 -0.4505
  610POPI   C1A 9749  11.091   9.485  10.006 -0.3466  0.0443 -0.3412
  610POPI   D2A 9750  11.081   9.530   9.592 -0.3916 -0.0534  0.3687
  610POPI   C3A 9751  11.011   9.672   9.212  0.0063  0.1999 -0.1137
  610POPI   C4A 9752  11.201   9.647   8.909  0.1629 -0.0429 -0.1635
  610POPI   C1B 9753  10.630   9.664   9.950 -0.1229  0.1254 -0.2053
  610POPI   C2B 9754  10.598   9.766   9.513 -0.0687  0.1414  0.1956
  610POPI   C3B 9755  10.607   9.854   9.086 -0.5563 -0.0373 -0.3398
  610POPI   C4B 9756  10.785   9.857   8.695 -0.3929 -0.0317 -0.4751
  611POPI    C1 9757   5.651  17.832  10.674 -0.0246 -0.1490 -0.1196
  611POPI    C2 9758   5.922  17.691  10.416  0.1037  0.1774 -0.1689
  611POPI    C3 9759   5.945  17.594  10.803  0.1110 -0.0393 -0.2222
  611POPI   PO4 9760   5.600  18.089  10.552  0.2680 -0.3485  0.2300
  611POPI   GL1 9761   5.726  18.149  10.213 -0.2200  0.0758  0.0800
  611POPI   GL2 9762   5.622  18.487  10.212  0.0127  0.1284 -0.2283
  611POPI   C1A 9763   5.646  18.000   9.819  0.1604  0.0674  0.0777
  611POPI   D2A 9764   5.611  18.001   9.350 -0.0277 -0.1963 -0.1827
  611POPI   C3A 9765   5.590  17.990   8.877  0.1367 -0.4366 -0.1003
  611POPI   C4A 9766   5.478  17.878   8.436 -0.0195 -0.2452  0.0112
  611POPI   C1B 9767   5.616  18.559   9.781 -0.0178 -0.1323  0.2235
  611POPI   C2B 9768   5.615  18.556   9.435  0.0523  0.3357  0.2914
  611POPI   C3B 9769   5.580  18.536   8.978  0.0880 -0.0816  0.0395
  611POPI   C4B 9770   5.614  18.555   8.561  0.1435  0.3176 -0.1125
  612POPI    C1 9771  13.573  10.882  10.771 -0.2944 -0.0123 -0.2300
  612POPI    C2 9772  13.305  11.062  11.007 -0.1776  0.0611 -0.1525
  612POPI    C3 9773  13.488  10.729  11.131 -0.0318  0.1632 -0.0899
  612POPI   PO4 9774  13.496  10.827  10.494 -0.1381 -0.0042  0.1943
  612POPI   GL1 9775  13.237  10.908  10.181 -0.0300 -0.0774 -0.0735
  612POPI   GL2 9776  13.404  11.260  10.161  0.2694  0.0696 -0.0315
  612POPI   C1A 9777  13.371  10.822   9.775 -0.1016  0.0466 -0.0962
  612POPI   D2A 9778  13.269  10.699   9.340 -0.0725  0.2050 -0.2806
  612POPI   C3A 9779  13.280  10.682   8.894  0.1314 -0.0474  0.2349
  612POPI   C4A 9780  13.302  10.484   8.591  0.0219 -0.2102  0.0305
  612POPI   C1B 9781  13.652  11.505   9.848  0.1800 -0.2049 -0.2123
  612POPI   C2B 9782  13.726  11.511   9.376  0.1026 -0.2602 -0.1367
  612POPI   C3B 9783  13.671  11.399   8.983  0.0331 -0.2124  0.2312
  612POPI   C4B 9784  13.720  11.439   8.584 -0.2806 -0.0685 -0.0701
  613POPI    C1 9785   8.196   6.370  11.011 -0.2573 -0.1891  0.2104
  613POPI    C2 9786   8.291   6.068  11.256  0.1684 -0.0347  0.2439
  613POPI    C3 9787   8.444   6.432  11.319  0.0652  0.0707 -0.0928
  613POPI   PO4 9788   8.213   6.230  10.745 -0.0263  0.1850 -0.1681
  613POPI   GL1 9789   8.139   6.154  10.280 -0.1400 -0.0135  0.0416
  613POPI   GL2 9790   8.065   6.405  10.276 -0.0265 -0.0494 -0.0771
  613POPI   C1A 9791   8.105   5.984   9.773  0.1916 -0.5017  0.1251
  613POPI   D2A 9792   8.113   5.853   9.339  0.0419 -0.0618 -0.1381
  613POPI   C3A 9793   8.071   5.887   8.988  0.1251 -0.2045 -0.2335
  613POPI   C4A 9794   8.098   5.835   8.614  0.0008 -0.0064 -0.0704
  613POPI   C1B 9795   8.076   6.559   9.921  0.1123  0.0628 -0.1328
  613POPI   C2B 9796   8.088   6.454   9.564  0.0022  0.1737  0.0470
  613POPI   C3B 9797   8.042   6.368   9.146 -0.2190  0.0011  0.1571
  613POPI   C4B 9798   7.925   6.299   8.766 -0.0183  0.0535  0.0220
  614POPI    C1 9799  15.001   6.035  11.265 -0.0786  0.1024 -0.1696
  614POPI    C2 9800  15.001   6.435  11.282 -0.1147  0.1041 -0.2076
  614POPI    C3 9801  14.748   6.225  11.510  0.0882  0.0935  0.0119
  614POPI   PO4 9802  14.995   5.999  11.010  0.2794 -0.1096 -0.1590
  614POPI   GL1 9803  15.102   5.794  10.711  0.0161  0.0621 -0.0306
  614POPI   GL2 9804  14.944   5.560  10.602  0.1982  0.2267  0.1739
  614POPI   C1A 9805  15.213   5.907  10.317 -0.2113  0.2337  0.1260
  614POPI   D2A 9806  15.278   5.807   9.865 -0.0715 -0.1890  0.0988
  614POPI   C3A 9807  15.295   5.835   9.474 -0.1846  0.3263 -0.0847
  614POPI   C4A 9808  15.241   5.883   8.979 -0.2004  0.0888  0.1228
  614POPI   C1B 9809  14.823   5.536  10.147 -0.0212 -0.0081  0.1767
  614POPI   C2B 9810  14.898   5.492   9.654 -0.2030  0.1481  0.1442
  614POPI   C3B 9811  14.948   5.504   9.212 -0.0876 -0.0416  0.0976
  614POPI   C4B 9812  14.821   5.534   8.790 -0.0997 -0.0177  0.1171
  615POPI    C1 9813  17.488   2.623  11.304 -0.0109  0.0990  0.0666
  615POPI    C2 9814  17.141   2.747  11.461 -0.1818 -0.1747 -0.0876
  615POPI    C3 9815  17.388   2.519  11.678 -0.0090  0.1711  0.0874
  615POPI   PO4 9816  17.346   2.465  10.998  0.0577  0.1659  0.2804
  615POPI   GL1 9817  17.551   2.536  10.593  0.1018 -0.0607 -0.3765
  615POPI   GL2 9818  17.740   2.402  10.665 -0.1170  0.1906  0.0757
  615POPI   C1A 9819  17.489   2.469  10.187 -0.0734  0.1326 -0.0973
  615POPI   D2A 9820  17.471   2.524   9.766 -0.1087 -0.1028  0.0887
  615POPI   C3A 9821  17.508   2.475   9.342  0.1207  0.2004 -0.1899
  615POPI   C4A 9822  17.436   2.513   8.896  0.2365 -0.1413 -0.1741
  615POPI   C1B 9823  17.937   2.239  10.276 -0.2421  0.6078  0.0689
  615POPI   C2B 9824  17.898   2.251   9.839 -0.0497  0.1033  0.2286
  615POPI   C3B 9825  17.940   2.097   9.341  0.0622 -0.2523  0.1896
  615POPI   C4B 9826  17.836   2.179   8.864  0.1452  0.1872 -0.4954
  616POPI    C1 9827   9.437  15.721  10.752  0.2779  0.0405  0.2179
  616POPI    C2 9828   9.098  15.748  10.962  0.1885  0.1488  0.0622
  616POPI    C3 9829   9.353  15.448  11.031 -0.1821 -0.2324 -0.1718
  616POPI   PO4 9830   9.317  15.786  10.490  0.2144 -0.1172  0.0156
  616POPI   GL1 9831   9.130  15.638  10.100 -0.2662  0.0688  0.0717
  616POPI   GL2 9832   8.909  15.660   9.939 -0.1329  0.1587 -0.2545
  616POPI   C1A 9833   9.236  15.561   9.618 -0.0021  0.0410 -0.0283
  616POPI   D2A 9834   9.177  15.487   9.063  0.2745  0.1106 -0.1464
  616POPI   C3A 9835   9.363  15.434   8.716  0.1486  0.1474  0.0485
  616POPI   C4A 9836   9.123  15.388   8.327  0.1538 -0.0797  0.0928
  616POPI   C1B 9837   8.703  15.709   9.509 -0.0844  0.3503 -0.0596
  616POPI   C2B 9838   8.718  15.695   9.101 -0.2064  0.3696  0.2343
  616POPI   C3B 9839   8.833  15.672   8.654 -0.0759 -0.0641  0.0972
  616POPI   C4B 9840   8.716  15.661   8.324 -0.0272  0.1566  0.4443
  617POPI    C1 9841   0.426  14.180  11.091  0.0364 -0.0645 -0.0365
  617POPI    C2 9842   0.617  14.168  11.442 -0.3569 -0.1677  0.1794
  617POPI    C3 9843   0.528  13.828  11.251 -0.0801 -0.1092 -0.0596
  617POPI   PO4 9844   0.586  14.231  10.891  0.1441  0.0719 -0.1383
  617POPI   GL1 9845   0.642  14.344  10.430 -0.0980 -0.2031 -0.1115
  617POPI   GL2 9846   0.368  14.220  10.439 -0.1272 -0.0172  0.0411
  617POPI   C1A 9847   0.587  14.380  10.030  0.2935  0.1653 -0.0446
  617POPI   D2A 9848   0.524  14.250   9.584  0.0288  0.0224  0.1987
  617POPI   C3A 9849   0.479  14.335   9.242  0.2984 -0.2139  0.1300
  617POPI   C4A 9850   0.530  14.379   8.761  0.0808 -0.0453  0.0122
  617POPI   C1B 9851   0.133  14.124   9.984  0.4262 -0.0232 -0.0841
  617POPI   C2B 9852   0.109  14.032   9.600  0.4522 -0.0941 -0.1026
  617POPI   C3B 9853   0.120  14.023   9.179  0.0182  0.0274  0.3493
  617POPI   C4B 9854   0.106  14.018   8.682  0.2283 -0.4557  0.0660
  618POPI    C1 9855   8.438  16.003  10.656  0.3352  0.1365  0.0107
  618POPI    C2 9856   8.559  15.806  10.983 -0.2739 -0.2718  0.0061
  618POPI    C3 9857   8.340  16.138  11.019  0.0080 -0.0826  0.0079
  618POPI   PO4 9858   8.320  15.872  10.507 -0.1982 -0.3500 -0.1856
  618POPI   GL1 9859   8.345  15.854  10.095 -0.1440  0.3176 -0.1360
  618POPI   GL2 9860   8.625  16.081  10.117 -0.1741  0.0167 -0.6398
  618POPI   C1A 9861   8.235  15.966   9.670  0.2827 -0.2975  0.1874
  618POPI   D2A 9862   8.279  15.876   9.210 -0.0633  0.1407  0.2421
  618POPI   C3A 9863   8.238  15.885   8.770  0.1060  0.3928 -0.0148
  618POPI   C4A 9864   8.173  15.827   8.313 -0.4028  0.1247 -0.1953
  618POPI   C1B 9865   8.691  16.192   9.712  0.0939  0.2283 -0.2252
  618POPI   C2B 9866   8.718  16.196   9.331 -0.0270  0.0519  0.4550
  618POPI   C3B 9867   8.663  16.168   8.925  0.1078 -0.1345 -0.2392
  618POPI   C4B 9868   8.577  16.165   8.518  0.1173  0.5980  0.2135
  619POPI    C1 9869  17.684   5.377  11.078  0.0858 -0.2005 -0.4109
  619POPI    C2 9870  18.036   5.448  11.254 -0.0727 -0.1462 -0.1087
  619POPI    C3 9871  17.748   5.255  11.453 -0.2247 -0.1668 -0.3440
  619POPI   PO4 9872  17.765   5.307  10.875 -0.2206 -0.2031 -0.1547
  619POPI   GL1 9873  17.601   5.395  10.441 -0.0635 -0.1282  0.1944
  619POPI   GL2 9874  18.035   5.473  10.391  0.0332  0.1939 -0.1649
  619POPI   C1A 9875  17.661   5.316  10.070 -0.1831  0.1823 -0.0559
  619POPI   D2A 9876  17.602   5.368   9.657  0.0174 -0.1355 -0.1889
  619POPI   C3A 9877  17.530   5.380   9.203  0.1307  0.0919  0.2382
  619POPI   C4A 9878  17.513   5.346   8.765 -0.0989  0.1037  0.1381
  619POPI   C1B 9879  18.018   5.648   9.959 -0.0025  0.0395 -0.2924
  619POPI   C2B 9880  17.992   5.664   9.511 -0.0892  0.0201 -0.1987
  619POPI   C3B 9881  17.946   5.682   9.037 -0.0568 -0.0098  0.0715
  619POPI   C4B 9882  17.986   5.644   8.612  0.1768 -0.3485 -0.1241
  620POPI    C1 9883   6.232  10.453  10.767  0.1279  0.0079 -0.0568
  620POPI    C2 9884   5.996  10.186  10.949 -0.1567  0.2421 -0.0745
  620POPI    C3 9885   6.214  10.442  11.166  0.0496  0.0561 -0.0588
  620POPI   PO4 9886   6.232  10.355  10.520  0.0781 -0.2407 -0.0377
  620POPI   GL1 9887   6.438  10.090  10.203  0.0117 -0.1008 -0.1807
  620POPI   GL2 9888   6.097  10.078  10.142  0.0688  0.2348  0.0053
  620POPI   C1A 9889   6.460  10.238   9.761 -0.1068  0.2003 -0.0211
  620POPI   D2A 9890   6.488  10.322   9.314 -0.1635  0.0752 -0.0392
  620POPI   C3A 9891   6.476  10.094   8.942 -0.1124  0.1518  0.0133
  620POPI   C4A 9892   6.497  10.190   8.588  0.1405 -0.2047  0.0660
  620POPI   C1B 9893   5.977   9.930   9.817  0.1484  0.0813 -0.1241
  620POPI   C2B 9894   5.971   9.991   9.428  0.2787  0.1611 -0.1986
  620POPI   C3B 9895   6.085   9.872   9.088 -0.0539  0.2271  0.3463
  620POPI   C4B 9896   6.078   9.824   8.662  0.1507 -0.1284 -0.3974
  621POPI    C1 9897   1.392  13.269  10.887  0.0051  0.0561  0.1100
  621POPI    C2 9898   1.556  13.079  11.198 -0.0864  0.0467  0.1525
  621POPI    C3 9899   1.293  13.374  11.259 -0.0192  0.1209  0.0853
  621POPI   PO4 9900   1.336  13.038  10.686  0.0325 -0.0230 -0.2363
  621POPI   GL1 9901   1.190  13.109  10.296  0.0179  0.1721  0.0074
  621POPI   GL2 9902   1.121  13.362  10.353 -0.0160 -0.2668  0.0292
  621POPI   C1A 9903   1.129  13.116   9.896  0.0339 -0.0176 -0.3143
  621POPI   D2A 9904   1.034  13.150   9.433  0.0393 -0.0520 -0.2492
  621POPI   C3A 9905   1.116  13.022   8.967  0.0277 -0.1445 -0.0903
  621POPI   C4A 9906   1.119  12.910   8.575  0.1005  0.2499 -0.0892
  621POPI   C1B 9907   1.064  13.630   9.929 -0.0307  0.1305 -0.0415
  621POPI   C2B 9908   1.023  13.626   9.440 -0.0398 -0.0590 -0.1203
  621POPI   C3B 9909   1.020  13.653   9.061 -0.1570 -0.0638  0.1176
  621POPI   C4B 9910   0.928  13.438   8.687  0.0195 -0.0049 -0.1340
  622POPI    C1 9911  11.344   5.874  11.238  0.1664 -0.2126 -0.1401
  622POPI    C2 9912  11.636   6.013  11.472  0.1864 -0.1804 -0.1840
  622POPI    C3 9913  11.385   6.268  11.294 -0.0678 -0.2209  0.1084
  622POPI   PO4 9914  11.425   5.795  10.925  0.2063  0.0705 -0.3721
  622POPI   GL1 9915  11.134   5.576  10.641  0.0622  0.1620  0.1451
  622POPI   GL2 9916  10.745   5.673  10.613 -0.0753 -0.1692  0.3021
  622POPI   C1A 9917  11.297   5.627  10.283 -0.0079  0.3689  0.2305
  622POPI   D2A 9918  11.191   5.636   9.811  0.0190  0.1745  0.1736
  622POPI   C3A 9919  11.267   5.628   9.333 -0.2674 -0.1066 -0.2085
  622POPI   C4A 9920  11.276   5.653   8.929 -0.1007 -0.0953 -0.1941
  622POPI   C1B 9921  10.805   5.744  10.157 -0.1779  0.2182  0.3822
  622POPI   C2B 9922  10.738   5.740   9.684  0.1123  0.3013 -0.2194
  622POPI   C3B 9923  10.803   5.786   9.285 -0.2961  0.0035 -0.1628
  622POPI   C4B 9924  10.765   6.020   8.841 -0.1526  0.1394 -0.1372
  623POPI    C1 9925   7.185  16.435  10.484  0.0270  0.0899  0.0614
  623POPI    C2 9926   7.344  16.123  10.677  0.1213  0.0831 -0.0261
  623POPI    C3 9927   7.254  16.457  10.877 -0.2560 -0.1028  0.1249
  623POPI   PO4 9928   6.968  16.286  10.404 -0.0047 -0.1559 -0.1924
  623POPI   GL1 9929   6.590  16.314  10.121  0.0398  0.1742  0.0282
  623POPI   GL2 9930   6.842  16.077   9.958  0.0631 -0.1523 -0.2599
  623POPI   C1A 9931   6.406  16.146   9.730  0.0146  0.1257 -0.0241
  623POPI   D2A 9932   6.343  16.307   9.227  0.1094 -0.3292  0.0030
  623POPI   C3A 9933   6.309  16.146   8.953  0.0608  0.0298 -0.0556
  623POPI   C4A 9934   6.408  16.189   8.480 -0.0928 -0.0571 -0.0140
  623POPI   C1B 9935   6.877  16.116   9.544 -0.1373  0.0368  0.1184
  623POPI   C2B 9936   6.749  16.038   9.174 -0.0315 -0.0242 -0.3502
  623POPI   C3B 9937   6.810  15.937   8.763  0.0160 -0.1375 -0.2369
  623POPI   C4B 9938   6.810  15.917   8.332  0.1266 -0.0309 -0.5199
  624POPI    C1 9939  11.382   1.657  11.169  0.1513 -0.0717  0.2173
  624POPI    C2 9940  11.058   1.865  11.276 -0.0491 -0.1495 -0.2140
  624POPI    C3 9941  11.421   2.034  11.296 -0.1500  0.0524 -0.0472
  624POPI   PO4 9942  11.338   1.509  10.979  0.1033  0.1259 -0.0048
  624POPI   GL1 9943  11.249   1.493  10.544  0.3114  0.1957  0.1536
  624POPI   GL2 9944  11.655   1.479  10.490 -0.3987 -0.0678 -0.2824
  624POPI   C1A 9945  11.226   1.573  10.113  0.2329 -0.1029  0.0820
  624POPI   D2A 9946  11.315   1.663   9.642  0.0881 -0.0104 -0.0922
  624POPI   C3A 9947  11.329   1.732   9.219  0.3490  0.0743 -0.1037
  624POPI   C4A 9948  11.333   1.540   8.808  0.1290 -0.0433  0.2614
  624POPI   C1B 9949  11.647   1.438  10.129 -0.0178 -0.1129  0.0201
  624POPI   C2B 9950  11.780   1.480   9.731 -0.0882  0.2577 -0.2231
  624POPI   C3B 9951  11.751   1.496   9.281  0.1638 -0.0719  0.0039
  624POPI   C4B 9952  11.811   1.388   8.823  0.1187  0.2672 -0.0994
  625DPPI    C1 9953  15.867   1.882  11.413 -0.0093  0.0651  0.0601
  625DPPI    C2 9954  16.227   1.720  11.477 -0.0826 -0.1037  0.0502
  625DPPI    C3 9955  15.925   1.640  11.726 -0.1472 -0.0680 -0.0164
  625DPPI   PO4 9956  15.713   1.846  11.152 -0.2826 -0.0403  0.0521
  625DPPI   GL1 9957  15.721   1.741  10.692 -0.3250 -0.0411 -0.1075
  625DPPI   GL2 9958  15.740   2.104  10.656 -0.1109 -0.2454  0.2169
  625DPPI   C1A 9959  15.719   1.738  10.257  0.0340 -0.0081 -0.0758
  625DPPI   C2A 9960  15.717   1.714   9.804 -0.1494  0.0120  0.0833
  625DPPI   C3A 9961  15.692   1.709   9.375  0.0412  0.2795  0.0339
  625DPPI   C4A 9962  15.604   1.580   8.948  0.0992 -0.3594  0.3233
  625DPPI   C1B 9963  15.647   2.305  10.279  0.0340  0.0859 -0.1068
  625DPPI   C2B 9964  15.730   2.235   9.861  0.1206  0.2281  0.2937
  625DPPI   C3B 9965  15.684   2.218   9.379 -0.0165 -0.0416  0.2479
  625DPPI   C4B 9966  15.573   2.123   8.962 -0.0372 -0.1363  0.0255
  626DPPI    C1 9967  15.254   9.858  11.298 -0.2809  0.0921 -0.0103
  626DPPI    C2 9968  15.032   9.656  11.563  0.0765 -0.1330  0.1272
  626DPPI    C3 9969  15.429   9.615  11.564  0.1294  0.3081 -0.0747
  626DPPI   PO4 9970  15.286   9.749  11.076 -0.0051  0.3768 -0.0288
  626DPPI   GL1 9971  15.176   9.618  10.616 -0.2114 -0.1945 -0.0771
  626DPPI   GL2 9972  14.886   9.855  10.387  0.0972  0.3071 -0.0451
  626DPPI   C1A 9973  15.269   9.737  10.168  0.0647 -0.0437 -0.0435
  626DPPI   C2A 9974  15.287   9.755   9.758 -0.0275 -0.1697  0.0148
  626DPPI   C3A 9975  15.252   9.752   9.341 -0.1494 -0.1273 -0.0606
  626DPPI   C4A 9976  15.306   9.909   8.917  0.2764 -0.2399  0.1940
  626DPPI   C1B 9977  14.790   9.941   9.985  0.1588 -0.0656  0.0458
  626DPPI   C2B 9978  14.835   9.908   9.544 -0.0853 -0.0091 -0.1643
  626DPPI   C3B 9979  14.755   9.941   9.205  0.3964 -0.1434  0.0548
  626DPPI   C4B 9980  14.830  10.105   8.814 -0.0706  0.1616  0.2076
  627DPPI    C1 9981  10.623   0.667  11.055  0.1011 -0.1432 -0.0557
  627DPPI    C2 9982  10.374   0.805  11.336  0.1410  0.0730 -0.1250
  627DPPI    C3 9983  10.340   0.428  11.207  0.0314  0.0156  0.0674
  627DPPI   PO4 9984  10.576   0.784  10.864 -0.0146  0.0274 -0.0702
  627DPPI   GL1 9985  10.710   0.872  10.433  0.1817 -0.1951  0.0369
  627DPPI   GL2 9986  10.774   1.280  10.389  0.2142  0.0050  0.0395
  627DPPI   C1A 9987  10.934   0.782  10.070  0.0121 -0.1128 -0.1608
  627DPPI   C2A 9988  10.986   0.893   9.632  0.1024 -0.0848  0.5039
  627DPPI   C3A 9989  10.951   0.893   9.233  0.2079 -0.2190  0.1015
  627DPPI   C4A 9990  10.975   0.913   8.800 -0.4657  0.2005 -0.0456
  627DPPI   C1B 9991  10.836   1.308   9.894  0.2374 -0.1776  0.0891
  627DPPI   C2B 9992  10.953   1.392   9.450  0.2542 -0.0088  0.0375
  627DPPI   C3B 9993  10.896   1.367   9.022  0.0142  0.0350 -0.1571
  627DPPI   C4B 9994  10.888   1.353   8.605  0.1468  0.1311 -0.2184
  628DPPI    C1 9995   9.763  16.095  10.964  0.2188 -0.1575 -0.0373
  628DPPI    C2 9996   9.820  15.887  11.300  0.2144  0.0468  0.0916
  628DPPI    C3 9997   9.746  16.279  11.318 -0.1655 -0.0098 -0.1280
  628DPPI   PO4 9998   9.934  15.996  10.785 -0.0884 -0.1508  0.1052
  628DPPI   GL1 9999   9.905  15.978  10.436 -0.0400 -0.0282  0.4455
  628DPPI   GL210000   9.657  15.836  10.151 -0.0582  0.1620 -0.2768
  628DPPI   C1A10001  10.021  16.111   9.942  0.2868  0.1185  0.1110
  628DPPI   C2A10002   9.946  16.133   9.422  0.1691  0.0790 -0.1860
  628DPPI   C3A10003  10.043  16.127   8.927 -0.1170 -0.1765 -0.0775
  628DPPI   C4A10004  10.076  16.066   8.451  0.1992 -0.2236 -0.0334
  628DPPI   C1B10005   9.647  15.834   9.709  0.1547  0.2423 -0.1250
  628DPPI   C2B10006   9.590  15.832   9.302 -0.1413 -0.1131 -0.4179
  628DPPI   C3B10007   9.700  15.710   8.941 -0.2412 -0.0179  0.1584
  628DPPI   C4B10008   9.772  15.681   8.507  0.2050 -0.1927 -0.3213
  629DPPI    C110009   7.390  11.259  10.771 -0.0376 -0.0384  0.0069
  629DPPI    C210010   7.120  11.141  11.041 -0.0831  0.1903  0.0636
  629DPPI    C310011   7.508  11.151  11.137 -0.0985  0.2650  0.1189
  629DPPI   PO410012   7.233  11.484  10.659  0.0388 -0.2614 -0.4972
  629DPPI   GL110013   7.208  11.611  10.269 -0.0010 -0.0766  0.1396
  629DPPI   GL210014   7.127  11.947  10.144  0.0367  0.3007 -0.1730
  629DPPI   C1A10015   7.218  11.388   9.844 -0.0925  0.2469  0.0855
  629DPPI   C2A10016   7.310  11.316   9.419  0.2344 -0.0150  0.1380
  629DPPI   C3A10017   7.312  11.306   8.899 -0.2145 -0.2558  0.5603
  629DPPI   C4A10018   7.363  11.240   8.498 -0.0552 -0.3146 -0.1602
  629DPPI   C1B10019   7.238  11.870   9.700  0.2773  0.0445 -0.0327
  629DPPI   C2B10020   7.296  11.815   9.328  0.0119  0.1762 -0.2561
  629DPPI   C3B10021   7.244  11.819   8.886 -0.3185  0.1516  0.0761
  629DPPI   C4B10022   7.264  11.734   8.382 -0.2543 -0.1778 -0.0691
  630DPPI    C110023   2.970  13.431  10.732  0.1074 -0.0502  0.0040
  630DPPI    C210024   2.637  13.483  10.949  0.2006 -0.1773  0.1797
  630DPPI    C310025   2.864  13.158  11.005  0.3279 -0.1164  0.0248
  630DPPI   PO410026   2.874  13.432  10.447  0.2179  0.1954 -0.1584
  630DPPI   GL110027   2.797  13.515  10.064 -0.2106  0.3285 -0.0212
  630DPPI   GL210028   2.496  13.436   9.939  0.1852 -0.1297  0.1807
  630DPPI   C1A10029   2.917  13.504   9.684 -0.0384  0.0373  0.1073
  630DPPI   C2A10030   2.830  13.414   9.251  0.1521 -0.0210  0.0703
  630DPPI   C3A10031   2.861  13.284   8.804 -0.3074 -0.1712  0.0500
  630DPPI   C4A10032   2.768  13.183   8.375  0.1786  0.0924 -0.0488
  630DPPI   C1B10033   2.356  13.434   9.445  0.0426  0.2118 -0.1429
  630DPPI   C2B10034   2.422  13.549   8.997  0.0473 -0.2881 -0.1487
  630DPPI   C3B10035   2.380  13.556   8.574  0.0116  0.0752 -0.1222
  630DPPI   C4B10036   2.512  13.838   8.225  0.0012 -0.2498 -0.1117
  631DPPI    C110037  13.885   8.362  11.139  0.0048  0.0353 -0.1838
  631DPPI    C210038  13.490   8.387  11.199  0.0582  0.0033  0.2075
  631DPPI    C310039  13.744   8.496  11.489  0.3376 -0.0562 -0.0103
  631DPPI   PO410040  13.920   8.344  10.959  0.0076  0.0142 -0.0140
  631DPPI   GL110041  14.007   8.348  10.560  0.0166 -0.1976  0.1036
  631DPPI   GL210042  13.806   8.142  10.431  0.2078  0.2176 -0.1282
  631DPPI   C1A10043  14.113   8.424  10.072  0.2033  0.3070  0.0535
  631DPPI   C2A10044  14.086   8.341   9.657  0.2601 -0.0206 -0.1860
  631DPPI   C3A10045  14.214   8.368   9.256  0.1067  0.1625  0.0180
  631DPPI   C4A10046  14.050   8.261   8.815 -0.0993  0.1568  0.0285
  631DPPI   C1B10047  13.679   8.165  10.017  0.0488 -0.2928  0.2166
  631DPPI   C2B10048  13.643   8.021   9.646  0.2462  0.3515  0.2079
  631DPPI   C3B10049  13.750   8.018   9.181 -0.0139 -0.1565 -0.0572
  631DPPI   C4B10050  13.635   8.001   8.832  0.0393  0.0468 -0.1901
  632DPPI    C110051  17.415  16.749  11.388  0.1785  0.1529  0.0110
  632DPPI    C210052  17.019  16.696  11.402  0.2380 -0.2505  0.4201
  632DPPI    C310053  17.190  16.986  11.618  0.1475  0.0990  0.0364
  632DPPI   PO410054  17.444  16.707  11.125 -0.1926  0.0321 -0.2138
  632DPPI   GL110055  17.273  16.730  10.762  0.1412  0.2471  0.3804
  632DPPI   GL210056  17.020  16.533  10.619  0.1054 -0.0054  0.4149
  632DPPI   C1A10057  17.481  16.835  10.453 -0.2028 -0.3317 -0.1100
  632DPPI   C2A10058  17.393  16.784  10.036 -0.3261 -0.2997 -0.0123
  632DPPI   C3A10059  17.439  16.795   9.583 -0.0105  0.1897  0.1282
  632DPPI   C4A10060  17.357  16.790   9.109  0.2881 -0.0854  0.1635
  632DPPI   C1B10061  17.018  16.480  10.120 -0.0461 -0.0871  0.1284
  632DPPI   C2B10062  16.949  16.485   9.711  0.0143 -0.0960 -0.3631
  632DPPI   C3B10063  16.925  16.497   9.215  0.0820  0.0579 -0.1447
  632DPPI   C4B10064  16.879  16.313   8.684 -0.0219 -0.0819  0.0517
  633DPPI    C110065   5.974   6.892  11.097 -0.1094  0.2111  0.2077
  633DPPI    C210066   5.720   6.742  11.367 -0.0610  0.0086  0.1425
  633DPPI    C310067   6.113   6.681  11.407 -0.0536 -0.0207  0.0270
  633DPPI   PO410068   5.862   6.900  10.861  0.0585  0.3816  0.3678
  633DPPI   GL110069   6.019   6.985  10.535 -0.1095  0.0247  0.3075
  633DPPI   GL210070   6.218   6.881  10.211  0.4091  0.0732  0.0182
  633DPPI   C1A10071   5.676   7.007  10.167  0.2444  0.2618  0.3222
  633DPPI   C2A10072   5.761   6.973   9.750  0.1561 -0.2171  0.0945
  633DPPI   C3A10073   5.753   6.925   9.280 -0.0217  0.1543 -0.2144
  633DPPI   C4A10074   5.824   6.964   8.802  0.4238 -0.0256 -0.0568
  633DPPI   C1B10075   6.250   6.767   9.807  0.1397  0.0941 -0.1715
  633DPPI   C2B10076   6.311   6.856   9.354 -0.0092 -0.2276  0.2853
  633DPPI   C3B10077   6.171   6.660   8.989 -0.0854 -0.0735 -0.2956
  633DPPI   C4B10078   6.219   6.763   8.619 -0.0779  0.1596 -0.1466
  634DPPI    C110079   1.678   0.150  11.267 -0.1510  0.2000  0.1307
  634DPPI    C210080   2.069   0.081  11.315 -0.1405 -0.0444 -0.2624
  634DPPI    C310081   1.807  -0.063  11.580  0.0205 -0.0348 -0.0957
  634DPPI   PO410082   1.597   0.056  11.098  0.1663 -0.1720 -0.0346
  634DPPI   GL110083   1.603   0.216  10.637  0.1193  0.2791  0.1599
  634DPPI   GL210084   1.927   0.282  10.458  0.1894  0.0658  0.2171
  634DPPI   C1A10085   1.530   0.309  10.221  0.0563 -0.0150 -0.3094
  634DPPI   C2A10086   1.567   0.478   9.828  0.1651  0.0453  0.0174
  634DPPI   C3A10087   1.592   0.518   9.471 -0.0152  0.0363 -0.3346
  634DPPI   C4A10088   1.611   0.592   9.082  0.1064 -0.1179 -0.2585
  634DPPI   C1B10089   2.009   0.229  10.041  0.1588 -0.2215 -0.1742
  634DPPI   C2B10090   2.014   0.315   9.580  0.3933  0.1007 -0.0329
  634DPPI   C3B10091   2.045   0.317   9.055  0.0291  0.2308  0.2946
  634DPPI   C4B10092   1.971   0.457   8.678  0.2135  0.0916 -0.0130
  635PYPI    C110093   9.069  14.488  10.581 -0.0571  0.0754  0.0470
  635PYPI    C210094   9.163  14.138  10.750 -0.0037  0.0265 -0.0831
  635PYPI    C310095   8.802  14.300  10.813  0.0338  0.0340  0.1182
  635PYPI   PO410096   9.160  14.436  10.308 -0.2101 -0.0946 -0.0440
  635PYPI   GL110097   8.957  14.476   9.783  0.2016 -0.1296 -0.1714
  635PYPI   GL210098   8.794  14.733   9.711 -0.0233  0.0210  0.0901
  635PYPI   C1A10099   8.977  14.567   9.258  0.1429 -0.1953 -0.1593
  635PYPI   C2A10100   8.966  14.543   8.826 -0.0770  0.1531  0.2749
  635PYPI   D3A10101   8.763  14.645   8.491 -0.6492  0.1512  0.1900
  635PYPI   C4A10102   8.837  14.683   8.081  0.3003  0.0101 -0.2336
  635PYPI   C1B10103   9.203  14.850   9.570  0.0451  0.2539 -0.0401
  635PYPI   C2B10104   9.323  14.868   9.083  0.1395  0.2299  0.1899
  635PYPI   C3B10105   9.364  14.886   8.730  0.0138 -0.1157  0.2031
  635PYPI   C4B10106   9.158  14.908   8.377 -0.1143 -0.1657 -0.3180
  636PYPI    C110107   3.661  10.191  11.185  0.1101 -0.2578  0.0415
  636PYPI    C210108   3.376  10.248  11.460  0.0722  0.0238 -0.0523
  636PYPI    C310109   3.761  10.252  11.568  0.0447 -0.3692  0.0767
  636PYPI   PO410110   3.604  10.208  10.879  0.2214 -0.0423 -0.2890
  636PYPI   GL110111   3.800  10.099  10.493 -0.0180 -0.1142 -0.2437
  636PYPI   GL210112   3.688   9.837  10.343  0.1719  0.1182  0.0935
  636PYPI   C1A10113   4.049  10.210  10.156 -0.0304  0.1355 -0.1009
  636PYPI   C2A10114   4.149  10.119   9.752  0.0126  0.0758 -0.0500
  636PYPI   D3A10115   4.218  10.243   9.355 -0.0621  0.0327  0.2088
  636PYPI   C4A10116   4.120  10.170   8.910 -0.1649  0.0746  0.0305
  636PYPI   C1B10117   3.730   9.894   9.941 -0.1002 -0.0993 -0.2727
  636PYPI   C2B10118   3.709   9.965   9.545  0.3984  0.0195 -0.0585
  636PYPI   C3B10119   3.740   9.899   9.094  0.0535 -0.0440  0.0888
  636PYPI   C4B10120   3.762   9.809   8.745  0.0298  0.1763  0.2932
  637PYPI    C110121   8.841  17.584  10.734  0.0621  0.1623 -0.0451
  637PYPI    C210122   8.524  17.631  10.973 -0.0632 -0.0995 -0.1566
  637PYPI    C310123   8.845  17.430  11.103  0.1388  0.3287  0.0248
  637PYPI   PO410124   8.746  17.763  10.519 -0.0835 -0.2680 -0.3340
  637PYPI   GL110125   8.492  17.676  10.188  0.1505 -0.1316 -0.1019
  637PYPI   GL210126   8.496  17.319  10.134 -0.0290  0.0678  0.0294
  637PYPI   C1A10127   8.399  17.813   9.716 -0.0319  0.0675  0.2496
  637PYPI   C2A10128   8.313  17.831   9.279  0.5225  0.0267  0.1665
  637PYPI   D3A10129   8.232  17.686   8.839 -0.0243  0.0048  0.1209
  637PYPI   C4A10130   8.402  17.756   8.451 -0.1707  0.2302 -0.2146
  637PYPI   C1B10131   8.507  17.274   9.755 -0.0586 -0.0057  0.2641
  637PYPI   C2B10132   8.404  17.367   9.275 -0.0093  0.0503  0.0909
  637PYPI   C3B10133   8.481  17.229   8.952 -0.0022 -0.1554  0.4488
  637PYPI   C4B10134   8.506  17.268   8.562 -0.3501 -0.2947 -0.0741
  638PYPI    C110135  15.327   2.645  11.384 -0.3503 -0.1318 -0.0160
  638PYPI    C210136  15.214   2.893  11.677  0.1421  0.1242 -0.0328
  638PYPI    C310137  15.362   2.532  11.767 -0.1525  0.0116  0.0098
  638PYPI   PO410138  15.433   2.861  11.169 -0.0631 -0.3743  0.0034
  638PYPI   GL110139  15.547   2.749  10.712  0.2448 -0.0616  0.0283
  638PYPI   GL210140  15.941   2.707  10.630 -0.0656 -0.2382 -0.0764
  638PYPI   C1A10141  15.672   2.788  10.186  0.0291 -0.0627  0.0535
  638PYPI   C2A10142  15.661   2.704   9.774 -0.2084 -0.0438  0.0679
  638PYPI   D3A10143  15.481   2.713   9.270 -0.0055  0.0255 -0.3085
  638PYPI   C4A10144  15.372   2.559   8.881  0.1176 -0.1792  0.0597
  638PYPI   C1B10145  16.127   2.605  10.321 -0.0457 -0.0233 -0.2616
  638PYPI   C2B10146  16.117   2.601   9.870  0.2591 -0.2161  0.1624
  638PYPI   C3B10147  16.066   2.545   9.337 -0.2768  0.3178  0.0406
  638PYPI   C4B10148  15.893   2.585   8.971  0.1172 -0.2826  0.0440
  639PYPI    C110149   2.512  17.538  10.985 -0.0358  0.0090 -0.2038
  639PYPI    C210150   2.682  17.276  11.236  0.1763 -0.0253 -0.3797
  639PYPI    C310151   2.364  17.489  11.353  0.0873 -0.2602 -0.1878
  639PYPI   PO410152   2.647  17.463  10.745 -0.1383  0.0805  0.2653
  639PYPI   GL110153   2.822  17.376  10.365 -0.1527 -0.0276  0.0510
  639PYPI   GL210154   2.910  17.662  10.293 -0.1654  0.0860 -0.4090
  639PYPI   C1A10155   2.600  17.431  10.034 -0.1132  0.2563  0.1912
  639PYPI   C2A10156   2.556  17.392   9.590  0.0339  0.0132 -0.1488
  639PYPI   D3A10157   2.551  17.386   9.123 -0.1415  0.0609 -0.1297
  639PYPI   C4A10158   2.596  17.465   8.670  0.1686  0.1137  0.0401
  639PYPI   C1B10159   2.963  17.727   9.863  0.1488  0.1085 -0.1142
  639PYPI   C2B10160   2.927  17.653   9.373  0.1513  0.1801  0.0048
  639PYPI   C3B10161   3.053  17.698   8.913  0.1750 -0.2705 -0.4867
  639PYPI   C4B10162   3.042  17.769   8.528 -0.7365 -0.5309  0.2890
  640PYPI    C110163  15.897   9.231  10.907 -0.0995 -0.0477  0.0892
  640PYPI    C210164  15.697   9.015  11.178 -0.3572  0.0680 -0.0057
  640PYPI    C310165  15.647   9.412  11.162  0.1865  0.1551  0.2320
  640PYPI   PO410166  15.833   9.153  10.703  0.1629 -0.4515 -0.0065
  640PYPI   GL110167  15.940   8.947  10.369  0.0714 -0.0516  0.0737
  640PYPI   GL210168  16.203   8.950  10.360  0.1505 -0.0434  0.0346
  640PYPI   C1A10169  15.767   8.953   9.906 -0.1871  0.2113  0.2637
  640PYPI   C2A10170  15.832   9.097   9.351 -0.1942 -0.1709  0.1243
  640PYPI   D3A10171  15.743   9.041   8.903  0.0069  0.0912  0.1638
  640PYPI   C4A10172  15.853   9.138   8.507 -0.2397  0.0154  0.1359
  640PYPI   C1B10173  16.302   8.850  10.006  0.1425 -0.1629  0.0683
  640PYPI   C2B10174  16.257   8.917   9.617 -0.0205  0.0864  0.2552
  640PYPI   C3B10175  16.271   8.883   9.196 -0.0973 -0.0289 -0.0623
  640PYPI   C4B10176  16.362   8.892   8.698  0.1700  0.1138 -0.0954
  641ERGO   ROH10177   9.519  17.349   9.809  0.0051 -0.1379  0.1511
  641ERGO    R110178   9.343  17.377   9.589  0.1475 -0.0400  0.0465
  641ERGO    R210179   9.397  17.542   9.375  0.3287 -0.0090  0.1107
  641ERGO    R310180   9.355  17.315   9.231  0.3525  0.0315  0.0408
  641ERGO    R410181   9.384  17.527   9.030  0.0451  0.1392  0.1125
  641ERGO    R510182   9.218  17.386   9.047  0.1516  0.0273  0.1887
  641ERGO    C110183   9.337  17.306   8.694 -0.0978  0.2637  0.0479
  641ERGO    C210184   9.613  17.321   8.401 -0.2870 -0.1389 -0.0093
  642ERGO   ROH10185  13.914   0.834  10.806 -0.3284  0.4301  0.0106
  642ERGO    R110186  13.858   0.924  10.544 -0.1635  0.3226 -0.0628
  642ERGO    R210187  14.049   1.042  10.384 -0.0260  0.1217 -0.0461
  642ERGO    R310188  13.975   0.849  10.208 -0.0660  0.0717  0.0243
  642ERGO    R410189  14.068   1.071  10.040 -0.0523  0.0099 -0.0577
  642ERGO    R510190  13.876   0.970  10.026 -0.0683  0.0274 -0.0064
  642ERGO    C110191  14.010   0.907   9.674 -0.1051 -0.1021  0.0017
  642ERGO    C210192  14.019   0.914   9.295  0.1140 -0.1629 -0.0441
  643ERGO   ROH10193   2.610  12.363   9.904  0.1605  0.0841 -0.0134
  643ERGO    R110194   2.478  12.466   9.675  0.2649  0.1652 -0.0387
  643ERGO    R210195   2.615  12.569   9.458  0.3779 -0.0907 -0.0973
  643ERGO    R310196   2.467  12.388   9.320  0.1305  0.0385 -0.0069
  643ERGO    R410197   2.627  12.524   9.116  0.1196 -0.1072 -0.1059
  643ERGO    R510198   2.410  12.501   9.116  0.1000  0.0836  0.0292
  643ERGO    C110199   2.495  12.328   8.787 -0.2630  0.0043 -0.0261
  643ERGO    C210200   2.592  12.321   8.571  0.0966  0.0908 -0.1737
  644ERGO   ROH10201  12.512  11.828  10.289 -0.1106 -0.1140 -0.1464
  644ERGO    R110202  12.646  11.907  10.052 -0.0554 -0.0711 -0.1008
  644ERGO    R210203  12.774  11.726   9.887 -0.0880 -0.0510 -0.1440
  644ERGO    R310204  12.616  11.836   9.696 -0.0271  0.0625 -0.1310
  644ERGO    R410205  12.853  11.743   9.551 -0.1866 -0.2925 -0.1814
  644ERGO    R510206  12.769  11.944   9.547  0.0550 -0.1862 -0.2342
  644ERGO    C110207  12.749  11.856   9.176 -0.1869 -0.3266 -0.1910
  644ERGO    C210208  12.776  11.910   8.859  0.1705  0.0917 -0.2320
  645ERGO   ROH10209  16.611  11.032  10.571  0.1588  0.1603  0.0727
  645ERGO    R110210  16.496  11.150  10.341  0.1846  0.1819  0.0704
  645ERGO    R210211  16.646  11.272  10.146  0.2219  0.0439  0.0101
  645ERGO    R310212  16.514  11.101   9.981  0.0793  0.0887  0.0772
  645ERGO    R410213  16.664  11.280   9.801  0.0950 -0.0008  0.0024
  645ERGO    R510214  16.449  11.238   9.795  0.0733  0.0993  0.0879
  645ERGO    C110215  16.550  11.124   9.445 -0.1128  0.0153  0.0610
  645ERGO    C210216  16.553  11.188   9.044 -0.3623  0.2125 -0.0096
  646ERGO   ROH10217   8.534  11.891  10.030  0.1868  0.1660 -0.0393
  646ERGO    R110218   8.447  11.985   9.778  0.1038  0.2052  0.0052
  646ERGO    R210219   8.572  12.194   9.646  0.1189  0.1561 -0.0434
  646ERGO    R310220   8.588  12.013   9.443 -0.0470  0.1611 -0.0646
  646ERGO    R410221   8.659  12.271   9.321  0.3703  0.0964  0.0060
  646ERGO    R510222   8.505  12.132   9.252  0.1970  0.3173 -0.0835
  646ERGO    C110223   8.725  12.146   8.941  0.3609  0.0663  0.0151
  646ERGO    C210224   8.768  12.116   8.637  0.0715  0.0611 -0.0994
  647ERGO   ROH10225   9.554  11.768   9.995  0.2312  0.3701 -0.1752
  647ERGO    R110226   9.424  11.734   9.746  0.1572  0.0306 -0.0942
  647ERGO    R210227   9.457  11.909   9.535 -0.3185  0.0463 -0.1618
  647ERGO    R310228   9.524  11.683   9.399  0.0713  0.1363 -0.1362
  647ERGO    R410229   9.509  11.892   9.194 -0.2840  0.1008 -0.1607
  647ERGO    R510230   9.404  11.701   9.193  0.0370 -0.0876 -0.1410
  647ERGO    C110231   9.602  11.669   8.868  0.1021  0.2169 -0.1360
  647ERGO    C210232   9.711  11.846   8.644 -0.0351 -0.0928  0.1023
  648ERGO   ROH10233   2.705  15.730  10.127 -0.2806  0.0931  0.0530
  648ERGO    R110234   2.761  15.873   9.889 -0.3507  0.1279  0.0579
  648ERGO    R210235   2.913  15.768   9.684 -0.1744  0.2642  0.1206
  648ERGO    R310236   2.696  15.831   9.534 -0.1912  0.0261  0.0395
  648ERGO    R410237   2.905  15.764   9.339 -0.0332  0.2717  0.1156
  648ERGO    R510238   2.786  15.947   9.345 -0.2460  0.1411  0.0810
  648ERGO    C110239   2.696  15.821   8.996  0.0332  0.0527  0.0367
  648ERGO    C210240   2.797  15.895   8.765 -0.0075  0.2089 -0.0938
  649ERGO   ROH10241   2.619   3.602  10.550 -0.0627  0.1241 -0.0742
  649ERGO    R110242   2.604   3.468  10.301  0.2380  0.0121 -0.0357
  649ERGO    R210243   2.428   3.544  10.102 -0.0222 -0.5048 -0.0141
  649ERGO    R310244   2.653   3.554   9.951 -0.0706  0.0633 -0.0703
  649ERGO    R410245   2.435   3.528   9.757 -0.0662 -0.6078 -0.0114
  649ERGO    R510246   2.612   3.401   9.771  0.3007 -0.1276 -0.0060
  649ERGO    C110247   2.651   3.529   9.414 -0.1372 -0.1343 -0.0629
  649ERGO    C210248   2.577   3.577   9.074 -0.1939  0.1425 -0.0482
  650ERGO   ROH10249   5.602  12.250  10.116  0.2275  0.1063  0.0831
  650ERGO    R110250   5.421  12.230   9.899  0.2090 -0.1545  0.1198
  650ERGO    R210251   5.450  12.378   9.667 -0.1128 -0.0233  0.1619
  650ERGO    R310252   5.439  12.134   9.548  0.3044 -0.0130  0.0839
  650ERGO    R410253   5.424  12.326   9.327 -0.2036  0.0536  0.1561
  650ERGO    R510254   5.284  12.163   9.367  0.1342 -0.2478  0.1824
  650ERGO    C110255   5.398  12.066   9.017  0.1353  0.1082  0.0796
  650ERGO    C210256   5.345  12.250   8.727 -0.0225  0.0827  0.3135
  651ERGO   ROH10257   4.321   3.541  10.665  0.2035 -0.1668  0.0795
  651ERGO    R110258   4.300   3.484  10.389  0.1173 -0.0587  0.0623
  651ERGO    R210259   4.147   3.637  10.216  0.0234 -0.0167  0.1754
  651ERGO    R310260   4.379   3.653  10.076 -0.0268  0.0863  0.1042
  651ERGO    R410261   4.171   3.631   9.871 -0.0825  0.1294  0.1652
  651ERGO    R510262   4.348   3.506   9.891 -0.0540  0.1589  0.0546
  651ERGO    C110263   4.404   3.644   9.540 -0.1914  0.3113  0.0923
  651ERGO    C210264   4.335   3.710   9.127  0.3424 -0.2830 -0.0546
  652ERGO   ROH10265  15.163   7.428  10.256 -0.0308 -0.0941 -0.1020
  652ERGO    R110266  15.098   7.326  10.000 -0.0585 -0.1146 -0.0865
  652ERGO    R210267  14.938   7.464   9.822 -0.0125 -0.0949 -0.1087
  652ERGO    R310268  15.149   7.427   9.654 -0.0232 -0.1867 -0.1031
  652ERGO    R410269  14.913   7.426   9.479  0.0007  0.3220 -0.1601
  652ERGO    R510270  15.068   7.272   9.490 -0.2004  0.0990 -0.2961
  652ERGO    C110271  15.097   7.370   9.122 -0.0018  0.4786 -0.1850
  652ERGO    C210272  15.072   7.449   8.811 -0.2220  0.0753  0.0403
  653ERGO   ROH10273  12.078   6.317  10.495  0.2688  0.2261  0.0185
  653ERGO    R110274  11.963   6.288  10.238  0.0971  0.3111  0.0840
  653ERGO    R210275  11.969   6.490  10.048  0.1905  0.2877  0.0592
  653ERGO    R310276  12.080   6.297   9.894 -0.0827  0.1593  0.0177
  653ERGO    R410277  11.917   6.453   9.709  0.0603  0.3686  0.0697
  653ERGO    R510278  11.909   6.238   9.738 -0.1937  0.3755  0.0568
  653ERGO    C110279  11.991   6.249   9.366 -0.2721  0.2952  0.0369
  653ERGO    C210280  12.024   6.210   9.043  0.1692 -0.0677  0.1849
  654ERGO   ROH10281  12.108  15.824  10.481 -0.0819 -0.0329  0.1009
  654ERGO    R110282  12.053  15.723  10.222 -0.2254  0.0380  0.1031
  654ERGO    R210283  11.857  15.831  10.059 -0.0568  0.3347  0.0904
  654ERGO    R310284  12.062  15.852   9.882 -0.0119  0.0124  0.0977
  654ERGO    R410285  11.825  15.803   9.716 -0.0722  0.3010  0.0943
  654ERGO    R510286  12.011  15.690   9.713 -0.2246  0.0411  0.1313
  654ERGO    C110287  11.999  15.807   9.350 -0.0390 -0.0212  0.1032
  654ERGO    C210288  11.941  15.771   8.960 -0.0194 -0.3018 -0.0859
  655ERGO   ROH10289  16.803   8.688  10.240 -0.1515 -0.0445  0.0050
  655ERGO    R110290  16.857   8.620   9.971 -0.1247 -0.0709  0.0172
  655ERGO    R210291  16.658   8.556   9.791 -0.1158  0.0400 -0.0288
  655ERGO    R310292  16.774   8.753   9.643  0.0254 -0.0224 -0.0036
  655ERGO    R410293  16.633   8.585   9.447  0.0306  0.0052 -0.0432
  655ERGO    R510294  16.843   8.643   9.442  0.0616 -0.0798  0.0361
  655ERGO    C110295  16.727   8.787   9.108  0.2481 -0.0737 -0.0277
  655ERGO    C210296  16.726   8.593   8.804  0.0604 -0.0545  0.0658
  656ERGO   ROH10297  13.086  10.421  10.201  0.1206 -0.0385  0.0242
  656ERGO    R110298  13.258  10.299  10.012  0.0937  0.1131 -0.1004
  656ERGO    R210299  13.168  10.112   9.828  0.1339 -0.0107  0.0038
  656ERGO    R310300  13.282  10.282   9.649 -0.1928  0.0854 -0.1202
  656ERGO    R410301  13.239  10.035   9.499 -0.0057 -0.0010 -0.0292
  656ERGO    R510302  13.426  10.143   9.518 -0.1186  0.2274 -0.1886
  656ERGO    C110303  13.387  10.150   9.139 -0.3936  0.0948 -0.1649
  656ERGO    C210304  13.328  10.057   8.825 -0.0201  0.0891  0.1681
  657ERGO   ROH10305   4.039   7.512  10.601  0.0410  0.0536 -0.0943
  657ERGO    R110306   4.094   7.436  10.334  0.0489  0.0608 -0.0954
  657ERGO    R210307   3.929   7.267  10.191  0.1471 -0.0856 -0.0446
  657ERGO    R310308   3.932   7.470  10.010 -0.0413 -0.1030 -0.0678
  657ERGO    R410309   3.951   7.225   9.849  0.4485 -0.0953 -0.0262
  657ERGO    R510310   4.086   7.397   9.842  0.1899  0.1132  0.0469
  657ERGO    C110311   3.967   7.391   9.479  0.4472 -0.1171 -0.0371
  657ERGO    C210312   3.887   7.237   9.139  0.0785 -0.1774  0.0312
  658ERGO   ROH10313  14.145  10.252  10.269 -0.1946  0.1776 -0.0078
  658ERGO    R110314  14.273  10.291  10.020 -0.1502  0.0146 -0.0111
  658ERGO    R210315  14.341  10.082   9.853 -0.2419 -0.0841  0.0794
  658ERGO    R310316  14.197  10.223   9.670 -0.1495 -0.0825  0.0062
  658ERGO    R410317  14.368  10.046   9.510  0.0720  0.0447  0.0869
  658ERGO    R510318  14.352  10.263   9.491 -0.0075  0.0485  0.1510
  658ERGO    C110319  14.249  10.158   9.139  0.3414  0.1212  0.0227
  658ERGO    C210320  14.221  10.173   8.794 -0.1005 -0.0908 -0.0090
  659ERGO   ROH10321   5.773   5.924  10.695 -0.2159 -0.3548  0.1460
  659ERGO    R110322   5.830   6.007  10.430 -0.0725 -0.1476  0.2397
  659ERGO    R210323   6.004   5.869  10.265 -0.0667 -0.0791  0.1931
  659ERGO    R310324   5.792   5.868  10.096  0.0019  0.1605  0.0990
  659ERGO    R410325   6.024   5.914   9.923  0.1230  0.0064  0.2130
  659ERGO    R510326   5.843   6.036   9.934  0.2239  0.1659  0.1697
  659ERGO    C110327   5.835   5.939   9.565  0.2980  0.2811  0.1362
  659ERGO    C210328   5.815   5.869   9.165  0.1895 -0.0752 -0.0840
  660ERGO   ROH10329   7.280   4.598  10.614 -0.1551  0.0135  0.0523
  660ERGO    R110330   7.130   4.471  10.410  0.0534 -0.1119 -0.0240
  660ERGO    R210331   6.970   4.611  10.234 -0.1774 -0.2673  0.0701
  660ERGO    R310332   7.117   4.481  10.047  0.0356  0.0875 -0.0215
  660ERGO    R410333   6.904   4.611   9.894 -0.2056 -0.1527  0.0738
  660ERGO    R510334   6.957   4.400   9.889  0.1451 -0.0794 -0.0609
  660ERGO    C110335   7.005   4.488   9.521 -0.0221  0.2471 -0.0102
  660ERGO    C210336   6.986   4.484   9.124  0.1476  0.1826  0.0302
  661ERGO   ROH10337   0.439  15.863  10.344  0.0608 -0.1090  0.0682
  661ERGO    R110338   0.414  15.987  10.090 -0.0852 -0.1604  0.0583
  661ERGO    R210339   0.602  15.954   9.890 -0.1528 -0.1175 -0.0028
  661ERGO    R310340   0.386  15.876   9.745 -0.1750 -0.2234  0.0833
  661ERGO    R410341   0.599  15.911   9.547 -0.3139  0.1046 -0.0327
  661ERGO    R510342   0.401  16.002   9.542 -0.4108 -0.0690  0.1506
  661ERGO    C110343   0.394  15.812   9.211 -0.4285  0.1345  0.0306
  661ERGO    C210344   0.431  15.890   8.867  0.0544 -0.1337  0.1253
  662ERGO   ROH10345  11.023  16.239   9.982 -0.4065 -0.2437  0.0324
  662ERGO    R110346  10.909  16.252   9.723 -0.2613 -0.1970 -0.0292
  662ERGO    R210347  11.011  16.415   9.524 -0.1541 -0.1568  0.0608
  662ERGO    R310348  11.019  16.183   9.383 -0.0689 -0.1283  0.0165
  662ERGO    R410349  11.041  16.395   9.180 -0.1553 -0.0775  0.0553
  662ERGO    R510350  10.896  16.232   9.183 -0.0945 -0.1354  0.0285
  662ERGO    C110351  11.065  16.165   8.847 -0.0759 -0.0049  0.0104
  662ERGO    C210352  11.137  16.109   8.537  0.0936 -0.0115 -0.2937
  663ERGO   ROH10353   8.586  13.094  10.120  0.1599 -0.0753 -0.1290
  663ERGO    R110354   8.465  13.207   9.891  0.0374 -0.1195 -0.0860
  663ERGO    R210355   8.609  13.342   9.697 -0.0925  0.0007 -0.0945
  663ERGO    R310356   8.489  13.164   9.530 -0.0142 -0.0487 -0.0996
  663ERGO    R410357   8.630  13.350   9.353 -0.2003  0.1085 -0.0997
  663ERGO    R510358   8.419  13.296   9.343 -0.1699 -0.0467 -0.0461
  663ERGO    C110359   8.530  13.188   8.995 -0.1896  0.1249 -0.1075
  663ERGO    C210360   8.574  13.177   8.799 -0.0751  0.0114  0.1005
  664ERGO   ROH10361   2.699  14.013  10.107  0.0508  0.0928 -0.1137
  664ERGO    R110362   2.665  13.914   9.843  0.0232  0.1438 -0.1298
  664ERGO    R210363   2.417  13.895   9.722 -0.0163 -0.0242 -0.0338
  664ERGO    R310364   2.538  14.042   9.527 -0.2149  0.1369 -0.0375
  664ERGO    R410365   2.327  13.895   9.388 -0.0913 -0.0518 -0.0134
  664ERGO    R510366   2.539  13.899   9.336 -0.1108  0.1764 -0.0636
  664ERGO    C110367   2.388  14.032   9.011 -0.3214  0.0834 -0.0051
  664ERGO    C210368   2.448  14.011   8.732  0.1217 -0.2065 -0.3616
  665ERGO   ROH10369   9.779   9.047  10.392  0.2311 -0.3643  0.0159
  665ERGO    R110370   9.872   8.993  10.131  0.0316 -0.3038 -0.0704
  665ERGO    R210371   9.709   8.892   9.933 -0.1477 -0.1613 -0.0027
  665ERGO    R310372   9.796   9.109   9.794 -0.1521 -0.1427  0.0250
  665ERGO    R410373   9.699   8.923   9.589 -0.0380 -0.1632 -0.0057
  665ERGO    R510374   9.896   9.017   9.596 -0.0646 -0.1180  0.0595
  665ERGO    C110375   9.775   9.145   9.258  0.0219 -0.1468  0.0184
  665ERGO    C210376   9.914   9.272   8.920  0.0860 -0.0508  0.1631
  666ERGO   ROH10377  17.726   7.161  10.464 -0.1484 -0.0300 -0.0178
  666ERGO    R110378  17.735   7.284  10.209 -0.2154 -0.0411 -0.0267
  666ERGO    R210379  17.934   7.229  10.024 -0.1367  0.1129  0.0037
  666ERGO    R310380  17.722   7.174   9.862 -0.0701 -0.0831 -0.0176
  666ERGO    R410381  17.944   7.225   9.679 -0.0619 -0.0822  0.0077
  666ERGO    R510382  17.750   7.322   9.676 -0.1039 -0.1814 -0.0957
  666ERGO    C110383  17.753   7.171   9.325  0.0442 -0.3799 -0.0099
  666ERGO    C210384  17.744   7.136   8.884 -0.3616  0.1352  0.0283
  667ERGO   ROH10385   5.457  17.675  10.217 -0.2413 -0.2990  0.0657
  667ERGO    R110386   5.330  17.577   9.984 -0.2593 -0.0741 -0.0226
  667ERGO    R210387   5.198  17.741   9.805 -0.0477  0.1334  0.0065
  667ERGO    R310388   5.363  17.623   9.625 -0.0977  0.0605  0.0081
  667ERGO    R410389   5.167  17.769   9.462 -0.0803  0.0813  0.0051
  667ERGO    R510390   5.218  17.558   9.445 -0.1349  0.0653  0.0361
  667ERGO    C110391   5.304  17.675   9.093 -0.1462 -0.0178  0.0058
  667ERGO    C210392   5.207  17.680   8.758 -0.1929 -0.1682 -0.1289
  668ERGO   ROH10393   7.308  15.911   9.706  0.2259 -0.0297  0.0252
  668ERGO    R110394   7.375  15.928   9.432  0.1831 -0.1321  0.0083
  668ERGO    R210395   7.429  15.706   9.277 -0.0950 -0.2080  0.0203
  668ERGO    R310396   7.235  15.810   9.117 -0.0187 -0.0136  0.0510
  668ERGO    R410397   7.426  15.686   8.932 -0.0984 -0.0871  0.0126
  668ERGO    R510398   7.354  15.891   8.926  0.0470 -0.0305  0.0823
  668ERGO    C110399   7.243  15.772   8.581 -0.0287  0.1658  0.0367
  668ERGO    C210400   7.291  15.687   8.320 -0.1113  0.2024  0.0816
  669ERGO   ROH10401  15.974  16.999  10.683 -0.2199 -0.2818 -0.0272
  669ERGO    R110402  16.060  17.064  10.421 -0.1622 -0.1095  0.0332
  669ERGO    R210403  16.142  16.873  10.239 -0.0221  0.0166 -0.0424
  669ERGO    R310404  15.954  16.990  10.081 -0.0222  0.0198 -0.0394
  669ERGO    R410405  16.132  16.851   9.894 -0.0339  0.0190 -0.0420
  669ERGO    R510406  16.075  17.062   9.887 -0.0286  0.0171 -0.0417
  669ERGO    C110407  15.950  16.948   9.545 -0.0409  0.0233 -0.0389
  669ERGO    C210408  16.044  16.954   9.238 -0.3009  0.1278 -0.2475
  670ERGO   ROH10409   6.947  10.246   6.711  0.1985 -0.0430  0.0253
  670ERGO    R110410   6.923  10.182   6.986  0.0239 -0.0215  0.0163
  670ERGO    R210411   7.142  10.128   7.146 -0.0859 -0.1362  0.1291
  670ERGO    R310412   7.036  10.325   7.301 -0.0577 -0.0730  0.0700
  670ERGO    R410413   7.298  10.269   7.420 -0.1246 -0.1872  0.1772
  670ERGO    R510414   7.106  10.269   7.523 -0.1686 -0.0895  0.1034
  670ERGO    C110415   7.290  10.535   7.726 -0.1206 -0.1575  0.1498
  670ERGO    C210416   7.487  10.686   7.999 -0.0408 -0.2424 -0.1357
  671ERGO   ROH10417   7.838  16.650   9.984  0.0633  0.1192  0.0602
  671ERGO    R110418   7.722  16.577   9.737 -0.0136 -0.0292  0.1383
  671ERGO    R210419   7.648  16.764   9.546 -0.0860 -0.1403  0.0536
  671ERGO    R310420   7.807  16.613   9.385 -0.1283 -0.2247  0.0902
  671ERGO    R410421   7.609  16.731   9.204  0.0093 -0.0870  0.0369
  671ERGO    R510422   7.657  16.519   9.224 -0.1307 -0.1164  0.0322
  671ERGO    C110423   7.735  16.570   8.854  0.0251 -0.1352  0.0616
  671ERGO    C210424   7.713  16.609   8.474 -0.1858 -0.0269  0.0510
  672ERGO   ROH10425   2.831  10.207  10.340  0.0413 -0.4121 -0.1825
  672ERGO    R110426   2.734  10.356  10.119 -0.0158 -0.2660 -0.0622
  672ERGO    R210427   2.900  10.454   9.921 -0.0562 -0.0794 -0.0152
  672ERGO    R310428   2.731  10.319   9.757 -0.0465  0.0003 -0.0883
  672ERGO    R410429   2.929  10.436   9.577 -0.1156  0.1693 -0.0341
  672ERGO    R510430   2.713  10.456   9.563 -0.1133  0.1278  0.0143
  672ERGO    C110431   2.785  10.298   9.223 -0.1411  0.3889 -0.1138
  672ERGO    C210432   2.853  10.260   8.993 -0.1189 -0.0483  0.1114
  673ERGO   ROH10433   6.858  11.104  10.110 -0.0447  0.0313 -0.0827
  673ERGO    R110434   6.802  11.010   9.850  0.0758 -0.0373 -0.0843
  673ERGO    R210435   6.733  11.179   9.642 -0.1416 -0.1199 -0.0791
  673ERGO    R310436   6.940  11.056   9.516  0.0187  0.1470 -0.0846
  673ERGO    R410437   6.757  11.134   9.300 -0.1048 -0.1015 -0.0793
  673ERGO    R510438   6.837  10.934   9.338  0.1646 -0.0001 -0.0741
  673ERGO    C110439   6.965  10.992   8.983  0.0671  0.1599 -0.0846
  673ERGO    C210440   6.885  10.973   8.597  0.0259  0.3975  0.1742
  674PSPI    C110441  14.892  16.972   5.952  0.0247 -0.1322 -0.1581
  674PSPI    C210442  15.068  16.726   5.689  0.0957 -0.0338 -0.2033
  674PSPI    C310443  15.213  16.759   6.061  0.0803 -0.0673 -0.1943
  674PSPI   PO410444  14.543  16.819   5.955  0.0437  0.1531  0.1231
  674PSPI   GL110445  14.359  16.518   6.293 -0.0356 -0.0501 -0.1283
  674PSPI   GL210446  14.546  16.292   6.407 -0.2946  0.1686 -0.2887
  674PSPI   C1A10447  14.095  16.729   6.664 -0.2348  0.3142  0.0164
  674PSPI   C2A10448  13.880  16.803   7.030 -0.4032  0.0237 -0.2973
  674PSPI   C3A10449  13.834  16.889   7.514 -0.0112 -0.0779  0.0774
  674PSPI   C4A10450  13.663  17.023   7.748  0.0958 -0.0469  0.0801
  674PSPI   C1B10451  14.331  16.265   6.791  0.1758  0.0845  0.0601
  674PSPI   C2B10452  14.105  16.262   7.118 -0.1030  0.0884 -0.1296
  674PSPI   C3B10453  14.246  16.368   7.542 -0.1008 -0.1373  0.0696
  674PSPI   C4B10454  14.488  16.367   7.973 -0.0929 -0.0729  0.1240
  675PSPI    C110455  15.818  12.306   5.951 -0.1518  0.0762 -0.1591
  675PSPI    C210456  16.201  12.419   5.977 -0.1581  0.1268 -0.2827
  675PSPI    C310457  16.109  12.049   5.854 -0.1451  0.0670 -0.1149
  675PSPI   PO410458  15.700  12.470   6.109  0.0057  0.2496 -0.2363
  675PSPI   GL110459  15.526  12.661   6.622 -0.1526  0.1633  0.1106
  675PSPI   GL210460  15.208  12.586   6.604  0.0489  0.0295  0.1132
  675PSPI   C1A10461  15.512  12.499   7.138 -0.0048  0.0120 -0.0695
  675PSPI   C2A10462  15.431  12.382   7.617 -0.1546  0.1337  0.0894
  675PSPI   C3A10463  15.852  12.385   7.890  0.1067  0.0612 -0.1431
  675PSPI   C4A10464  16.051  12.021   8.147 -0.0764 -0.0976  0.2221
  675PSPI   C1B10465  15.046  12.628   6.966  0.1340 -0.1111 -0.2593
  675PSPI   C2B10466  15.107  12.647   7.328  0.3919  0.2729 -0.0001
  675PSPI   C3B10467  14.940  12.761   7.637 -0.1459  0.0538  0.1634
  675PSPI   C4B10468  14.989  13.000   7.988  0.1467 -0.3037  0.2077
  676PSPI    C110469   8.101  17.604   5.780 -0.0176 -0.0318  0.2077
  676PSPI    C210470   7.832  17.517   6.062 -0.1112  0.1682  0.1821
  676PSPI    C310471   7.711  17.612   5.693 -0.0074  0.2898  0.1789
  676PSPI   PO410472   8.264  17.359   5.895  0.1594 -0.0285 -0.0799
  676PSPI   GL110473   8.321  17.248   6.274  0.1409  0.1083  0.0764
  676PSPI   GL210474   8.649  17.236   6.226  0.0437 -0.0744  0.0104
  676PSPI   C1A10475   8.105  17.439   6.518 -0.0481 -0.1209 -0.2521
  676PSPI   C2A10476   7.907  17.387   6.858 -0.2620  0.2619  0.0837
  676PSPI   C3A10477   7.864  17.094   7.129  0.1912  0.0867 -0.2177
  676PSPI   C4A10478   7.802  16.932   7.431 -0.1479 -0.1269 -0.0630
  676PSPI   C1B10479   8.569  17.312   6.741  0.1005 -0.0453  0.0029
  676PSPI   C2B10480   8.331  17.291   7.084 -0.0199 -0.0175 -0.3091
  676PSPI   C3B10481   8.231  17.227   7.483 -0.0224 -0.1843  0.1047
  676PSPI   C4B10482   8.035  17.213   7.889  0.1719 -0.0467 -0.1691
  677PSPI    C110483  13.564   0.309   6.270 -0.0796 -0.0329 -0.0332
  677PSPI    C210484  13.461   0.497   5.933  0.0463  0.0703 -0.0150
  677PSPI    C310485  13.189   0.438   6.219 -0.0518  0.0153 -0.1186
  677PSPI   PO410486  13.696   0.446   6.392 -0.1791  0.2863 -0.0361
  677PSPI   GL110487  13.699   0.607   6.796  0.0186  0.0708 -0.1721
  677PSPI   GL210488  13.390   0.498   6.766  0.0743 -0.0859 -0.2420
  677PSPI   C1A10489  13.653   0.669   7.209 -0.0467  0.1612 -0.3637
  677PSPI   C2A10490  13.485   0.604   7.650 -0.1443  0.4453  0.1377
  677PSPI   C3A10491  13.319   0.615   8.098  0.0412  0.0925 -0.1698
  677PSPI   C4A10492  13.048   0.728   8.471 -0.3108 -0.0276  0.1562
  677PSPI   C1B10493  12.944   0.428   6.930  0.1845  0.0393  0.1461
  677PSPI   C2B10494  12.540   0.262   6.875  0.1777  0.0439 -0.2736
  677PSPI   C3B10495  12.064   0.133   6.933  0.2458  0.1995 -0.0239
  677PSPI   C4B10496  11.756   0.380   6.961 -0.1081  0.0408 -0.2051
  678PSPI    C110497  11.946   6.347   6.098 -0.1004 -0.1864  0.2598
  678PSPI    C210498  11.873   6.728   6.197  0.1324 -0.0561 -0.0534
  678PSPI    C310499  11.639   6.542   5.931  0.0457 -0.1191  0.0661
  678PSPI   PO410500  11.937   6.196   6.270  0.1283 -0.2363  0.0216
  678PSPI   GL110501  11.856   6.044   6.631 -0.1359  0.1374  0.0693
  678PSPI   GL210502  12.284   5.962   6.562 -0.1057 -0.0353 -0.1305
  678PSPI   C1A10503  11.717   6.019   6.960  0.1116 -0.0681  0.2350
  678PSPI   C2A10504  11.569   6.023   7.296  0.0470  0.0763 -0.0809
  678PSPI   C3A10505  11.389   5.884   7.729  0.0448 -0.4514 -0.1014
  678PSPI   C4A10506  11.310   6.187   8.014  0.0122  0.1356  0.0761
  678PSPI   C1B10507  12.255   5.745   6.993 -0.0958  0.1057  0.0415
  678PSPI   C2B10508  12.102   5.948   7.313 -0.1226  0.0433  0.1583
  678PSPI   C3B10509  11.900   5.918   7.741 -0.1155 -0.1206  0.0627
  678PSPI   C4B10510  11.793   5.869   8.235 -0.1998  0.1204  0.0869
  679PSPI    C110511  10.827  10.042   5.796 -0.1905 -0.1363  0.0669
  679PSPI    C210512  10.966   9.719   5.605 -0.0835  0.0265 -0.1333
  679PSPI    C310513  10.706   9.676   5.906 -0.0869 -0.2445 -0.1724
  679PSPI   PO410514  11.005  10.166   5.907 -0.2255 -0.1736  0.3827
  679PSPI   GL110515  11.077  10.324   6.406 -0.0503  0.0060  0.1632
  679PSPI   GL210516  11.191  10.096   6.614  0.2746 -0.3412  0.0632
  679PSPI   C1A10517  11.176  10.619   6.741 -0.3872 -0.1166 -0.2128
  679PSPI   C2A10518  11.138  10.681   7.082 -0.0603  0.1149 -0.3340
  679PSPI   C3A10519  11.213  10.794   7.437  0.0540 -0.0275  0.0113
  679PSPI   C4A10520  11.372  10.591   7.835 -0.0386 -0.0292  0.1971
  679PSPI   C1B10521  11.172  10.209   7.087  0.1911 -0.2328 -0.0398
  679PSPI   C2B10522  11.185  10.123   7.543  0.0621 -0.0710 -0.0141
  679PSPI   C3B10523  11.048  10.163   7.978  0.2861 -0.0864  0.1302
  679PSPI   C4B10524  11.195   9.850   8.309  0.2706 -0.0879 -0.2357
  680PSPI    C110525   5.991   4.744   6.063  0.0100  0.1361  0.1347
  680PSPI    C210526   6.190   5.022   5.856 -0.1466  0.0147 -0.1856
  680PSPI    C310527   6.298   4.637   5.831 -0.1467  0.0024 -0.0138
  680PSPI   PO410528   6.021   4.838   6.266  0.0392  0.0326  0.0843
  680PSPI   GL110529   5.854   4.795   6.733  0.1541  0.1997 -0.0296
  680PSPI   GL210530   5.807   5.099   6.652  0.2947 -0.1531  0.0989
  680PSPI   C1A10531   5.646   4.671   7.078 -0.1835 -0.0181 -0.2964
  680PSPI   C2A10532   5.494   4.630   7.459 -0.2045 -0.1639 -0.0783
  680PSPI   C3A10533   5.279   4.719   7.647 -0.0345  0.1395 -0.0428
  680PSPI   C4A10534   4.871   4.830   7.815  0.2017 -0.2406  0.1518
  680PSPI   C1B10535   5.781   5.133   7.134  0.0907  0.1806  0.2205
  680PSPI   C2B10536   5.655   5.073   7.633  0.1047  0.3093  0.0921
  680PSPI   C3B10537   5.616   4.953   7.965 -0.0393 -0.0195 -0.0683
  680PSPI   C4B10538   5.561   4.741   8.295  0.0207  0.0738  0.2461
  681PSPI    C110539   0.951   3.660   5.998 -0.1101  0.0348  0.0637
  681PSPI    C210540   1.266   3.487   5.823  0.0248  0.0328  0.3037
  681PSPI    C310541   0.914   3.297   5.833  0.0689 -0.0547  0.2167
  681PSPI   PO410542   1.006   3.749   6.247 -0.2907  0.2034  0.1812
  681PSPI   GL110543   0.946   3.895   6.627 -0.0337  0.1644 -0.0528
  681PSPI   GL210544   0.789   3.525   6.694  0.0079  0.1520  0.0396
  681PSPI   C1A10545   1.156   4.171   6.880 -0.1043 -0.3400  0.1274
  681PSPI   C2A10546   1.125   4.257   7.340 -0.0915  0.0375 -0.2286
  681PSPI   C3A10547   1.180   4.070   7.804 -0.0987 -0.3197 -0.3596
  681PSPI   C4A10548   1.475   3.985   8.128 -0.2388 -0.0064 -0.4383
  681PSPI   C1B10549   0.534   3.494   6.984 -0.0944 -0.1256  0.1324
  681PSPI   C2B10550   0.498   3.414   7.282 -0.0014  0.1651  0.1775
  681PSPI   C3B10551   0.304   3.300   7.591 -0.2633  0.0286 -0.2763
  681PSPI   C4B10552   0.097   2.922   7.976 -0.0531 -0.2118  0.0832
  682PSPI    C110553   8.053   9.671   6.171  0.2553 -0.1842 -0.0154
  682PSPI    C210554   8.316   9.972   6.192  0.0336  0.0031  0.1323
  682PSPI    C310555   8.149   9.877   5.841 -0.1963  0.3194  0.1516
  682PSPI   PO410556   7.956   9.645   6.448  0.3180  0.1095 -0.2126
  682PSPI   GL110557   8.110   9.672   6.738 -0.0295  0.2796  0.3434
  682PSPI   GL210558   8.166   9.226   6.701 -0.0712  0.0745  0.3159
  682PSPI   C1A10559   8.361   9.912   7.025  0.2341  0.1704  0.0701
  682PSPI   C2A10560   8.282  10.111   7.439 -0.2207 -0.0028 -0.3103
  682PSPI   C3A10561   8.319  10.299   7.865  0.1662 -0.3242 -0.0323
  682PSPI   C4A10562   8.105  10.108   8.163 -0.1827  0.0548  0.1548
  682PSPI   C1B10563   8.155   9.307   7.121  0.3306  0.1123  0.0200
  682PSPI   C2B10564   8.243   9.167   7.540  0.2787 -0.1055 -0.2809
  682PSPI   C3B10565   8.431   8.936   7.835  0.1914 -0.0292  0.0360
  682PSPI   C4B10566   8.782   8.887   8.043 -0.2249  0.0170 -0.3213
  683PSPI    C110567   5.043  13.754   6.111 -0.2418 -0.1825 -0.0018
  683PSPI    C210568   5.211  14.078   5.949 -0.3113 -0.1152  0.0600
  683PSPI    C310569   5.127  13.761   5.720  0.1920 -0.2757  0.0839
  683PSPI   PO410570   4.778  13.930   6.212 -0.1048  0.0315  0.0226
  683PSPI   GL110571   4.533  14.178   6.556 -0.0246  0.1095  0.0555
  683PSPI   GL210572   4.282  14.116   6.471 -0.2179 -0.1044  0.3229
  683PSPI   C1A10573   4.432  14.160   7.011 -0.1250  0.3628 -0.0772
  683PSPI   C2A10574   4.680  14.150   7.435 -0.0070 -0.0426 -0.0947
  683PSPI   C3A10575   5.075  14.055   7.695  0.0282  0.2880 -0.0842
  683PSPI   C4A10576   5.380  13.896   8.015  0.1746  0.5150  0.3368
  683PSPI   C1B10577   3.988  14.382   6.587 -0.0683 -0.2709 -0.1224
  683PSPI   C2B10578   4.045  14.403   7.009  0.3280 -0.2961  0.0016
  683PSPI   C3B10579   3.770  14.597   7.332  0.1195  0.0888  0.1950
  683PSPI   C4B10580   3.404  14.802   7.405  0.0339  0.1649 -0.3739
  684PSPI    C110581  10.785   7.157   5.774  0.3829  0.3728  0.0708
  684PSPI    C210582  10.387   7.194   5.758  0.3681  0.2509  0.1404
  684PSPI    C310583  10.620   7.517   5.717  0.2626  0.3220  0.0949
  684PSPI   PO410584  10.789   6.941   5.970 -0.0520  0.4278 -0.1590
  684PSPI   GL110585  10.865   6.851   6.436  0.0520 -0.2287  0.1610
  684PSPI   GL210586  10.617   6.798   6.628 -0.0468  0.0015  0.1640
  684PSPI   C1A10587  10.974   6.826   6.956  0.1613 -0.1561 -0.2761
  684PSPI   C2A10588  10.886   6.721   7.333 -0.1368 -0.1284  0.3257
  684PSPI   C3A10589  10.797   6.658   7.749 -0.0681 -0.1925  0.1536
  684PSPI   C4A10590  10.504   6.605   7.981 -0.0681  0.0258 -0.0722
  684PSPI   C1B10591  10.417   6.857   7.094  0.1655  0.0172  0.1315
  684PSPI   C2B10592  10.405   6.740   7.432 -0.1546  0.0598 -0.3700
  684PSPI   C3B10593  10.059   6.643   7.735 -0.1705  0.0749  0.0636
  684PSPI   C4B10594  10.047   6.412   8.137 -0.2864 -0.0976  0.0280
  685PSPI    C110595  12.807  10.634   5.630 -0.0773  0.0266 -0.1628
  685PSPI    C210596  12.528  10.825   5.417  0.0757  0.0766 -0.3216
  685PSPI    C310597  12.764  10.556   5.240  0.1348  0.0410 -0.1902
  685PSPI   PO410598  12.709  10.674   5.880 -0.2020  0.2380 -0.2171
  685PSPI   GL110599  12.804  10.761   6.297  0.0317  0.0395 -0.0985
  685PSPI   GL210600  12.770  10.458   6.387 -0.0298  0.0140  0.1573
  685PSPI   C1A10601  13.030  10.811   6.642  0.6234 -0.2846 -0.2081
  685PSPI   C2A10602  13.284  10.875   6.981  0.3266  0.3833  0.3238
  685PSPI   C3A10603  13.507  10.924   7.421  0.3788 -0.4522 -0.4145
  685PSPI   C4A10604  13.366  10.927   7.849  0.1467  0.3754  0.1324
  685PSPI   C1B10605  13.077  10.128   6.277 -0.0236  0.0385  0.1762
  685PSPI   C2B10606  13.205   9.904   6.539  0.1192  0.3083  0.0638
  685PSPI   C3B10607  13.095   9.469   6.752  0.0156  0.2788 -0.1043
  685PSPI   C4B10608  13.174   9.088   6.792 -0.0066  0.2340  0.0914
  686PSPI    C110609   1.031  10.736   5.834  0.0192  0.1320 -0.0241
  686PSPI    C210610   0.697  10.846   5.644 -0.0657 -0.0613  0.0117
  686PSPI    C310611   0.769  10.979   6.014  0.0299  0.1986 -0.0975
  686PSPI   PO410612   1.001  10.478   5.839  0.0941 -0.0614 -0.2673
  686PSPI   GL110613   0.881  10.457   6.301 -0.0462 -0.0468 -0.1160
  686PSPI   GL210614   1.017  10.474   6.504 -0.1973 -0.0579  0.0656
  686PSPI   C1A10615   0.540  10.258   6.616  0.2578  0.2041  0.0003
  686PSPI   C2A10616   0.538   9.997   6.950 -0.0375 -0.4020  0.0043
  686PSPI   C3A10617   0.125   9.893   7.237  0.0670 -0.3744  0.0917
  686PSPI   C4A10618  -0.130  10.052   7.723  0.1367  0.0271 -0.1661
  686PSPI   C1B10619   0.870  10.352   6.963  0.1193 -0.3092  0.0410
  686PSPI   C2B10620   0.771  10.260   7.293 -0.0439  0.0420 -0.2186
  686PSPI   C3B10621   0.911  10.174   7.676  0.1291  0.0405 -0.0547
  686PSPI   C4B10622   0.887   9.872   7.943 -0.0364 -0.3247  0.2586
  687PSPI    C110623  13.997  11.834   6.309 -0.1266  0.1263  0.2101
  687PSPI    C210624  13.794  11.711   5.987  0.0318 -0.0565  0.1784
  687PSPI    C310625  13.797  12.099   6.085 -0.0343 -0.0025 -0.0283
  687PSPI   PO410626  14.002  11.727   6.460 -0.0688  0.0138  0.2015
  687PSPI   GL110627  13.981  11.448   6.771 -0.0186 -0.1361 -0.1638
  687PSPI   GL210628  14.309  11.584   6.818 -0.0488  0.3200  0.0452
  687PSPI   C1A10629  14.081  11.719   7.201 -0.1366  0.0315  0.1213
  687PSPI   C2A10630  14.087  11.605   7.711  0.4155 -0.2010  0.4254
  687PSPI   C3A10631  14.147  11.309   7.962 -0.2309  0.2325  0.0309
  687PSPI   C4A10632  13.926  11.136   8.233  0.0756  0.3369  0.2282
  687PSPI   C1B10633  14.529  11.776   7.126 -0.1261 -0.1886  0.0788
  687PSPI   C2B10634  14.596  11.862   7.628 -0.1185 -0.1072 -0.1290
  687PSPI   C3B10635  14.892  11.743   7.938  0.1606  0.1313  0.0303
  687PSPI   C4B10636  14.952  11.859   8.339  0.1164  0.1985 -0.1465
  688PSPI    C110637  16.609   6.808   5.644 -0.0780  0.1599 -0.1977
  688PSPI    C210638  16.310   7.032   5.502 -0.2259  0.0167 -0.1142
  688PSPI    C310639  16.241   6.655   5.619 -0.0362  0.0199  0.0126
  688PSPI   PO410640  16.720   6.986   5.864 -0.0781  0.0916 -0.2852
  688PSPI   GL110641  16.657   7.091   6.217  0.3336 -0.1977  0.0697
  688PSPI   GL210642  16.843   7.207   6.330  0.0553  0.0326  0.2232
  688PSPI   C1A10643  16.637   6.886   6.640  0.2071  0.2638 -0.1154
  688PSPI   C2A10644  16.756   6.960   7.031  0.2372  0.2060 -0.2829
  688PSPI   C3A10645  16.782   6.974   7.437  0.2249 -0.1208 -0.1980
  688PSPI   C4A10646  16.630   6.755   7.669  0.0824 -0.1330  0.1234
  688PSPI   C1B10647  17.011   7.236   6.687 -0.0829  0.1471  0.3930
  688PSPI   C2B10648  17.241   7.291   7.058  0.1948 -0.2958  0.1093
  688PSPI   C3B10649  17.412   7.221   7.419  0.1725 -0.1244 -0.0057
  688PSPI   C4B10650  17.839   7.100   7.536  0.2707  0.0563  0.1096
  689PSPI    C110651  12.599   9.823   6.161 -0.1882  0.0272  0.0353
  689PSPI    C210652  12.316   9.979   5.925 -0.2500  0.1432  0.1844
  689PSPI    C310653  12.676  10.152   5.946 -0.1205 -0.0828 -0.1100
  689PSPI   PO410654  12.420   9.637   6.348  0.2705 -0.0324 -0.1057
  689PSPI   GL110655  12.163   9.729   6.742 -0.2423 -0.0763 -0.0788
  689PSPI   GL210656  12.171   9.464   6.798  0.2791  0.0523  0.0134
  689PSPI   C1A10657  12.281   9.898   7.147  0.2230  0.1480  0.3430
  689PSPI   C2A10658  12.505  10.118   7.431 -0.0814 -0.4201 -0.2131
  689PSPI   C3A10659  12.873  10.128   7.703 -0.0383  0.0713 -0.2423
  689PSPI   C4A10660  13.151  10.378   8.035  0.3532  0.1016  0.0917
  689PSPI   C1B10661  12.106   9.398   7.190 -0.1185  0.0312 -0.0464
  689PSPI   C2B10662  12.209   9.457   7.591  0.0145  0.1870 -0.3325
  689PSPI   C3B10663  12.006   9.622   7.806 -0.1823 -0.2242 -0.1481
  689PSPI   C4B10664  11.814   9.824   8.245 -0.0184  0.1628 -0.1736
  690PSPI    C110665   1.266  11.192   5.828 -0.0870  0.2033 -0.1221
  690PSPI    C210666   1.481  10.865   5.746 -0.1873  0.1526 -0.1842
  690PSPI    C310667   1.489  11.177   5.497 -0.1479  0.1694 -0.1618
  690PSPI   PO410668   1.264  11.185   6.128  0.0360 -0.2290  0.2927
  690PSPI   GL110669   1.007  10.960   6.475 -0.0769 -0.0788  0.2289
  690PSPI   GL210670   1.194  10.950   6.678  0.0591  0.3837 -0.0805
  690PSPI   C1A10671   0.665  10.790   6.659  0.1676  0.3337 -0.0334
  690PSPI   C2A10672   0.626  10.747   7.086  0.1775 -0.0052 -0.0939
  690PSPI   C3A10673   0.390  10.763   7.357  0.3049  0.4709 -0.0285
  690PSPI   C4A10674   0.564  10.838   7.725 -0.2864  0.0415 -0.1415
  690PSPI   C1B10675   1.101  10.799   7.109 -0.0034 -0.0133  0.1137
  690PSPI   C2B10676   0.972  10.697   7.432  0.0593  0.2417  0.1695
  690PSPI   C3B10677   1.057  10.637   7.884 -0.2009  0.1224  0.2811
  690PSPI   C4B10678   1.354  10.696   8.214  0.2064  0.1318 -0.1570
  691PSPI    C110679   1.986   0.937   5.933  0.2210 -0.4057 -0.2095
  691PSPI    C210680   1.995   1.064   5.554  0.2182 -0.0144 -0.0828
  691PSPI    C310681   1.646   1.031   5.746  0.2607  0.3484  0.0643
  691PSPI   PO410682   2.203   1.025   6.019  0.0069 -0.0591  0.0795
  691PSPI   GL110683   2.464   0.940   6.356  0.2896  0.1050  0.0965
  691PSPI   GL210684   2.489   1.321   6.351 -0.0222 -0.1545 -0.0516
  691PSPI   C1A10685   2.519   0.890   6.818 -0.2653  0.1098  0.0543
  691PSPI   C2A10686   2.582   0.911   7.178 -0.1232  0.0396  0.0565
  691PSPI   C3A10687   2.637   0.771   7.564  0.4028 -0.2154  0.1190
  691PSPI   C4A10688   2.270   0.576   7.752 -0.1215 -0.1098  0.1505
  691PSPI   C1B10689   2.759   1.313   6.641 -0.0041  0.4092 -0.0724
  691PSPI   C2B10690   3.018   1.276   6.993 -0.1785 -0.1002  0.3645
  691PSPI   C3B10691   3.021   1.176   7.440 -0.2821 -0.2165  0.0132
  691PSPI   C4B10692   2.875   1.224   7.826 -0.0868  0.1569  0.1630
  692PSPI    C110693   1.147  12.185   5.889 -0.1736 -0.1340 -0.0576
  692PSPI    C210694   0.830  12.422   5.945 -0.1239 -0.0918  0.0479
  692PSPI    C310695   0.781  12.057   5.789 -0.1851  0.0355 -0.2372
  692PSPI   PO410696   1.261  12.199   6.116  0.1477 -0.2003 -0.1219
  692PSPI   GL110697   1.289  11.928   6.586  0.1717  0.0520  0.0083
  692PSPI   GL210698   1.603  11.957   6.585 -0.2865 -0.0034  0.1220
  692PSPI   C1A10699   1.140  11.736   6.987 -0.1341 -0.2192  0.1870
  692PSPI   C2A10700   1.108  11.617   7.521  0.0248 -0.2509  0.3534
  692PSPI   C3A10701   1.086  11.757   7.938 -0.0187  0.1254  0.0705
  692PSPI   C4A10702   1.263  12.153   8.228  0.3836  0.2437 -0.0048
  692PSPI   C1B10703   1.644  11.807   7.093  0.0042  0.2551 -0.0771
  692PSPI   C2B10704   1.619  11.582   7.483  0.1778 -0.3005 -0.1469
  692PSPI   C3B10705   1.552  11.533   7.922 -0.0126  0.2750  0.1577
  692PSPI   C4B10706   1.351  11.475   8.290 -0.5589  0.1694  0.0905
  693POPI    C110707   5.641   2.593   5.903  0.0887  0.0058  0.0050
  693POPI    C210708   5.718   2.985   5.889 -0.1342  0.0637  0.3130
  693POPI    C310709   5.566   2.799   5.569  0.0047  0.2203  0.1544
  693POPI   PO410710   5.502   2.597   6.190  0.1830 -0.0493 -0.3120
  693POPI   GL110711   5.402   2.788   6.584  0.1164 -0.0282 -0.0972
  693POPI   GL210712   5.268   2.660   6.828  0.1238 -0.1694  0.0348
  693POPI   C1A10713   5.191   3.193   6.863  0.0051 -0.1300 -0.1236
  693POPI   D2A10714   4.820   3.495   6.970 -0.2769  0.2301 -0.0009
  693POPI   C3A10715   4.716   3.670   7.285  0.0119 -0.0912 -0.2961
  693POPI   C4A10716   4.803   3.623   7.784 -0.0842 -0.1291 -0.0375
  693POPI   C1B10717   5.454   2.395   7.181  0.3430 -0.0708  0.0546
  693POPI   C2B10718   5.262   2.178   7.537 -0.1118 -0.0217 -0.3115
  693POPI   C3B10719   5.464   1.967   7.872 -0.0457 -0.1535  0.1620
  693POPI   C4B10720   5.438   1.755   8.223  0.1863  0.0133 -0.1421
  694POPI    C110721   6.577  17.262   5.397  0.1043  0.0838 -0.0219
  694POPI    C210722   6.733  16.895   5.419  0.3376  0.1696 -0.2084
  694POPI    C310723   6.506  16.997   5.106 -0.0123  0.0793  0.0098
  694POPI   PO410724   6.530  17.305   5.729 -0.1730 -0.0428  0.0250
  694POPI   GL110725   6.373  17.259   6.157 -0.0570  0.1423 -0.0565
  694POPI   GL210726   6.566  17.131   6.386  0.1094 -0.1202 -0.0791
  694POPI   C1A10727   6.053  17.491   6.194  0.1911 -0.0600  0.1820
  694POPI   D2A10728   5.887  17.946   6.232 -0.1912  0.1869 -0.0914
  694POPI   C3A10729   6.239  18.217   6.516 -0.1552 -0.1847  0.1120
  694POPI   C4A10730   6.340  18.199   6.853 -0.0353 -0.1168 -0.1962
  694POPI   C1B10731   6.381  17.062   6.733 -0.0706  0.0636  0.2719
  694POPI   C2B10732   6.462  17.162   7.099  0.1736 -0.1062 -0.1682
  694POPI   C3B10733   6.542  17.128   7.408 -0.0330  0.1171  0.0536
  694POPI   C4B10734   6.620  17.332   7.806 -0.2097 -0.0113 -0.0406
  695POPI    C110735   8.216  12.166   5.670  0.2101 -0.0809 -0.1215
  695POPI    C210736   8.287  12.007   5.310  0.0154  0.0654 -0.2264
  695POPI    C310737   7.939  12.191   5.383  0.1325  0.2121 -0.0254
  695POPI   PO410738   8.452  12.330   5.786 -0.0482  0.6305 -0.0046
  695POPI   GL110739   8.804  12.155   6.068 -0.0118  0.1926 -0.0219
  695POPI   GL210740   9.034  12.099   6.375  0.0026  0.1462 -0.0951
  695POPI   C1A10741   8.584  12.039   6.508  0.2747 -0.2019 -0.0889
  695POPI   D2A10742   8.294  12.144   6.754  0.0185 -0.0207 -0.1762
  695POPI   C3A10743   7.959  11.920   7.002 -0.0984 -0.2603 -0.3238
  695POPI   C4A10744   7.575  11.951   7.258  0.1890  0.0365  0.1107
  695POPI   C1B10745   9.015  12.160   6.820  0.0337 -0.1168 -0.3692
  695POPI   C2B10746   8.909  12.051   7.301  0.0612  0.0203 -0.0216
  695POPI   C3B10747   8.788  11.846   7.701  0.0547 -0.0480  0.0735
  695POPI   C4B10748   8.807  11.967   8.175  0.2909  0.1752  0.0054
  696POPI    C110749   3.733  12.317   5.831 -0.0351  0.0599  0.2167
  696POPI    C210750   3.635  12.698   5.764 -0.2452 -0.0141  0.0938
  696POPI    C310751   4.018  12.585   5.749 -0.1882  0.1783  0.0644
  696POPI   PO410752   3.595  12.262   6.102 -0.2857 -0.0690  0.1753
  696POPI   GL110753   3.653  12.291   6.572 -0.3291  0.0922  0.6052
  696POPI   GL210754   3.940  12.032   6.590  0.1517 -0.0562  0.2281
  696POPI   C1A10755   3.388  12.538   6.695 -0.1081  0.1976 -0.0833
  696POPI   D2A10756   3.012  12.532   6.776 -0.1410 -0.0390 -0.0586
  696POPI   C3A10757   2.799  12.507   7.061  0.0097 -0.1816  0.2335
  696POPI   C4A10758   2.359  12.398   7.010  0.1219  0.2303 -0.0008
  696POPI   C1B10759   3.880  12.292   7.016 -0.0333  0.0027 -0.0243
  696POPI   C2B10760   3.892  12.232   7.442  0.3166 -0.1690 -0.0273
  696POPI   C3B10761   4.001  12.308   7.817  0.3279  0.1369 -0.0510
  696POPI   C4B10762   4.192  12.386   8.190 -0.2103  0.1286 -0.1861
  697POPI    C110763  15.280   3.323   6.210 -0.0744  0.0457 -0.1024
  697POPI    C210764  15.204   2.943   6.110 -0.0372 -0.0663  0.2805
  697POPI    C310765  15.341   3.199   5.834 -0.2101 -0.2887 -0.0174
  697POPI   PO410766  15.532   3.241   6.510 -0.0438 -0.3921 -0.0265
  697POPI   GL110767  15.535   2.980   6.961  0.2745  0.0998 -0.2460
  697POPI   GL210768  15.710   3.204   7.092 -0.0619  0.0850  0.4314
  697POPI   C1A10769  15.224   2.738   7.255 -0.3059  0.1221 -0.0271
  697POPI   D2A10770  15.127   2.560   7.610  0.0347  0.1203  0.0696
  697POPI   C3A10771  15.199   2.865   7.837 -0.5011  0.1624 -0.0821
  697POPI   C4A10772  14.991   3.138   8.066 -0.1124  0.2745  0.0309
  697POPI   C1B10773  15.570   3.114   7.492  0.0344 -0.2676  0.1263
  697POPI   C2B10774  15.712   2.990   7.838  0.0434 -0.1702  0.2058
  697POPI   C3B10775  15.576   2.976   8.234  0.0396 -0.0347 -0.0463
  697POPI   C4B10776  15.703   2.906   8.670  0.2198 -0.1631 -0.1097
  698POPI    C110777  13.516  16.614   5.841 -0.1171 -0.1838 -0.1330
  698POPI    C210778  13.340  16.557   5.487  0.1634 -0.3615 -0.2470
  698POPI    C310779  13.737  16.520   5.521  0.2074  0.2116 -0.0341
  698POPI   PO410780  13.459  16.839   5.937 -0.2018 -0.1536  0.1388
  698POPI   GL110781  13.672  16.942   6.302 -0.0562  0.1895  0.0621
  698POPI   GL210782  13.385  17.182   6.306  0.0597 -0.2857  0.3042
  698POPI   C1A10783  13.464  16.818   6.717 -0.2179  0.3463  0.0081
  698POPI   D2A10784  13.440  16.813   7.243  0.0777 -0.2923 -0.1731
  698POPI   C3A10785  13.210  17.107   7.521  0.1702 -0.2498  0.1159
  698POPI   C4A10786  13.154  17.238   7.909 -0.0409  0.1492 -0.0587
  698POPI   C1B10787  13.298  17.343   6.717  0.0195 -0.1376  0.1977
  698POPI   C2B10788  13.105  17.492   7.093  0.0206 -0.0245 -0.1003
  698POPI   C3B10789  13.056  17.611   7.530 -0.0281  0.2103 -0.2194
  698POPI   C4B10790  13.107  17.694   7.954  0.2222  0.2595 -0.2680
  699POPI    C110791   2.683   6.097   6.255 -0.0983 -0.1378 -0.0999
  699POPI    C210792   2.810   6.159   5.880 -0.0902  0.0569 -0.0660
  699POPI    C310793   2.429   6.231   5.978 -0.1144 -0.0795 -0.0570
  699POPI   PO410794   2.907   6.205   6.409 -0.0653  0.2836  0.1300
  699POPI   GL110795   2.863   6.568   6.697 -0.0254  0.0116 -0.2953
  699POPI   GL210796   2.415   6.602   6.827  0.1091 -0.2250  0.2146
  699POPI   C1A10797   2.975   6.788   7.039 -0.2929  0.0612  0.0833
  699POPI   D2A10798   2.863   6.898   7.417  0.0048 -0.1503  0.1553
  699POPI   C3A10799   2.932   6.680   7.788 -0.1639  0.0624  0.0313
  699POPI   C4A10800   2.715   6.327   8.026 -0.1466  0.1490  0.1006
  699POPI   C1B10801   2.447   6.652   7.251 -0.2489  0.0758  0.1490
  699POPI   C2B10802   2.433   6.804   7.660 -0.1127  0.3190  0.0640
  699POPI   C3B10803   2.682   6.913   8.124  0.1697 -0.0835 -0.1161
  699POPI   C4B10804   3.022   6.825   8.267  0.2334 -0.0616 -0.0919
  700POPI    C110805  13.840   4.573   6.195  0.0560  0.0322  0.1423
  700POPI    C210806  14.068   4.548   5.868 -0.2389  0.0749 -0.0706
  700POPI    C310807  13.752   4.307   5.910 -0.4038  0.3038  0.0204
  700POPI   PO410808  13.955   4.529   6.372  0.1712 -0.2986 -0.3015
  700POPI   GL110809  13.968   4.707   6.814  0.1744 -0.3564  0.2999
  700POPI   GL210810  13.671   4.797   6.648 -0.0278 -0.0995  0.3752
  700POPI   C1A10811  14.079   4.875   7.137 -0.0553 -0.0952 -0.0037
  700POPI   D2A10812  14.302   4.765   7.502 -0.0804  0.1765 -0.1717
  700POPI   C3A10813  14.381   5.109   7.773  0.1394 -0.2391 -0.1150
  700POPI   C4A10814  14.593   5.406   7.775 -0.0140  0.1761 -0.1026
  700POPI   C1B10815  13.595   4.910   7.058  0.3565 -0.0827  0.1556
  700POPI   C2B10816  13.706   5.037   7.471 -0.0215 -0.0853 -0.1915
  700POPI   C3B10817  13.851   5.050   7.715 -0.4341 -0.1258 -0.1147
  700POPI   C4B10818  14.006   4.837   7.934 -0.0499  0.3422 -0.0062
  701POPI    C110819  10.702   4.493   5.558  0.0304  0.1896 -0.4838
  701POPI    C210820  10.690   4.112   5.437  0.0633  0.0447 -0.0478
  701POPI    C310821  11.041   4.302   5.462  0.1091 -0.0744  0.2556
  701POPI   PO410822  10.524   4.477   5.758  0.0717 -0.1498 -0.2248
  701POPI   GL110823  10.427   4.373   6.131 -0.3226 -0.3896  0.2607
  701POPI   GL210824  10.200   4.062   6.235 -0.1211 -0.1212 -0.1355
  701POPI   C1A10825  10.368   4.579   6.535 -0.1078 -0.1952  0.2060
  701POPI   D2A10826  10.174   4.800   6.752 -0.0913  0.2043  0.1886
  701POPI   C3A10827  10.046   4.679   7.195  0.0521 -0.0138 -0.0387
  701POPI   C4A10828  10.079   4.974   7.597  0.0222 -0.0493 -0.1233
  701POPI   C1B10829  10.021   3.711   6.610 -0.0570 -0.1834  0.1038
  701POPI   C2B10830   9.726   3.845   6.955 -0.1829  0.3441 -0.3537
  701POPI   C3B10831   9.625   3.612   7.334  0.3360 -0.0061  0.1883
  701POPI   C4B10832   9.507   3.682   7.720  0.0297 -0.1761 -0.2196
  702POPI    C110833   9.969  13.660   5.402 -0.1596 -0.1187 -0.0419
  702POPI    C210834  10.258  13.564   5.143 -0.0113 -0.0815  0.1080
  702POPI    C310835   9.901  13.685   5.009  0.0201 -0.1917 -0.0785
  702POPI   PO410836  10.097  13.415   5.609 -0.1538  0.1239  0.1291
  702POPI   GL110837  10.080  13.556   6.026 -0.0770 -0.0568  0.1774
  702POPI   GL210838   9.860  13.514   6.293 -0.1128  0.1466 -0.0173
  702POPI   C1A10839  10.271  13.890   6.192 -0.2807  0.0128  0.1286
  702POPI   D2A10840  10.367  14.188   6.374 -0.0690  0.1409 -0.1158
  702POPI   C3A10841  10.204  14.118   6.768 -0.2993 -0.0210 -0.1075
  702POPI   C4A10842   9.983  13.920   7.098  0.0421  0.0939  0.0280
  702POPI   C1B10843  10.236  13.559   6.660  0.1020 -0.0173  0.1821
  702POPI   C2B10844  10.380  13.459   6.983  0.1795 -0.1113 -0.0044
  702POPI   C3B10845  10.583  13.277   7.243  0.3305  0.3212 -0.3927
  702POPI   C4B10846  10.612  13.302   7.692 -0.0636 -0.0328 -0.3021
  703POPI    C110847   9.191   7.853   5.843 -0.0262 -0.1544 -0.0868
  703POPI    C210848   9.520   8.008   5.676 -0.1370  0.2994  0.1029
  703POPI    C310849   9.207   7.908   5.447  0.1584 -0.2191 -0.0892
  703POPI   PO410850   9.382   7.671   6.134 -0.3550 -0.1884 -0.5589
  703POPI   GL110851   9.455   7.775   6.559  0.1858  0.1472  0.2861
  703POPI   GL210852   9.570   8.017   6.718  0.1369 -0.2388  0.1578
  703POPI   C1A10853   9.331   7.388   6.838  0.0060  0.1524  0.1384
  703POPI   D2A10854   9.059   7.041   6.855  0.0868  0.2321  0.0955
  703POPI   C3A10855   9.019   6.997   7.213 -0.3011 -0.3278 -0.0095
  703POPI   C4A10856   8.865   6.954   7.613 -0.1261 -0.3314 -0.0876
  703POPI   C1B10857   9.435   8.086   7.154  0.0660  0.2256  0.1480
  703POPI   C2B10858   9.465   8.279   7.399 -0.0357  0.3148  0.0353
  703POPI   C3B10859   9.582   8.444   7.859  0.2944 -0.2657  0.0673
  703POPI   C4B10860   9.762   8.752   8.132  0.0407 -0.0764  0.1729
  704POPI    C110861  14.133   6.915   5.976  0.0507  0.1131  0.0422
  704POPI    C210862  14.514   6.905   5.854  0.0480  0.1335  0.0318
  704POPI    C310863  14.275   7.203   5.738 -0.0060  0.0533 -0.0645
  704POPI   PO410864  14.159   6.874   6.206  0.2842  0.2751  0.0722
  704POPI   GL110865  13.924   6.574   6.516 -0.3275 -0.1365  0.3588
  704POPI   GL210866  14.084   6.345   6.520 -0.0922  0.1249  0.2007
  704POPI   C1A10867  14.137   6.755   6.878 -0.0924 -0.0417 -0.1229
  704POPI   D2A10868  14.295   6.884   7.259 -0.1684  0.0812 -0.0683
  704POPI   C3A10869  14.183   6.912   7.655 -0.2052 -0.2756  0.1135
  704POPI   C4A10870  13.989   7.188   7.904 -0.0456 -0.1040  0.2119
  704POPI   C1B10871  13.949   6.240   6.987 -0.0138 -0.4035  0.2143
  704POPI   C2B10872  14.066   6.515   7.342  0.4165  0.0982 -0.0627
  704POPI   C3B10873  13.947   6.462   7.694  0.4321  0.0228  0.0743
  704POPI   C4B10874  14.038   6.761   8.118  0.0448  0.0587  0.0762
  705POPI    C110875   5.628   1.502   5.476  0.0837  0.1711  0.0609
  705POPI    C210876   5.479   1.167   5.636  0.0009  0.2997  0.2587
  705POPI    C310877   5.458   1.227   5.241 -0.3383  0.2482  0.2661
  705POPI   PO410878   5.537   1.665   5.650  0.1602 -0.0283 -0.0753
  705POPI   GL110879   5.512   1.676   6.080 -0.1218  0.2211  0.2326
  705POPI   GL210880   5.544   1.377   6.101  0.0105 -0.0329  0.0378
  705POPI   C1A10881   5.827   1.928   6.380 -0.0174 -0.3386 -0.2445
  705POPI   D2A10882   5.696   1.809   6.804  0.0606 -0.0852  0.0420
  705POPI   C3A10883   5.965   1.570   7.179  0.2263  0.0826  0.0240
  705POPI   C4A10884   5.744   1.375   7.444 -0.1344 -0.0305 -0.3168
  705POPI   C1B10885   5.494   1.314   6.490  0.1277 -0.1110 -0.0745
  705POPI   C2B10886   5.481   1.343   6.931 -0.0926 -0.2985  0.1090
  705POPI   C3B10887   5.250   1.348   7.260  0.2889 -0.0339 -0.0136
  705POPI   C4B10888   5.306   1.104   7.534 -0.1509 -0.1202 -0.0081
  706POPI    C110889   3.110   4.040   6.244  0.0704  0.1572  0.1542
  706POPI    C210890   3.191   4.350   6.485  0.0700  0.3272 -0.0605
  706POPI    C310891   2.822   4.300   6.339 -0.0236  0.0138  0.2658
  706POPI   PO410892   3.199   3.801   6.400 -0.0896  0.2180  0.0509
  706POPI   GL110893   3.075   3.738   6.731  0.2851  0.4388 -0.0361
  706POPI   GL210894   3.057   3.962   6.932  0.1187 -0.2885 -0.0958
  706POPI   C1A10895   3.307   3.404   7.194  0.0984 -0.0943 -0.2513
  706POPI   D2A10896   3.213   3.404   7.650  0.0623  0.0862 -0.1464
  706POPI   C3A10897   3.416   3.390   8.029 -0.0165 -0.0898  0.1969
  706POPI   C4A10898   3.539   3.248   8.369 -0.0815  0.1478  0.0315
  706POPI   C1B10899   2.989   3.824   7.334  0.1693 -0.2920 -0.0051
  706POPI   C2B10900   2.873   3.745   7.725 -0.1038  0.2769 -0.0023
  706POPI   C3B10901   2.926   3.391   8.033 -0.0500  0.2604  0.0642
  706POPI   C4B10902   3.086   3.613   8.356  0.3458  0.0250 -0.1626
  707POPI    C110903   1.982  12.294   5.793 -0.3049 -0.0891 -0.0525
  707POPI    C210904   1.992  12.590   6.061  0.0340 -0.1306 -0.0146
  707POPI    C310905   1.646  12.488   5.888 -0.1775 -0.0606  0.3568
  707POPI   PO410906   2.236  12.112   5.930  0.1204 -0.0558 -0.2314
  707POPI   GL110907   2.608  12.164   6.320  0.0776 -0.1183  0.2013
  707POPI   GL210908   2.476  12.413   6.276  0.0299  0.0677 -0.0630
  707POPI   C1A10909   2.689  12.125   6.796  0.1560  0.1630  0.0849
  707POPI   D2A10910   2.695  11.969   7.163  0.1351 -0.0860  0.3145
  707POPI   C3A10911   2.850  12.127   7.524  0.1828  0.3771 -0.1080
  707POPI   C4A10912   3.031  12.072   7.888 -0.0548  0.4052 -0.1160
  707POPI   C1B10913   2.533  12.666   6.595  0.0255 -0.3721  0.2875
  707POPI   C2B10914   2.525  12.897   7.031 -0.1886 -0.1227  0.0933
  707POPI   C3B10915   2.495  12.831   7.479  0.0295  0.2301  0.0705
  707POPI   C4B10916   2.421  12.600   7.748  0.0548  0.2355 -0.3036
  708POPI    C110917   5.650  16.108   6.017 -0.0398 -0.0461 -0.0615
  708POPI    C210918   5.552  15.723   5.975 -0.1553  0.0125 -0.3519
  708POPI    C310919   5.928  15.841   5.912 -0.0305 -0.1105  0.1221
  708POPI   PO410920   5.385  16.179   6.153  0.0096  0.1695 -0.0604
  708POPI   GL110921   5.282  16.085   6.489 -0.1001  0.3970 -0.0097
  708POPI   GL210922   5.355  15.729   6.486  0.0660  0.0329 -0.3469
  708POPI   C1A10923   5.287  16.461   6.712  0.0033  0.1161 -0.1631
  708POPI   D2A10924   5.331  16.711   7.161  0.0947 -0.2064  0.0906
  708POPI   C3A10925   4.875  16.722   7.345 -0.2066 -0.1559 -0.0969
  708POPI   C4A10926   4.389  16.644   7.329  0.0409  0.2956 -0.1882
  708POPI   C1B10927   5.292  15.769   6.885  0.0258  0.0765 -0.0006
  708POPI   C2B10928   5.363  15.812   7.327  0.2650  0.2122  0.0842
  708POPI   C3B10929   5.458  15.805   7.748  0.2225  0.1638 -0.0626
  708POPI   C4B10930   5.473  15.809   8.191 -0.2745 -0.1374 -0.0198
  709POPI    C110931   6.027   7.925   6.041  0.1084 -0.1567  0.0112
  709POPI    C210932   6.354   8.110   5.904  0.0895 -0.0436  0.1159
  709POPI    C310933   6.002   8.300   5.903  0.1075 -0.0049  0.4099
  709POPI   PO410934   6.150   7.737   6.228  0.2770 -0.0598  0.3453
  709POPI   GL110935   6.429   7.745   6.539  0.1799  0.3390 -0.0432
  709POPI   GL210936   6.270   7.531   6.701 -0.1999 -0.1495 -0.2759
  709POPI   C1A10937   6.747   7.583   6.926  0.0350  0.0493 -0.1124
  709POPI   D2A10938   6.622   7.842   7.286 -0.0490 -0.1564  0.0785
  709POPI   C3A10939   6.618   8.041   7.698 -0.0970 -0.0649  0.0154
  709POPI   C4A10940   6.534   7.916   8.128  0.1903 -0.2006 -0.1577
  709POPI   C1B10941   6.216   7.475   7.139 -0.1491  0.1444  0.3883
  709POPI   C2B10942   6.125   7.395   7.582 -0.0889  0.0973 -0.2436
  709POPI   C3B10943   6.199   6.977   7.690 -0.2070  0.0654  0.1096
  709POPI   C4B10944   6.347   6.725   7.275 -0.0462 -0.3586  0.1035
  710POPI    C110945   0.521  13.434   5.982  0.0549  0.2175  0.1931
  710POPI    C210946   0.418  13.181   6.275  0.2400  0.2019  0.2461
  710POPI    C310947   0.366  13.076   5.892  0.0861  0.1839  0.2715
  710POPI   PO410948   0.831  13.494   6.118  0.2549 -0.1989 -0.1357
  710POPI   GL110949   0.945  13.644   6.489  0.0561  0.1045 -0.0481
  710POPI   GL210950   0.741  13.497   6.641 -0.0036 -0.2053  0.1370
  710POPI   C1A10951   1.062  13.826   6.862  0.0144  0.2979 -0.1968
  710POPI   D2A10952   1.102  13.737   7.254  0.1414  0.0266 -0.0992
  710POPI   C3A10953   1.467  13.675   7.516 -0.0397  0.0249 -0.0415
  710POPI   C4A10954   1.836  13.742   7.631  0.1249 -0.2300 -0.0329
  710POPI   C1B10955   0.694  13.491   7.077  0.2018 -0.2502  0.0823
  710POPI   C2B10956   0.597  13.598   7.571  0.2416 -0.0267 -0.1923
  710POPI   C3B10957   0.586  13.908   7.824  0.0154 -0.0858 -0.0263
  710POPI   C4B10958   0.637  14.432   7.719  0.1343  0.1052 -0.0757
  711POPI    C110959  14.834   4.299   6.077 -0.1759 -0.2150 -0.0107
  711POPI    C210960  14.782   4.061   5.759 -0.1589 -0.3323  0.0736
  711POPI    C310961  14.607   4.421   5.771  0.1073 -0.1891 -0.2139
  711POPI   PO410962  14.738   4.089   6.287 -0.1859 -0.3356 -0.1836
  711POPI   GL110963  14.826   3.979   6.693 -0.0727  0.0280 -0.0046
  711POPI   GL210964  14.634   4.185   6.775 -0.3040 -0.2936 -0.0115
  711POPI   C1A10965  15.098   3.791   6.895 -0.1183  0.0686  0.0663
  711POPI   D2A10966  15.421   3.571   6.978  0.1593 -0.0045 -0.0293
  711POPI   C3A10967  15.488   3.552   7.418  0.0744 -0.0305  0.0482
  711POPI   C4A10968  15.341   3.809   7.644  0.4184 -0.0693  0.0986
  711POPI   C1B10969  14.746   4.275   7.064 -0.0790  0.2967 -0.0008
  711POPI   C2B10970  14.804   4.501   7.387 -0.4426 -0.0266 -0.0577
  711POPI   C3B10971  15.051   4.624   7.829  0.1380 -0.3016 -0.2795
  711POPI   C4B10972  15.024   4.991   8.085 -0.0408 -0.1835 -0.0793
  712POPI    C110973   7.333  14.170   5.642 -0.0049 -0.0943  0.2022
  712POPI    C210974   7.469  14.497   5.827  0.0564  0.0086 -0.0204
  712POPI    C310975   7.680  14.334   5.529 -0.2646  0.1223 -0.3170
  712POPI   PO410976   7.229  14.014   5.857  0.1168  0.2240  0.0559
  712POPI   GL110977   7.383  13.935   6.302 -0.0002 -0.2164  0.1086
  712POPI   GL210978   7.040  13.867   6.431 -0.2548 -0.1383  0.2663
  712POPI   C1A10979   7.559  14.072   6.675 -0.2238  0.1741  0.3254
  712POPI   D2A10980   7.731  14.111   7.134  0.1023 -0.4158 -0.3175
  712POPI   C3A10981   7.572  13.954   7.488  0.2898  0.1117  0.0601
  712POPI   C4A10982   7.324  13.827   7.785 -0.0188 -0.1092  0.3312
  712POPI   C1B10983   7.001  13.960   6.851  0.0167 -0.1704 -0.1549
  712POPI   C2B10984   7.198  14.260   7.074  0.1494 -0.1080 -0.1212
  712POPI   C3B10985   7.480  14.577   7.154 -0.0238  0.0113 -0.0156
  712POPI   C4B10986   7.612  14.715   7.637 -0.0923 -0.0204  0.0774
  713POPI    C110987   7.387  17.258   5.869  0.1311 -0.1042  0.0232
  713POPI    C210988   7.060  17.296   5.642  0.1261  0.1585  0.0706
  713POPI    C310989   7.419  17.257   5.470  0.1246  0.3776  0.0153
  713POPI   PO410990   7.333  17.493   6.119  0.0959 -0.1929 -0.0238
  713POPI   GL110991   7.535  17.440   6.497 -0.0481 -0.1125  0.0771
  713POPI   GL210992   7.596  17.755   6.511  0.5704  0.0261 -0.1366
  713POPI   C1A10993   7.369  17.439   6.902 -0.2206  0.1118 -0.0429
  713POPI   D2A10994   7.595  17.470   7.314 -0.1613  0.1976  0.2204
  713POPI   C3A10995   7.637  17.786   7.667 -0.0460  0.1671 -0.1022
  713POPI   C4A10996   7.837  18.101   7.984  0.0699 -0.0268 -0.0963
  713POPI   C1B10997   7.644  17.838   6.864  0.1736  0.2567 -0.0784
  713POPI   C2B10998   7.637  18.065   7.189  0.1013 -0.0066 -0.0816
  713POPI   C3B10999   7.977  18.307   7.409  0.2523  0.2101 -0.0407
  713POPI   C4B11000   8.430  18.290   7.430 -0.0112 -0.0634  0.0273
  714POPI    C111001  15.512   8.062   5.883  0.2971 -0.5426  0.0609
  714POPI    C211002  15.851   8.179   5.705  0.1887 -0.3277 -0.0086
  714POPI    C311003  15.690   7.823   5.616  0.2383 -0.3043 -0.1958
  714POPI   PO411004  15.475   8.200   6.127  0.4880 -0.0291  0.1746
  714POPI   GL111005  15.611   8.220   6.526 -0.0533 -0.2569 -0.1124
  714POPI   GL211006  15.629   8.526   6.545 -0.2324  0.0173 -0.0160
  714POPI   C1A11007  15.654   8.007   6.838  0.0155  0.4527  0.1765
  714POPI   D2A11008  15.816   7.847   7.061  0.1665  0.0425 -0.4460
  714POPI   C3A11009  15.936   7.437   6.937 -0.0538  0.1914 -0.0452
  714POPI   C4A11010  15.761   6.999   7.016  0.0639 -0.2620  0.0140
  714POPI   C1B11011  15.692   8.464   6.954  0.2433 -0.0643  0.0340
  714POPI   C2B11012  15.786   8.268   7.289 -0.1796  0.1959  0.1242
  714POPI   C3B11013  15.732   7.973   7.671  0.2985  0.2685  0.1719
  714POPI   C4B11014  15.779   7.921   8.100  0.1027 -0.0681 -0.0182
  715POPI    C111015  14.688   5.046   6.256  0.0064 -0.0286 -0.1629
  715POPI    C211016  15.087   5.037   6.231  0.0216  0.0021  0.0435
  715POPI    C311017  14.866   4.804   5.992  0.1609  0.0174 -0.1021
  715POPI   PO411018  14.697   5.071   6.559 -0.0494  0.0812  0.2370
  715POPI   GL111019  14.609   5.516   6.751  0.0601 -0.2442  0.0738
  715POPI   GL211020  14.370   5.480   6.514 -0.3829  0.4786  0.2430
  715POPI   C1A11021  14.458   5.858   7.072  0.0133  0.1964  0.0026
  715POPI   D2A11022  14.190   6.019   7.380  0.3286  0.3229  0.1696
  715POPI   C3A11023  13.928   5.957   7.671  0.0724 -0.0231 -0.2141
  715POPI   C4A11024  13.698   6.112   7.940 -0.2304  0.2229  0.1277
  715POPI   C1B11025  14.026   5.728   6.802  0.0285  0.2640 -0.2115
  715POPI   C2B11026  13.641   5.886   7.145 -0.0823  0.1273 -0.1744
  715POPI   C3B11027  13.619   6.188   7.335 -0.1773  0.0829 -0.1513
  715POPI   C4B11028  13.376   6.346   7.659  0.0678 -0.0326  0.0266
  716POPI    C111029  13.598   5.117   6.273  0.0976  0.1341  0.2787
  716POPI    C211030  13.501   5.313   5.938  0.0398 -0.1196  0.1445
  716POPI    C311031  13.876   5.186   5.994  0.0733  0.0125  0.2237
  716POPI   PO411032  13.362   5.171   6.393 -0.2704 -0.3276  0.1513
  716POPI   GL111033  13.215   5.050   6.764  0.1651 -0.0731 -0.0145
  716POPI   GL211034  12.872   5.037   6.806 -0.1370 -0.1178 -0.0717
  716POPI   C1A11035  13.138   5.035   7.230 -0.2676  0.0855  0.4766
  716POPI   D2A11036  13.176   4.994   7.621  0.2055 -0.1305  0.0481
  716POPI   C3A11037  13.408   5.158   7.979 -0.1436  0.7202 -0.1147
  716POPI   C4A11038  13.698   5.218   8.299  0.0984 -0.4149 -0.1083
  716POPI   C1B11039  12.489   5.134   7.222 -0.0385 -0.0996  0.1884
  716POPI   C2B11040  12.291   5.506   7.418  0.1950  0.3013 -0.1914
  716POPI   C3B11041  12.301   5.603   7.949 -0.0621  0.1630 -0.0299
  716POPI   C4B11042  12.118   5.520   8.354 -0.2236 -0.0911 -0.0776
  717POPI    C111043   5.775  16.967   5.545  0.1682 -0.0905 -0.2886
  717POPI    C211044   6.022  17.248   5.685  0.0710 -0.2114  0.1399
  717POPI    C311045   6.170  16.917   5.516  0.1893 -0.0395 -0.0990
  717POPI   PO411046   5.635  16.906   5.767  0.2845 -0.1053  0.0860
  717POPI   GL111047   5.803  16.994   6.174  0.0096  0.2386  0.1430
  717POPI   GL211048   6.059  16.865   6.056  0.0365 -0.1916 -0.1802
  717POPI   C1A11049   5.912  17.170   6.547 -0.5039 -0.2771 -0.3103
  717POPI   D2A11050   6.018  17.378   6.934 -0.5322 -0.1532  0.0697
  717POPI   C3A11051   6.232  17.550   7.321 -0.1968  0.1752 -0.0283
  717POPI   C4A11052   6.110  17.658   7.707 -0.2938  0.0979 -0.2854
  717POPI   C1B11053   6.261  16.718   6.445  0.0319  0.0950 -0.1627
  717POPI   C2B11054   6.433  16.544   6.827 -0.0124 -0.0739  0.1414
  717POPI   C3B11055   6.394  16.663   7.217 -0.0677 -0.4963 -0.0125
  717POPI   C4B11056   6.432  16.633   7.613  0.1133  0.2342  0.4370
  718POPI    C111057  13.507   7.639   5.901 -0.1545  0.1643  0.1729
  718POPI    C211058  13.502   7.667   5.502  0.0766  0.2113  0.1722
  718POPI    C311059  13.355   7.341   5.681  0.0451  0.1550  0.0448
  718POPI   PO411060  13.719   7.809   6.022  0.0109 -0.2763 -0.0343
  718POPI   GL111061  13.935   7.772   6.377  0.2487  0.0722  0.1193
  718POPI   GL211062  14.254   7.712   6.479  0.0460  0.1995 -0.0601
  718POPI   C1A11063  14.009   8.105   6.749  0.0330 -0.1012  0.2419
  718POPI   D2A11064  14.186   8.421   7.055 -0.0476  0.0035 -0.4465
  718POPI   C3A11065  13.981   8.560   7.461 -0.1323  0.0454  0.3022
  718POPI   C4A11066  13.827   8.690   7.819  0.0905 -0.3093 -0.2259
  718POPI   C1B11067  14.242   7.657   6.887  0.3976 -0.1213 -0.2197
  718POPI   C2B11068  14.270   7.798   7.220  0.0767  0.1023 -0.1594
  718POPI   C3B11069  14.546   7.816   7.476  0.0129  0.2796 -0.0769
  718POPI   C4B11070  14.713   7.921   7.830  0.0364  0.1712  0.1515
  719POPI    C111071   6.632   6.485   6.253 -0.1355 -0.0917  0.1005
  719POPI    C211072   6.415   6.333   5.953 -0.0553  0.0967 -0.0547
  719POPI    C311073   6.772   6.497   5.879 -0.0456  0.1664  0.1408
  719POPI   PO411074   6.582   6.273   6.480  0.1226 -0.1053 -0.0035
  719POPI   GL111075   6.314   6.279   6.871  0.0858  0.2148  0.0447
  719POPI   GL211076   5.966   6.507   6.865  0.3873 -0.0526 -0.0566
  719POPI   C1A11077   6.625   6.340   7.229  0.1137 -0.1405 -0.1021
  719POPI   D2A11078   6.893   6.267   7.527 -0.4519  0.0272  0.0730
  719POPI   C3A11079   6.893   6.417   7.910 -0.2600  0.0984 -0.0280
  719POPI   C4A11080   6.994   6.606   8.346  0.6800  0.0275 -0.3426
  719POPI   C1B11081   5.992   6.388   7.283  0.4687 -0.0123 -0.0874
  719POPI   C2B11082   5.846   6.614   7.645  0.0657  0.0224 -0.1889
  719POPI   C3B11083   6.105   6.683   8.119 -0.0682  0.0648  0.3419
  719POPI   C4B11084   6.522   6.754   8.109  0.1422 -0.2785 -0.0117
  720POPI    C111085   5.409   4.058   6.028  0.0483  0.0947  0.6035
  720POPI    C211086   5.344   4.452   6.008 -0.3901  0.0056 -0.1447
  720POPI    C311087   5.706   4.304   5.922 -0.2359  0.2327  0.0940
  720POPI   PO411088   5.431   3.951   6.276 -0.2328 -0.0333  0.0298
  720POPI   GL111089   5.697   3.962   6.707 -0.3113  0.0421  0.0848
  720POPI   GL211090   5.406   4.170   6.790 -0.1204  0.1288 -0.1473
  720POPI   C1A11091   5.552   3.756   7.056  0.3084  0.1577  0.0263
  720POPI   D2A11092   5.586   3.765   7.515 -0.0007  0.3449 -0.4904
  720POPI   C3A11093   5.376   3.703   7.864  0.0589  0.1639  0.1319
  720POPI   C4A11094   5.341   3.464   8.210  0.0161  0.0039 -0.1352
  720POPI   C1B11095   5.405   4.195   7.230  0.1632  0.1287 -0.2216
  720POPI   C2B11096   5.406   4.195   7.676 -0.0503 -0.0635  0.1110
  720POPI   C3B11097   5.044   4.076   8.010 -0.3304 -0.0250  0.2634
  720POPI   C4B11098   4.920   3.723   8.254  0.2857 -0.2146 -0.1766
  721POPI    C111099   1.277   0.969   6.431 -0.0684 -0.0036 -0.0353
  721POPI    C211100   1.220   0.801   6.072 -0.1573 -0.0999  0.0236
  721POPI    C311101   1.583   0.797   6.238 -0.1270 -0.1011 -0.0424
  721POPI   PO411102   1.064   0.888   6.570  0.0162 -0.2759 -0.1175
  721POPI   GL111103   1.151   1.000   6.916  0.1002  0.0329 -0.0842
  721POPI   GL211104   0.925   0.755   7.068  0.0263 -0.0463 -0.3170
  721POPI   C1A11105   1.227   1.008   7.446 -0.3052 -0.0546 -0.0680
  721POPI   D2A11106   1.361   0.881   7.910  0.0835 -0.0861 -0.3379
  721POPI   C3A11107   1.229   0.443   8.042  0.2933 -0.1353  0.2777
  721POPI   C4A11108   1.079   0.157   8.291  0.0971 -0.0819 -0.2588
  721POPI   C1B11109   0.855   0.722   7.495  0.3337  0.1335  0.1897
  721POPI   C2B11110   0.865   0.839   7.898 -0.2133  0.0275  0.0915
  721POPI   C3B11111   0.878   0.647   8.316  0.2913  0.3091 -0.0614
  721POPI   C4B11112   0.638   0.515   8.622 -0.0814  0.0235  0.0119
  722POPI    C111113  16.322   8.345   5.950 -0.0166 -0.0562  0.0050
  722POPI    C211114  16.342   8.672   6.180 -0.1038 -0.1065  0.0846
  722POPI    C311115  16.203   8.699   5.806 -0.0521 -0.0417  0.0698
  722POPI   PO411116  16.473   8.092   6.128 -0.0104 -0.1341  0.0204
  722POPI   GL111117  16.468   7.949   6.588  0.0497  0.0427 -0.1370
  722POPI   GL211118  16.188   7.795   6.695  0.0662  0.1222 -0.0363
  722POPI   C1A11119  16.693   8.095   6.876 -0.1204 -0.0713  0.0849
  722POPI   D2A11120  16.810   8.031   7.251  0.0388  0.1236 -0.1644
  722POPI   C3A11121  16.753   7.828   7.675 -0.2803  0.3531  0.0981
  722POPI   C4A11122  17.039   7.840   8.020  0.0351  0.0626 -0.2945
  722POPI   C1B11123  16.315   7.764   7.084 -0.1704  0.1050  0.1071
  722POPI   C2B11124  16.267   7.768   7.464 -0.0030 -0.4074 -0.3999
  722POPI   C3B11125  16.243   7.890   7.810 -0.0204 -0.1621 -0.3107
  722POPI   C4B11126  16.205   8.221   8.166  0.2875  0.2177  0.1623
  723POPI    C111127   6.063  11.204   6.041 -0.1840 -0.1727 -0.0427
  723POPI    C211128   5.718  11.404   6.014 -0.1935 -0.1640  0.1294
  723POPI    C311129   5.935  11.334   5.686 -0.2009  0.1102  0.0641
  723POPI   PO411130   6.005  11.049   6.256 -0.0296  0.0288 -0.0536
  723POPI   GL111131   6.072  10.696   6.552 -0.3109  0.2264  0.1311
  723POPI   GL211132   6.038  10.388   6.620  0.0581  0.2287 -0.1563
  723POPI   C1A11133   6.094  10.729   7.014  0.0192 -0.0996  0.1594
  723POPI   D2A11134   5.931  10.685   7.442 -0.3105 -0.1988  0.1522
  723POPI   C3A11135   5.707  10.935   7.681  0.0411 -0.0748 -0.1877
  723POPI   C4A11136   5.631  11.170   8.201  0.0490  0.1646 -0.1294
  723POPI   C1B11137   5.903  10.267   7.106  0.0052 -0.1752 -0.0549
  723POPI   C2B11138   5.953  10.151   7.436 -0.0362 -0.1591  0.2242
  723POPI   C3B11139   6.013   9.890   7.802  0.1092  0.0138  0.0221
  723POPI   C4B11140   6.264   9.969   8.168  0.1393 -0.1196 -0.0320
  724POPI    C111141   7.214   2.875   5.951  0.1699  0.0571  0.1230
  724POPI    C211142   7.342   3.238   6.060 -0.0938  0.2193 -0.0941
  724POPI    C311143   7.435   3.094   5.699 -0.0801  0.1157 -0.0495
  724POPI   PO411144   6.923   2.966   6.107  0.2774  0.0350  0.0112
  724POPI   GL111145   6.790   3.042   6.587  0.0207  0.1937  0.0652
  724POPI   GL211146   7.063   3.221   6.507  0.0502  0.1597  0.0714
  724POPI   C1A11147   6.615   2.963   7.027  0.0007  0.1818  0.1566
  724POPI   D2A11148   6.578   2.816   7.506  0.0682  0.0543  0.4717
  724POPI   C3A11149   6.320   2.689   7.860  0.2270 -0.0143 -0.0749
  724POPI   C4A11150   6.133   2.709   8.260  0.1581  0.1000 -0.0203
  724POPI   C1B11151   7.126   3.009   6.962 -0.0417  0.0526 -0.1757
  724POPI   C2B11152   7.027   2.883   7.331 -0.2806 -0.3924 -0.0235
  724POPI   C3B11153   7.106   2.694   7.718 -0.2436 -0.2158  0.1514
  724POPI   C4B11154   7.246   2.692   8.068 -0.2760 -0.1483  0.2085
  725POPI    C111155   8.370  14.550   5.315 -0.0587 -0.0402 -0.0615
  725POPI    C211156   8.273  14.305   5.014 -0.0966  0.0702 -0.1396
  725POPI    C311157   8.464  14.649   4.939  0.0919 -0.0060 -0.0153
  725POPI   PO411158   8.153  14.542   5.488 -0.0030 -0.0808 -0.2432
  725POPI   GL111159   7.984  14.309   5.886  0.0253  0.3517 -0.0549
  725POPI   GL211160   7.967  13.920   6.170  0.1465  0.2631 -0.0514
  725POPI   C1A11161   7.771  14.328   6.286  0.0965  0.0677  0.0885
  725POPI   D2A11162   7.432  14.507   6.463 -0.3601  0.1739 -0.2643
  725POPI   C3A11163   7.517  14.859   6.786  0.0940 -0.2244  0.0986
  725POPI   C4A11164   7.925  15.036   7.032  0.2552 -0.1342 -0.1121
  725POPI   C1B11165   7.883  13.630   6.569  0.1601 -0.2523  0.2292
  725POPI   C2B11166   7.906  13.635   6.989  0.0995 -0.2896  0.1795
  725POPI   C3B11167   7.799  13.453   7.415  0.1124  0.0192 -0.2992
  725POPI   C4B11168   7.679  13.515   7.894  0.1964  0.0424 -0.2961
  726POPI    C111169  15.475   4.513   6.501 -0.0889  0.0136 -0.1165
  726POPI    C211170  15.317   4.555   6.135  0.0160 -0.1480 -0.1813
  726POPI    C311171  15.274   4.210   6.334 -0.0266 -0.0662 -0.0471
  726POPI   PO411172  15.383   4.815   6.557 -0.0221  0.0049  0.0852
  726POPI   GL111173  15.139   4.872   6.835  0.2231 -0.2641  0.0409
  726POPI   GL211174  15.061   4.707   7.026 -0.0193 -0.0242 -0.0264
  726POPI   C1A11175  15.036   5.237   7.130 -0.1407 -0.0046 -0.1047
  726POPI   D2A11176  14.676   5.466   7.245  0.0309  0.3367  0.2219
  726POPI   C3A11177  14.699   5.883   7.502 -0.0822 -0.1141 -0.1124
  726POPI   C4A11178  14.456   5.924   7.820 -0.0464  0.1064 -0.2031
  726POPI   C1B11179  15.310   4.927   7.377 -0.2369  0.1172 -0.1274
  726POPI   C2B11180  15.483   4.947   7.778  0.1803  0.1059 -0.2360
  726POPI   C3B11181  15.486   4.961   8.318 -0.2154  0.1147 -0.1629
  726POPI   C4B11182  15.630   5.188   8.554  0.1736 -0.0422 -0.1360
  727POPI    C111183   3.045   3.368   5.650  0.1330  0.2506 -0.1253
  727POPI    C211184   2.646   3.400   5.633  0.1067  0.1057  0.1528
  727POPI    C311185   2.875   3.608   5.379 -0.1504  0.0550 -0.1255
  727POPI   PO411186   3.069   3.366   5.907  0.0519 -0.2235  0.0569
  727POPI   GL111187   3.106   3.234   6.409 -0.2727 -0.0309  0.0004
  727POPI   GL211188   3.323   3.259   6.725 -0.0852 -0.2162  0.0806
  727POPI   C1A11189   2.912   2.815   6.433  0.1893  0.0282 -0.1996
  727POPI   D2A11190   2.922   2.548   6.824  0.0652  0.1837  0.1890
  727POPI   C3A11191   3.089   2.010   6.896  0.0061  0.1181  0.0373
  727POPI   C4A11192   3.029   1.738   6.568  0.1964  0.2329 -0.1281
  727POPI   C1B11193   3.716   3.089   6.921  0.0497  0.0908 -0.0088
  727POPI   C2B11194   4.063   3.034   7.214  0.1615  0.2273 -0.3094
  727POPI   C3B11195   4.137   2.981   7.625  0.2978  0.0071 -0.2692
  727POPI   C4B11196   4.041   3.152   8.131 -0.0470  0.3492 -0.1713
  728POPI    C111197   4.076   4.806   6.063  0.1773 -0.0557 -0.1502
  728POPI    C211198   3.724   4.903   5.900  0.0981  0.2442  0.1842
  728POPI    C311199   4.035   5.152   5.866  0.2123  0.0911  0.0949
  728POPI   PO411200   3.963   4.506   6.152 -0.0897  0.1160  0.3580
  728POPI   GL111201   3.994   4.295   6.488  0.0775  0.2478 -0.1637
  728POPI   GL211202   3.726   4.431   6.579 -0.0827 -0.0115 -0.1469
  728POPI   C1A11203   4.001   4.318   6.967 -0.2349 -0.0657  0.0822
  728POPI   D2A11204   3.965   4.311   7.367  0.0913  0.1094  0.0415
  728POPI   C3A11205   4.196   4.687   7.461 -0.4238 -0.3702 -0.0350
  728POPI   C4A11206   4.117   4.980   7.184 -0.2080 -0.0707  0.1639
  728POPI   C1B11207   3.437   4.485   6.916  0.0110 -0.0288  0.0641
  728POPI   C2B11208   3.231   4.350   7.283  0.1130  0.1221  0.1831
  728POPI   C3B11209   3.497   4.328   7.656 -0.0334  0.2020  0.1816
  728POPI   C4B11210   3.403   4.503   8.000 -0.0608  0.0636 -0.0592
  729POPI    C111211  11.303   9.129   5.873 -0.1483 -0.1315 -0.0103
  729POPI    C211212  11.445   9.431   5.652 -0.2449  0.0166  0.1278
  729POPI    C311213  11.496   9.053   5.531 -0.0656  0.0847 -0.0131
  729POPI   PO411214  11.089   9.279   5.959 -0.0813  0.0946 -0.0643
  729POPI   GL111215  10.853   9.172   6.242  0.2202 -0.1412 -0.0869
  729POPI   GL211216  10.632   9.194   6.367  0.2674 -0.0913 -0.1653
  729POPI   C1A11217  10.929   9.215   6.707 -0.1250 -0.0321  0.0465
  729POPI   D2A11218  10.950   9.286   7.237  0.0608  0.0930  0.1389
  729POPI   C3A11219  10.708   8.948   7.536 -0.0072  0.0298 -0.3537
  729POPI   C4A11220  10.819   8.487   7.469  0.0086  0.0413 -0.3835
  729POPI   C1B11221  10.309   9.469   6.387 -0.1611  0.1684 -0.1558
  729POPI   C2B11222  10.241   9.852   6.540  0.0028 -0.0147  0.3371
  729POPI   C3B11223  10.255  10.258   6.723 -0.2216 -0.0517  0.1705
  729POPI   C4B11224  10.100  10.575   7.000 -0.0406 -0.1848  0.1687
  730POPI    C111225  13.865   1.415   6.199 -0.2357  0.0600 -0.0292
  730POPI    C211226  13.678   1.514   5.860 -0.2058  0.2559  0.0107
  730POPI    C311227  14.045   1.656   5.935 -0.1062  0.0047  0.0074
  730POPI   PO411228  13.664   1.384   6.413 -0.1936  0.0444 -0.1231
  730POPI   GL111229  13.666   1.151   6.825 -0.0186 -0.0597  0.0643
  730POPI   GL211230  13.713   1.486   6.985 -0.1705 -0.1494 -0.0441
  730POPI   C1A11231  13.904   1.123   7.153  0.0363 -0.2021 -0.1861
  730POPI   D2A11232  14.294   1.169   7.450 -0.2449  0.2387  0.2308
  730POPI   C3A11233  14.275   1.359   7.853  0.0595 -0.2732  0.0587
  730POPI   C4A11234  14.158   1.406   8.290 -0.2853 -0.2230  0.0727
  730POPI   C1B11235  13.526   1.405   7.322  0.0251 -0.1546 -0.0030
  730POPI   C2B11236  13.649   1.094   7.681 -0.1532 -0.0782 -0.1390
  730POPI   C3B11237  13.785   1.063   8.074  0.3623  0.0785 -0.1503
  730POPI   C4B11238  13.609   0.817   8.447  0.0733 -0.0749  0.1754
  731POPI    C111239  13.852   5.921   6.381 -0.2071 -0.1202  0.2408
  731POPI    C211240  13.780   5.741   6.031  0.2742  0.2485 -0.0607
  731POPI    C311241  13.889   5.524   6.350 -0.1798 -0.0921 -0.1268
  731POPI   PO411242  13.651   6.123   6.351 -0.0085  0.0921  0.0164
  731POPI   GL111243  13.370   6.016   6.641  0.1034  0.1828 -0.2475
  731POPI   GL211244  13.491   5.712   6.648  0.2675  0.2084  0.1613
  731POPI   C1A11245  13.187   6.054   7.037 -0.1597  0.2739 -0.1175
  731POPI   D2A11246  13.162   5.883   7.543 -0.0245 -0.2017  0.1500
  731POPI   C3A11247  13.193   6.034   7.991  0.0269  0.3999 -0.0860
  731POPI   C4A11248  13.383   6.209   8.415 -0.1349  0.1736 -0.0255
  731POPI   C1B11249  13.375   5.485   7.002  0.1124 -0.1774 -0.2418
  731POPI   C2B11250  13.437   5.523   7.462 -0.0603 -0.0885  0.3319
  731POPI   C3B11251  13.587   5.608   7.795  0.2003  0.4073 -0.0421
  731POPI   C4B11252  13.414   5.639   8.205 -0.2783  0.1967  0.0874
  732POPI    C111253   1.605  13.413   5.770  0.1480 -0.1213 -0.0975
  732POPI    C211254   1.604  13.033   5.896  0.0005 -0.0460  0.1344
  732POPI    C311255   1.559  13.115   5.507  0.0010 -0.2643  0.0874
  732POPI   PO411256   1.784  13.534   6.026  0.0650 -0.0580 -0.0064
  732POPI   GL111257   1.632  13.688   6.377  0.1756 -0.1078  0.2305
  732POPI   GL211258   1.402  13.531   6.638  0.2226 -0.2796 -0.0963
  732POPI   C1A11259   1.988  13.790   6.629  0.0171  0.0113  0.0671
  732POPI   D2A11260   2.442  13.715   6.848  0.1123 -0.2460  0.0326
  732POPI   C3A11261   2.375  13.971   7.245  0.0970 -0.1849  0.2151
  732POPI   C4A11262   2.567  14.285   7.617  0.2026  0.0866  0.1895
  732POPI   C1B11263   1.232  13.331   6.939  0.1046  0.0679 -0.2509
  732POPI   C2B11264   1.138  13.258   7.417  0.1064  0.1748  0.3085
  732POPI   C3B11265   1.456  13.252   7.883  0.1619  0.2924 -0.3284
  732POPI   C4B11266   1.495  13.657   8.010 -0.0084  0.3889 -0.0667
  733POPI    C111267   9.401   0.700   5.897 -0.2043  0.1434 -0.1850
  733POPI    C211268   9.307   0.524   5.550  0.0677 -0.1769 -0.1010
  733POPI    C311269   9.666   0.695   5.596  0.1127 -0.3193  0.0898
  733POPI   PO411270   9.322   0.539   6.103 -0.0521  0.1387 -0.1885
  733POPI   GL111271   9.245   0.169   6.399  0.1435 -0.0049 -0.0078
  733POPI   GL211272   9.180   0.519   6.584 -0.1274  0.1090  0.2240
  733POPI   C1A11273   9.273  -0.004   6.776 -0.1601  0.1383  0.1310
  733POPI   D2A11274   9.489  -0.138   7.081  0.0673 -0.2962 -0.0321
  733POPI   C3A11275   9.511  -0.146   7.545  0.1543  0.2577 -0.2963
  733POPI   C4A11276   9.673  -0.199   7.969  0.2254  0.0743  0.2007
  733POPI   C1B11277   9.145   0.444   7.059 -0.2184 -0.1494 -0.0666
  733POPI   C2B11278   9.162   0.485   7.481  0.0181 -0.0820  0.5619
  733POPI   C3B11279   9.207   0.538   7.907 -0.0750 -0.3103  0.1022
  733POPI   C4B11280   9.013   0.709   8.180  0.0277 -0.2108 -0.1991
  734POPI    C111281   7.718  15.226   5.344  0.0853  0.0591  0.0974
  734POPI    C211282   7.553  14.862   5.325  0.0415  0.0847 -0.0190
  734POPI    C311283   7.529  15.109   5.012 -0.1014  0.2627  0.1299
  734POPI   PO411284   7.668  15.302   5.547  0.1344  0.1544  0.2753
  734POPI   GL111285   7.409  15.249   5.781 -0.1918  0.1633 -0.1568
  734POPI   GL211286   7.332  15.591   5.812 -0.0968  0.0939 -0.0309
  734POPI   C1A11287   7.405  15.024   6.146  0.1573  0.3321 -0.1311
  734POPI   D2A11288   7.723  14.822   6.274 -0.1978 -0.1730  0.1844
  734POPI   C3A11289   8.152  14.744   6.209 -0.0285 -0.0635 -0.0872
  734POPI   C4A11290   8.309  14.365   6.287  0.0654 -0.4055  0.4152
  734POPI   C1B11291   7.276  15.461   6.237  0.4320 -0.4777  0.1809
  734POPI   C2B11292   7.193  15.190   6.591 -0.0456 -0.1482  0.1651
  734POPI   C3B11293   7.460  15.439   6.944 -0.2010  0.1804  0.1567
  734POPI   C4B11294   7.480  15.571   7.347 -0.0024 -0.1096 -0.1327
  735POPI    C111295  16.480   6.197   5.683  0.0068  0.1153 -0.1785
  735POPI    C211296  16.088   6.195   5.765  0.0425  0.1781 -0.0045
  735POPI    C311297  16.213   6.165   5.386 -0.1234 -0.1487 -0.0367
  735POPI   PO411298  16.605   6.070   5.926  0.5271  0.0529 -0.1390
  735POPI   GL111299  16.341   6.207   6.198 -0.0112 -0.2549 -0.2587
  735POPI   GL211300  16.112   6.153   6.331 -0.1771  0.2247  0.1700
  735POPI   C1A11301  16.400   6.413   6.645 -0.1488 -0.0945  0.1629
  735POPI   D2A11302  16.408   6.557   7.004 -0.1626 -0.1045  0.2359
  735POPI   C3A11303  16.291   6.932   7.042  0.4090 -0.1681 -0.0276
  735POPI   C4A11304  16.250   7.318   7.325  0.0590 -0.2419 -0.1014
  735POPI   C1B11305  15.878   6.372   6.466 -0.2087  0.3658 -0.0502
  735POPI   C2B11306  15.589   6.732   6.538  0.0979 -0.0764  0.3262
  735POPI   C3B11307  15.503   7.244   6.599  0.0440  0.1925 -0.2726
  735POPI   C4B11308  15.358   7.590   6.813 -0.0849  0.0787  0.1240
  736POPI    C111309  13.224  12.290   6.014  0.0970 -0.0728 -0.0493
  736POPI    C211310  12.891  12.072   5.977  0.0562 -0.0400  0.1163
  736POPI    C311311  13.149  12.096   5.672 -0.1772  0.0747 -0.0751
  736POPI   PO411312  13.351  12.267   6.179  0.1511 -0.0705  0.0099
  736POPI   GL111313  13.463  11.974   6.459 -0.3484  0.0720  0.1472
  736POPI   GL211314  13.681  12.170   6.551  0.2508 -0.1537 -0.0339
  736POPI   C1A11315  13.235  12.048   6.877 -0.0865  0.0442 -0.1372
  736POPI   D2A11316  13.129  11.925   7.331 -0.1087 -0.1950 -0.0061
  736POPI   C3A11317  13.120  12.114   7.731  0.1527  0.2102  0.1024
  736POPI   C4A11318  13.249  11.902   8.126 -0.0436 -0.1338  0.0785
  736POPI   C1B11319  13.703  11.894   6.950 -0.0692  0.0465  0.1541
  736POPI   C2B11320  13.674  11.882   7.342 -0.2594 -0.3441  0.1362
  736POPI   C3B11321  13.658  11.885   7.766 -0.1391  0.0632  0.3128
  736POPI   C4B11322  13.815  11.676   8.155  0.0868  0.0101 -0.3906
  737POPI    C111323  10.078   5.841   5.980  0.1789  0.1091 -0.0788
  737POPI    C211324   9.864   6.161   5.871  0.1302  0.0684 -0.1029
  737POPI    C311325   9.816   5.813   5.679 -0.0028 -0.0211  0.0890
  737POPI   PO411326  10.022   5.903   6.262  0.1020  0.2325  0.2324
  737POPI   GL111327   9.791   5.656   6.638  0.2576  0.1384 -0.1290
  737POPI   GL211328   9.666   5.458   6.435  0.1292 -0.0832  0.4884
  737POPI   C1A11329   9.596   5.635   7.108 -0.3524 -0.1571 -0.0831
  737POPI   D2A11330   9.434   5.511   7.462  0.2354  0.0796  0.0067
  737POPI   C3A11331   9.078   5.642   7.678  0.0033 -0.3658  0.3083
  737POPI   C4A11332   8.729   5.832   7.838 -0.5536  0.0748  0.3128
  737POPI   C1B11333   9.772   5.216   6.780  0.1860  0.0158  0.3381
  737POPI   C2B11334   9.790   5.096   7.238  0.1794  0.0156  0.1729
  737POPI   C3B11335   9.565   5.026   7.628 -0.0976 -0.2993 -0.0459
  737POPI   C4B11336   9.739   4.957   7.983 -0.4346  0.1207  0.0915
  738POPS   CNO11337  13.644  17.667   6.185  0.0157 -0.2852  0.1250
  738POPS   PO411338  14.118  17.727   6.065  0.2232 -0.0202 -0.0591
  738POPS   GL111339  14.017  17.883   6.419 -0.2926 -0.1200  0.1070
  738POPS   GL211340  13.785  17.877   6.636 -0.1096 -0.1594 -0.2562
  738POPS   C1A11341  14.199  17.694   6.806 -0.2279 -0.3592  0.0541
  738POPS   D2A11342  14.039  17.669   7.352 -0.2095  0.0874 -0.0545
  738POPS   C3A11343  14.352  17.732   7.606  0.4923 -0.1458 -0.0666
  738POPS   C4A11344  14.543  17.402   7.959 -0.0932  0.1662  0.1268
  738POPS   C1B11345  13.764  18.052   7.019  0.1442  0.1016 -0.0366
  738POPS   C2B11346  13.669  18.059   7.437  0.1801  0.1492  0.2557
  738POPS   C3B11347  13.953  17.884   7.830  0.3140 -0.0061  0.2497
  738POPS   C4B11348  14.178  17.707   8.085  0.0109 -0.0423 -0.0550
  739POPS   CNO11349   3.702  15.484   5.665 -0.2366 -0.1003 -0.1166
  739POPS   PO411350   3.685  15.393   6.174 -0.1040  0.0200  0.1102
  739POPS   GL111351   3.324  15.378   6.315 -0.1601  0.1700 -0.1272
  739POPS   GL211352   3.331  15.193   6.617 -0.1038  0.1874 -0.2550
  739POPS   C1A11353   2.918  15.497   6.701 -0.1024  0.1784  0.3001
  739POPS   D2A11354   2.685  15.339   6.999 -0.2074  0.1163 -0.2100
  739POPS   C3A11355   2.541  15.467   7.392  0.1270 -0.2113  0.4267
  739POPS   C4A11356   2.160  15.514   7.561 -0.1844  0.0948  0.0360
  739POPS   C1B11357   3.191  15.214   7.096  0.0078 -0.1315 -0.0239
  739POPS   C2B11358   2.892  15.082   7.363  0.0223 -0.0682 -0.4223
  739POPS   C3B11359   2.599  14.750   7.668 -0.0294  0.0113 -0.2289
  739POPS   C4B11360   2.346  14.593   7.919 -0.0672 -0.0722  0.2836
  740POPS   CNO11361   0.350  13.629   6.383  0.1706  0.0013  0.3929
  740POPS   PO411362  -0.055  13.880   6.249 -0.2171  0.1418 -0.0484
  740POPS   GL111363  -0.015  13.916   6.663 -0.0617  0.2052  0.0182
  740POPS   GL211364  -0.016  13.717   6.880 -0.3339  0.0368 -0.1040
  740POPS   C1A11365   0.067  14.172   7.043  0.0704 -0.1381 -0.1754
  740POPS   D2A11366   0.329  14.129   7.409  0.0513  0.0023  0.0891
  740POPS   C3A11367   0.193  14.156   7.829 -0.1563  0.1699 -0.0539
  740POPS   C4A11368   0.022  14.027   8.207 -0.1325  0.2533  0.0101
  740POPS   C1B11369   0.170  13.572   7.207  0.3483  0.1964 -0.1390
  740POPS   C2B11370   0.102  13.725   7.621 -0.3990 -0.2501  0.2742
  740POPS   C3B11371  -0.054  13.627   7.934 -0.1530 -0.3358  0.1303
  740POPS   C4B11372  -0.126  13.522   8.307 -0.3167  0.0244 -0.2274
  741POPS   CNO11373  10.176  11.515   5.181  0.0913  0.0067 -0.4385
  741POPS   PO411374   9.945  11.417   5.624 -0.2247  0.3696 -0.0308
  741POPS   GL111375   9.769  11.145   6.025  0.2052 -0.0999  0.1509
  741POPS   GL211376   9.376  11.148   6.117 -0.0454 -0.0143 -0.0798
  741POPS   C1A11377   9.774  11.024   6.446  0.3012 -0.0072  0.0593
  741POPS   D2A11378   9.700  10.818   6.859  0.2265  0.2540  0.2771
  741POPS   C3A11379   9.840  11.018   7.198  0.0344  0.2082 -0.0512
  741POPS   C4A11380  10.084  11.090   7.598  0.1354 -0.0124  0.0136
  741POPS   C1B11381   9.049  11.184   6.417  0.4161  0.0749 -0.2517
  741POPS   C2B11382   8.748  11.250   6.752  0.1051  0.1184 -0.1826
  741POPS   C3B11383   8.402  11.107   7.149  0.0759  0.1174  0.1602
  741POPS   C4B11384   8.631  11.345   7.516  0.2253  0.0978  0.1888
  742POPS   CNO11385   5.258  17.202   6.197 -0.0551  0.2234  0.0510
  742POPS   PO411386   5.071  17.499   6.009  0.1643 -0.0280 -0.2398
  742POPS   GL111387   5.222  17.654   6.348 -0.0982  0.2633 -0.2868
  742POPS   GL211388   5.565  17.553   6.349  0.0363 -0.0275  0.1076
  742POPS   C1A11389   5.488  17.909   6.657 -0.4319  0.1888 -0.0477
  742POPS   D2A11390   5.367  18.183   6.881 -0.0637 -0.0134  0.0209
  742POPS   C3A11391   5.321  18.084   7.261 -0.0257 -0.2325 -0.4054
  742POPS   C4A11392   5.369  18.460   7.579 -0.0849 -0.3196  0.3560
  742POPS   C1B11393   5.544  17.431   6.818 -0.1048  0.0209  0.0051
  742POPS   C2B11394   5.531  17.208   7.191  0.3889  0.0734 -0.0660
  742POPS   C3B11395   5.591  17.005   7.494 -0.5941  0.1165 -0.1864
  742POPS   C4B11396   5.690  17.094   7.950  0.1458  0.1630  0.0625
  743POPS   CNO11397   7.187   8.337   6.228  0.0326  0.1773  0.0046
  743POPS   PO411398   7.098   8.690   5.975  0.0311 -0.2922 -0.0061
  743POPS   GL111399   6.928   8.861   6.369  0.0073 -0.1340 -0.1680
  743POPS   GL211400   7.212   9.085   6.630  0.0193 -0.1209 -0.2071
  743POPS   C1A11401   6.952   8.700   6.808 -0.0101  0.1098  0.1501
  743POPS   D2A11402   7.239   8.580   7.138 -0.1262  0.0524  0.4117
  743POPS   C3A11403   7.333   8.776   7.525  0.1296 -0.1976  0.1749
  743POPS   C4A11404   7.440   8.984   7.864 -0.3977 -0.2147 -0.3185
  743POPS   C1B11405   7.126   9.089   7.036  0.0380  0.0845  0.2152
  743POPS   C2B11406   7.205   9.228   7.388  0.1840 -0.0108 -0.3254
  743POPS   C3B11407   7.232   9.392   7.810  0.1954 -0.0296 -0.0013
  743POPS   C4B11408   7.183   9.619   8.209 -0.3931 -0.4820  0.1316
  744POPS   CNO11409   1.811  17.522   5.540  0.0395  0.4169  0.1638
  744POPS   PO411410   1.922  17.439   5.993 -0.0510 -0.1204 -0.0795
  744POPS   GL111411   2.018  17.314   6.367  0.3083  0.0151 -0.2634
  744POPS   GL211412   1.872  17.566   6.592  0.0965 -0.0320  0.0319
  744POPS   C1A11413   2.215  17.278   6.730  0.1496  0.0934 -0.1114
  744POPS   D2A11414   2.455  17.028   6.983 -0.2749 -0.2850 -0.2329
  744POPS   C3A11415   2.244  16.685   7.094 -0.1223 -0.1710  0.2646
  744POPS   C4A11416   2.190  16.544   7.425  0.2327 -0.1660 -0.0516
  744POPS   C1B11417   1.866  17.583   7.033  0.2637 -0.2489  0.1846
  744POPS   C2B11418   2.064  17.376   7.323  0.0902 -0.1068  0.0793
  744POPS   C3B11419   2.180  17.034   7.589 -0.2142  0.1174 -0.1511
  744POPS   C4B11420   2.431  16.810   7.859 -0.0934 -0.0309  0.0006
  745POPS   CNO11421  15.692   0.196   5.932 -0.0596 -0.2298  0.6033
  745POPS   PO411422  15.842   0.062   6.285 -0.3912 -0.1808 -0.0901
  745POPS   GL111423  15.751   0.146   6.748  0.0061 -0.0004  0.0692
  745POPS   GL211424  15.945   0.364   6.889  0.1988  0.1051 -0.1614
  745POPS   C1A11425  15.585   0.036   7.161 -0.0550  0.1131 -0.0549
  745POPS   D2A11426  15.452  -0.156   7.545 -0.0806  0.1353 -0.1080
  745POPS   C3A11427  15.545  -0.495   7.843 -0.0041  0.3967  0.4566
  745POPS   C4A11428  15.534  -0.672   8.296  0.3001 -0.0308  0.1987
  745POPS   C1B11429  15.946   0.370   7.362  0.0969  0.2786  0.0688
  745POPS   C2B11430  15.808   0.202   7.726 -0.2896  0.3924  0.0589
  745POPS   C3B11431  15.764  -0.136   8.138  0.2081 -0.1938 -0.2695
  745POPS   C4B11432  15.684  -0.289   8.534  0.0829 -0.2555  0.0582
  746POPS   CNO11433  12.097  17.682   6.014 -0.0632 -0.2407 -0.1312
  746POPS   PO411434  11.832  18.090   6.029  0.0962 -0.1784  0.1380
  746POPS   GL111435  11.779  17.892   6.465 -0.1061 -0.0001 -0.0480
  746POPS   GL211436  11.549  18.038   6.577  0.0430 -0.0414 -0.2653
  746POPS   C1A11437  11.720  17.520   6.836 -0.0092  0.1243 -0.1898
  746POPS   D2A11438  11.848  17.607   7.133  0.0381 -0.1408 -0.0138
  746POPS   C3A11439  11.643  17.636   7.368 -0.0868  0.2745  0.1280
  746POPS   C4A11440  11.703  17.877   7.827 -0.1534  0.2607 -0.1975
  746POPS   C1B11441  11.406  17.906   6.966  0.1684  0.3853  0.0763
  746POPS   C2B11442  11.402  18.033   7.456 -0.1910 -0.2148  0.0833
  746POPS   C3B11443  11.274  18.103   7.927  0.0665  0.2775  0.2239
  746POPS   C4B11444  11.463  17.996   8.336  0.1310  0.0321  0.3541
  747POPS   CNO11445   6.309  14.838   5.526 -0.0687  0.1339  0.2219
  747POPS   PO411446   6.676  14.749   5.828  0.1239 -0.0073 -0.2446
  747POPS   GL111447   6.775  14.855   6.311 -0.0571 -0.2136  0.1906
  747POPS   GL211448   6.544  14.738   6.528  0.1536 -0.1486 -0.1857
  747POPS   C1A11449   7.044  14.741   6.703 -0.1360  0.1041 -0.1700
  747POPS   D2A11450   7.046  15.080   7.025  0.0121  0.0020 -0.0436
  747POPS   C3A11451   7.270  15.103   7.328 -0.1964  0.2531 -0.0371
  747POPS   C4A11452   7.514  15.187   7.754  0.2848 -0.0881  0.2147
  747POPS   C1B11453   6.593  15.014   6.836  0.1770  0.0783  0.0288
  747POPS   C2B11454   6.639  15.350   7.116  0.1389 -0.0234 -0.2439
  747POPS   C3B11455   6.738  15.461   7.431  0.1079 -0.1548  0.1162
  747POPS   C4B11456   7.044  15.458   7.566 -0.0332  0.2820 -0.2301
  748POPS   CNO11457  17.326  13.667   6.167 -0.0929 -0.0434 -0.2412
  748POPS   PO411458  17.192  13.439   6.452  0.1521 -0.1045  0.0991
  748POPS   GL111459  17.336  13.362   6.872 -0.1496  0.2956 -0.1079
  748POPS   GL211460  17.338  13.619   7.022 -0.0236  0.1743 -0.0506
  748POPS   C1A11461  17.672  13.270   7.014  0.3246 -0.0429  0.1394
  748POPS   D2A11462  17.606  13.132   7.429 -0.1935  0.1091 -0.0978
  748POPS   C3A11463  17.522  13.401   7.580  0.1541  0.0479  0.1805
  748POPS   C4A11464  17.355  13.399   8.038 -0.0033  0.3084  0.2971
  748POPS   C1B11465  17.521  13.821   7.282 -0.1584 -0.1548 -0.0026
  748POPS   C2B11466  17.552  14.030   7.640 -0.0020 -0.0959  0.0690
  748POPS   C3B11467  17.573  14.306   7.874  0.0247 -0.0785 -0.3218
  748POPS   C4B11468  17.626  14.436   8.157  0.1185  0.2607 -0.0560
  749POPS   CNO11469   2.491   1.963   5.746  0.0769 -0.1604 -0.0462
  749POPS   PO411470   2.484   2.147   6.188 -0.0014  0.1312  0.1029
  749POPS   GL111471   2.442   2.004   6.529 -0.2084 -0.0066  0.1875
  749POPS   GL211472   2.478   1.811   6.614 -0.1433  0.1141  0.1950
  749POPS   C1A11473   2.565   2.175   6.911  0.1565 -0.0533  0.0156
  749POPS   D2A11474   2.809   2.186   7.239  0.1811  0.1545 -0.0113
  749POPS   C3A11475   3.154   2.448   7.292 -0.2526  0.0052  0.1647
  749POPS   C4A11476   3.554   2.689   7.233 -0.1992  0.1985  0.0682
  749POPS   C1B11477   2.720   1.705   7.076 -0.0580 -0.2721  0.1222
  749POPS   C2B11478   2.985   1.716   7.424 -0.1764  0.3734 -0.0636
  749POPS   C3B11479   3.126   1.652   7.830 -0.2349 -0.0037 -0.0593
  749POPS   C4B11480   3.205   1.489   8.206  0.0491 -0.2404  0.0959
  750POPS   CNO11481  12.398  12.780   6.100 -0.4983 -0.1934 -0.0859
  750POPS   PO411482  12.537  12.459   5.886 -0.1950 -0.3806  0.0156
  750POPS   GL111483  12.649  12.397   6.353 -0.2387  0.1442 -0.0192
  750POPS   GL211484  12.989  12.389   6.490 -0.0359 -0.2802 -0.1492
  750POPS   C1A11485  12.549  12.337   6.741 -0.1404 -0.0629 -0.1925
  750POPS   D2A11486  12.673  12.074   7.122  0.0416 -0.0890 -0.0518
  750POPS   C3A11487  12.433  12.220   7.506  0.2183 -0.0035  0.2341
  750POPS   C4A11488  12.410  12.234   7.945 -0.2644 -0.5198  0.2033
  750POPS   C1B11489  12.978  12.478   6.896  0.1164 -0.2276  0.1629
  750POPS   C2B11490  12.979  12.406   7.345 -0.4998  0.2225 -0.0952
  750POPS   C3B11491  12.808  12.534   7.752  0.2161  0.0718  0.0325
  750POPS   C4B11492  12.797  12.593   8.271  0.0516 -0.1236  0.2535
  751POPS   CNO11493  11.157   1.382   5.822  0.0578 -0.1683 -0.0765
  751POPS   PO411494  11.290   1.500   6.126  0.0815  0.1234 -0.0322
  751POPS   GL111495  11.070   1.500   6.548 -0.2028  0.0895 -0.1402
  751POPS   GL211496  10.932   1.182   6.653  0.1777  0.0898 -0.3766
  751POPS   C1A11497  11.061   1.515   7.007 -0.0188 -0.1786 -0.0861
  751POPS   D2A11498  11.065   1.789   7.399 -0.0843  0.0608  0.0772
  751POPS   C3A11499  11.286   1.602   7.798  0.1199 -0.0320 -0.0285
  751POPS   C4A11500  11.343   1.621   8.244 -0.1769 -0.0740  0.0877
  751POPS   C1B11501  10.537   1.391   6.917 -0.0023 -0.0621 -0.0627
  751POPS   C2B11502  10.188   1.621   6.781 -0.0094 -0.3594  0.0178
  751POPS   C3B11503   9.714   1.573   6.793 -0.0616  0.0299  0.0422
  751POPS   C4B11504   9.249   1.723   6.683  0.1197  0.1074 -0.1324
  752POPS   CNO11505   5.112   1.926   5.701  0.0468 -0.0331 -0.0767
  752POPS   PO411506   4.854   2.107   5.969  0.0953  0.0620  0.0762
  752POPS   GL111507   4.758   1.978   6.346 -0.1317 -0.3743  0.1163
  752POPS   GL211508   4.451   2.019   6.362 -0.6159 -0.2289  0.0326
  752POPS   C1A11509   4.829   2.155   6.783 -0.0568 -0.0051 -0.2733
  752POPS   D2A11510   4.937   2.306   7.181  0.1707  0.2848 -0.0267
  752POPS   C3A11511   4.748   2.114   7.551 -0.1698 -0.3485  0.0128
  752POPS   C4A11512   4.584   1.963   7.915  0.1596 -0.3287  0.0367
  752POPS   C1B11513   4.356   2.049   6.856 -0.0336 -0.0685 -0.1234
  752POPS   C2B11514   4.313   2.154   7.356 -0.0551 -0.1707 -0.1093
  752POPS   C3B11515   4.178   1.998   7.647  0.0691 -0.2316 -0.0699
  752POPS   C4B11516   3.888   2.113   7.925 -0.0844 -0.0978 -0.0528
  753POPS   CNO11517   1.999   8.961   6.055  0.1928 -0.1407  0.0385
  753POPS   PO411518   1.538   9.082   5.858 -0.4661 -0.0302  0.1410
  753POPS   GL111519   1.282   9.116   6.280 -0.2019  0.3639  0.2162
  753POPS   GL211520   1.132   9.481   6.321  0.0094 -0.1766  0.0413
  753POPS   C1A11521   1.138   8.882   6.623  0.0092 -0.2321  0.1797
  753POPS   D2A11522   1.310   8.818   7.020 -0.2759  0.0795  0.2535
  753POPS   C3A11523   1.240   8.909   7.387 -0.0441  0.1956 -0.2968
  753POPS   C4A11524   1.107   8.991   7.666 -0.1399 -0.2781 -0.0395
  753POPS   C1B11525   1.256   9.335   6.708  0.0570 -0.0815 -0.3529
  753POPS   C2B11526   1.366   9.341   7.080  0.1319 -0.0528 -0.0424
  753POPS   C3B11527   1.533   9.597   7.375 -0.2168 -0.1317  0.0318
  753POPS   C4B11528   1.691   9.719   7.778  0.0023  0.0884 -0.0404
  754POPS   CNO11529  11.446   8.376   6.253  0.0322 -0.1527 -0.0690
  754POPS   PO411530  11.685   8.748   6.359 -0.4141 -0.1045  0.0559
  754POPS   GL111531  11.800   8.997   6.749  0.0502 -0.1438  0.1402
  754POPS   GL211532  11.648   9.346   6.714  0.1152 -0.0033  0.0499
  754POPS   C1A11533  11.770   8.990   7.205  0.1315 -0.0268  0.0267
  754POPS   D2A11534  11.745   9.246   7.538 -0.0080  0.5001  0.2561
  754POPS   C3A11535  11.835   9.127   7.944 -0.4124  0.3357 -0.0526
  754POPS   C4A11536  12.100   8.891   8.134 -0.3335  0.0099  0.2199
  754POPS   C1B11537  11.475   9.321   7.037  0.2085  0.0091  0.0705
  754POPS   C2B11538  11.332   9.613   7.436  0.2089  0.0350  0.0168
  754POPS   C3B11539  11.083   9.697   7.803 -0.1743 -0.1285  0.0001
  754POPS   C4B11540  10.710   9.806   8.100 -0.0265  0.1666  0.1132
  755POPS   CNO11541  16.880  12.592   5.997  0.4412 -0.0385 -0.0909
  755POPS   PO411542  17.039  12.622   6.419 -0.2449 -0.1210  0.1521
  755POPS   GL111543  17.052  12.604   6.894 -0.2939  0.2382 -0.2100
  755POPS   GL211544  17.277  12.878   7.054  0.4032  0.2186  0.0008
  755POPS   C1A11545  16.809  12.630   7.373 -0.1074  0.0162 -0.1874
  755POPS   D2A11546  16.856  12.605   7.814  0.0351 -0.1162  0.1569
  755POPS   C3A11547  17.213  12.526   8.075 -0.1841  0.2680  0.4078
  755POPS   C4A11548  17.417  12.164   8.312  0.1333  0.1362 -0.1739
  755POPS   C1B11549  17.144  13.172   7.275  0.3049 -0.2659 -0.1761
  755POPS   C2B11550  16.975  13.350   7.660 -0.1859  0.0957 -0.1812
  755POPS   C3B11551  16.903  13.507   8.074  0.0888 -0.0873  0.0122
  755POPS   C4B11552  16.995  13.680   8.443  0.0974 -0.1552 -0.1667
  756POPS   CNO11553  15.974   2.294   6.489 -0.0215 -0.0803  0.0652
  756POPS   PO411554  16.288   2.636   6.585  0.1837 -0.2321 -0.1402
  756POPS   GL111555  16.312   2.353   6.988 -0.2080 -0.2148  0.1781
  756POPS   GL211556  16.080   2.275   6.989  0.1634 -0.1240 -0.1626
  756POPS   C1A11557  16.379   2.329   7.467 -0.3798  0.0167  0.1001
  756POPS   D2A11558  16.618   2.425   7.775  0.1526  0.2332  0.1622
  756POPS   C3A11559  16.566   2.569   8.248 -0.2614 -0.0606 -0.0210
  756POPS   C4A11560  16.617   2.411   8.683  0.0403  0.0727 -0.0656
  756POPS   C1B11561  15.828   2.111   7.282 -0.0473  0.1730  0.1110
  756POPS   C2B11562  15.922   1.929   7.688 -0.0076  0.0309  0.1833
  756POPS   C3B11563  15.784   2.082   8.118  0.1263 -0.0334 -0.2831
  756POPS   C4B11564  15.773   1.891   8.548 -0.0097 -0.0558 -0.1430
  757POPS   CNO11565   5.035  14.526   5.480 -0.0914 -0.2635 -0.3748
  757POPS   PO411566   4.910  14.594   5.989  0.0240  0.0753  0.1861
  757POPS   GL111567   4.974  14.428   6.330  0.0108 -0.2338  0.0505
  757POPS   GL211568   5.320  14.577   6.447 -0.3991  0.2001  0.1995
  757POPS   C1A11569   5.017  14.369   6.843 -0.0584 -0.0689 -0.1376
  757POPS   D2A11570   5.102  14.641   7.144  0.0341 -0.3696  0.0669
  757POPS   C3A11571   5.040  14.539   7.504  0.0361  0.1370  0.0551
  757POPS   C4A11572   4.690  14.657   7.822  0.3055  0.0468  0.0527
  757POPS   C1B11573   5.054  14.855   6.685  0.2115 -0.0891 -0.0760
  757POPS   C2B11574   4.780  15.000   7.043  0.0443  0.1274  0.0591
  757POPS   C3B11575   4.766  15.009   7.482 -0.2016  0.1742 -0.0066
  757POPS   C4B11576   5.106  14.925   7.784 -0.2085  0.3124  0.5722
  758POPS   CNO11577  12.752   0.412   6.420  0.0654  0.0330  0.4033
  758POPS   PO411578  12.657   0.764   6.152  0.4889  0.1279  0.0879
  758POPS   GL111579  12.304   0.636   6.528  0.0094  0.2308 -0.1049
  758POPS   GL211580  12.151   0.382   6.504  0.0269  0.0664 -0.1813
  758POPS   C1A11581  12.162   0.620   6.995 -0.0130 -0.1498 -0.1207
  758POPS   D2A11582  12.244   0.467   7.311 -0.1720  0.0619 -0.0322
  758POPS   C3A11583  12.324   0.734   7.571  0.0693 -0.1669  0.0966
  758POPS   C4A11584  12.212   0.549   8.041  0.2614 -0.1546  0.0031
  758POPS   C1B11585  12.421  -0.087   6.478  0.0686 -0.2781 -0.0213
  758POPS   C2B11586  12.230  -0.313   6.806 -0.2432 -0.0907  0.1089
  758POPS   C3B11587  12.083  -0.741   6.853  0.0593  0.0975  0.1772
  758POPS   C4B11588  11.776  -0.835   6.609  0.2829  0.1331 -0.1163
  759POPS   CNO11589   7.358   4.043   6.205  0.0849  0.1211 -0.2271
  759POPS   PO411590   7.776   3.713   6.260  0.1259  0.1178 -0.2857
  759POPS   GL111591   7.468   3.502   6.437  0.0596 -0.0758 -0.1966
  759POPS   GL211592   7.720   3.272   6.501  0.0109  0.1182  0.1120
  759POPS   C1A11593   7.274   3.495   6.860  0.0211 -0.0694 -0.2194
  759POPS   D2A11594   7.054   3.392   7.230 -0.0242 -0.0677 -0.0901
  759POPS   C3A11595   7.256   3.582   7.661 -0.0058 -0.1067 -0.0339
  759POPS   C4A11596   7.667   3.602   7.882 -0.1278  0.0109 -0.4171
  759POPS   C1B11597   7.569   3.164   6.876 -0.2052  0.1293  0.0335
  759POPS   C2B11598   7.484   3.055   7.322 -0.1017 -0.3580  0.0482
  759POPS   C3B11599   7.530   3.052   7.753  0.1182 -0.0070  0.1082
  759POPS   C4B11600   7.730   2.955   8.140 -0.2537  0.0049 -0.1133
  760POPS   CNO11601   1.686   2.555   6.162  0.2545 -0.0308 -0.0767
  760POPS   PO411602   1.945   2.219   6.225 -0.0252  0.0495 -0.4598
  760POPS   GL111603   1.974   2.331   6.592 -0.1649 -0.0917  0.1379
  760POPS   GL211604   2.282   2.488   6.654 -0.0440 -0.1437  0.1246
  760POPS   C1A11605   1.748   2.339   6.970  0.2952  0.0478  0.2877
  760POPS   D2A11606   1.637   1.982   7.257  0.2371  0.1045 -0.0645
  760POPS   C3A11607   1.699   1.954   7.683 -0.1437 -0.0285  0.0948
  760POPS   C4A11608   1.877   2.152   8.036 -0.0836 -0.1781 -0.0543
  760POPS   C1B11609   2.163   2.558   7.086  0.0614  0.0276  0.0647
  760POPS   C2B11610   1.886   2.496   7.475 -0.2824  0.1381 -0.1360
  760POPS   C3B11611   1.596   2.385   7.678 -0.1155 -0.1965 -0.0303
  760POPS   C4B11612   1.370   2.174   8.021  0.1311 -0.1351  0.2937
  761POPS   CNO11613  15.358   5.641   6.135  0.1452 -0.2146  0.3532
  761POPS   PO411614  15.655   5.990   5.985 -0.2063  0.0171 -0.3366
  761POPS   GL111615  15.712   5.869   6.491  0.1983 -0.1940 -0.1335
  761POPS   GL211616  15.447   5.821   6.639  0.0105 -0.0177 -0.0053
  761POPS   C1A11617  15.967   6.011   6.802  0.2826  0.2895 -0.4414
  761POPS   D2A11618  16.157   6.171   7.162 -0.1782 -0.0422  0.0734
  761POPS   C3A11619  16.255   6.362   7.554 -0.0760 -0.1280 -0.1110
  761POPS   C4A11620  16.120   6.179   7.981  0.1361  0.3315  0.0953
  761POPS   C1B11621  15.491   6.155   6.958  0.1449  0.0519 -0.0295
  761POPS   C2B11622  15.652   6.266   7.323  0.2915  0.0590  0.0698
  761POPS   C3B11623  15.690   6.482   7.605 -0.1710 -0.0900  0.1017
  761POPS   C4B11624  15.882   6.628   7.866 -0.1852  0.0812 -0.4244
  762POPS   CNO11625   4.553  14.542   5.599  0.3343 -0.0482  0.5858
  762POPS   PO411626   4.299  14.745   5.828 -0.0419  0.0389  0.0698
  762POPS   GL111627   4.211  14.712   6.238 -0.5049 -0.0702 -0.1506
  762POPS   GL211628   4.512  14.770   6.355  0.0123  0.2019 -0.0881
  762POPS   C1A11629   3.939  14.902   6.491  0.1903  0.3202 -0.0211
  762POPS   D2A11630   3.675  14.862   6.868 -0.0322 -0.0801  0.2686
  762POPS   C3A11631   3.391  14.638   6.719  0.2059 -0.3001 -0.3390
  762POPS   C4A11632   3.126  14.323   6.709 -0.0106  0.0877 -0.0231
  762POPS   C1B11633   4.614  14.596   6.798 -0.0651 -0.0593 -0.3739
  762POPS   C2B11634   4.578  14.582   7.259 -0.2267  0.1964  0.1027
  762POPS   C3B11635   4.281  14.552   7.480  0.0739 -0.0657  0.0896
  762POPS   C4B11636   3.951  14.611   7.891 -0.0905  0.4275  0.1068
  763POPS   CNO11637   8.787   7.627   6.043  0.0889 -0.0265  0.0484
  763POPS   PO411638   8.796   8.066   6.210  0.1693  0.1389 -0.1336
  763POPS   GL111639   9.058   8.091   6.402 -0.1248  0.4219  0.0260
  763POPS   GL211640   9.048   8.420   6.498 -0.0779  0.3089 -0.3787
  763POPS   C1A11641   9.058   7.926   6.785  0.2986 -0.2802  0.1089
  763POPS   D2A11642   8.985   7.944   7.239  0.0891  0.1118  0.0938
  763POPS   C3A11643   9.115   7.546   7.287 -0.0421  0.0057  0.3607
  763POPS   C4A11644   9.233   7.243   7.616 -0.0534 -0.1733 -0.0426
  763POPS   C1B11645   9.028   8.401   6.925 -0.1943 -0.0547  0.1422
  763POPS   C2B11646   8.629   8.269   7.138 -0.0402 -0.0102 -0.0693
  763POPS   C3B11647   8.206   8.179   7.104 -0.0502  0.0830 -0.1095
  763POPS   C4B11648   7.969   8.263   6.737  0.0859  0.0134 -0.0583
  764POPS   CNO11649  13.672   8.348   5.950  0.1840 -0.0068  0.3538
  764POPS   PO411650  13.937   8.627   6.051  0.1687  0.0549  0.0384
  764POPS   GL111651  13.805   8.527   6.459 -0.2548 -0.3484  0.1295
  764POPS   GL211652  13.719   8.188   6.391 -0.0157  0.2540 -0.1836
  764POPS   C1A11653  13.736   8.493   6.810 -0.3218 -0.1688 -0.0744
  764POPS   D2A11654  13.702   8.254   7.155 -0.4627  0.1667  0.1310
  764POPS   C3A11655  13.358   8.222   7.449  0.0326  0.1764 -0.3590
  764POPS   C4A11656  13.369   8.168   7.926  0.0306 -0.0508 -0.1573
  764POPS   C1B11657  13.356   8.174   6.679 -0.0641 -0.2001 -0.2297
  764POPS   C2B11658  13.195   8.116   7.028 -0.0571  0.0217 -0.0296
  764POPS   C3B11659  12.834   8.097   7.277  0.0714 -0.1071  0.2068
  764POPS   C4B11660  12.426   8.220   7.344  0.0768  0.0176 -0.1601
  765POPS   CNO11661  15.983  14.884   6.080 -0.0505 -0.0122 -0.2363
  765POPS   PO411662  16.266  15.106   6.338 -0.0457 -0.1026 -0.1505
  765POPS   GL111663  16.390  15.177   6.734 -0.1632 -0.3326  0.3553
  765POPS   GL211664  16.742  15.087   6.806  0.0404 -0.0855  0.0627
  765POPS   C1A11665  16.515  15.392   7.128 -0.3066  0.2683 -0.0844
  765POPS   D2A11666  16.597  15.469   7.464 -0.3141  0.1519 -0.2281
  765POPS   C3A11667  16.664  15.682   7.789 -0.2998 -0.0292  0.0611
  765POPS   C4A11668  16.550  15.715   8.234 -0.3120 -0.0418 -0.2059
  765POPS   C1B11669  16.755  14.691   6.889  0.3663 -0.0637 -0.1494
  765POPS   C2B11670  16.798  14.465   7.243  0.0101  0.0156 -0.3389
  765POPS   C3B11671  16.678  14.403   7.662 -0.1523 -0.1135  0.1092
  765POPS   C4B11672  16.410  14.222   7.850  0.0093  0.3092  0.0338
  766POPS   CNO11673  13.811  13.358   5.790  0.0777  0.0163 -0.2126
  766POPS   PO411674  13.559  13.165   6.150 -0.0730  0.3114  0.2693
  766POPS   GL111675  13.529  13.142   6.512 -0.0403  0.2161 -0.0303
  766POPS   GL211676  13.204  13.082   6.693  0.2296 -0.1260 -0.1074
  766POPS   C1A11677  13.559  13.459   6.787 -0.1218  0.1332 -0.0462
  766POPS   D2A11678  13.569  13.909   6.874  0.2143 -0.1702 -0.1085
  766POPS   C3A11679  13.593  13.993   7.364  0.0304  0.0641 -0.0021
  766POPS   C4A11680  13.401  13.840   7.741  0.1139  0.2176 -0.0914
  766POPS   C1B11681  13.389  13.061   7.076  0.0638  0.0190  0.0802
  766POPS   C2B11682  13.227  12.836   7.492  0.0991  0.0667  0.3487
  766POPS   C3B11683  13.245  12.717   7.914 -0.0965  0.0778  0.1060
  766POPS   C4B11684  13.268  12.377   8.182  0.3447  0.2143 -0.2714
  767POPS   CNO11685   4.053  17.739   5.986 -0.2639  0.0430  0.1141
  767POPS   PO411686   4.389  18.082   5.926  0.1066 -0.5119  0.2226
  767POPS   GL111687   4.520  18.021   6.280 -0.1961 -0.0559 -0.0922
  767POPS   GL211688   4.318  17.822   6.424  0.1748  0.2596  0.0401
  767POPS   C1A11689   4.502  18.269   6.711  0.0232  0.0398  0.0624
  767POPS   D2A11690   4.433  18.186   7.129 -0.0880  0.0671  0.1614
  767POPS   C3A11691   4.270  18.043   7.437  0.0802  0.0264 -0.1065
  767POPS   C4A11692   4.082  17.938   7.775 -0.0485 -0.1519 -0.0484
  767POPS   C1B11693   4.487  17.688   6.879  0.1964  0.0898 -0.1840
  767POPS   C2B11694   4.465  17.589   7.299 -0.1055 -0.0556  0.0517
  767POPS   C3B11695   4.594  17.688   7.733 -0.3032  0.1600  0.0899
  767POPS   C4B11696   4.580  17.848   8.036 -0.0576  0.0652  0.0369
  768POPS   CNO11697  15.710   2.005   6.796  0.0966 -0.0132  0.1592
  768POPS   PO411698  15.750   1.597   6.829  0.2303  0.0908 -0.1642
  768POPS   GL111699  15.830   1.425   7.196 -0.0490 -0.1811 -0.0995
  768POPS   GL211700  16.087   1.269   7.196  0.0295  0.0133  0.2700
  768POPS   C1A11701  15.818   1.481   7.620 -0.1018 -0.0921  0.0571
  768POPS   D2A11702  15.805   1.297   8.044 -0.3045  0.0105 -0.0851
  768POPS   C3A11703  15.676   1.525   8.265 -0.2524  0.0879  0.2128
  768POPS   C4A11704  15.266   1.405   8.404  0.0675  0.0890 -0.0384
  768POPS   C1B11705  16.225   1.185   7.671 -0.0663  0.2773  0.0875
  768POPS   C2B11706  16.365   1.276   8.071  0.0145 -0.1246  0.2450
  768POPS   C3B11707  16.519   1.076   8.450 -0.2487  0.2506 -0.2829
  768POPS   C4B11708  16.882   0.779   8.635 -0.0566 -0.0269  0.3673
  769POPS   CNO11709  10.358  15.101   6.075  0.1707 -0.1589 -0.5178
  769POPS   PO411710  10.576  15.581   6.123  0.0043  0.1548  0.2142
  769POPS   GL111711  10.422  15.475   6.555 -0.1680 -0.1992 -0.0052
  769POPS   GL211712  10.201  15.190   6.569  0.1157 -0.2424  0.0938
  769POPS   C1A11713  10.411  15.469   6.973  0.1318 -0.0447  0.1180
  769POPS   D2A11714  10.384  15.278   7.368 -0.1989 -0.0590  0.0449
  769POPS   C3A11715  10.333  15.686   7.695  0.2327  0.1818  0.0949
  769POPS   C4A11716  10.350  15.829   8.130  0.1390  0.1686 -0.0833
  769POPS   C1B11717  10.030  15.058   7.040  0.2157  0.0330  0.0572
  769POPS   C2B11718   9.811  15.051   7.384 -0.1603 -0.2577  0.0691
  769POPS   C3B11719   9.769  14.759   7.774  0.3879  0.0546  0.0447
  769POPS   C4B11720   9.330  14.570   7.815 -0.0351 -0.0498 -0.1499
  770POPS   CNO11721   9.904   0.203   5.602 -0.0878 -0.0691 -0.0247
  770POPS   PO411722   9.802   0.393   5.950  0.1960  0.0297 -0.4526
  770POPS   GL111723  10.121   0.531   6.220 -0.2898  0.2254 -0.0347
  770POPS   GL211724   9.656   0.539   6.403 -0.2354  0.1567 -0.0731
  770POPS   C1A11725  10.049   0.598   6.711  0.4275 -0.0138  0.1871
  770POPS   D2A11726   9.944   0.673   7.146 -0.1039  0.0219 -0.2845
  770POPS   C3A11727   9.986   0.465   7.551 -0.3067 -0.3709  0.1116
  770POPS   C4A11728   9.635   0.288   7.806  0.1563  0.1245  0.2142
  770POPS   C1B11729   9.612   0.357   6.755 -0.2923 -0.1506 -0.1496
  770POPS   C2B11730   9.582   0.343   7.309 -0.0147  0.1051 -0.0771
  770POPS   C3B11731   9.598   0.736   7.651  0.0550 -0.1655  0.1599
  770POPS   C4B11732   9.970   0.992   7.835  0.1349 -0.1476 -0.0158
  771POPS   CNO11733  12.213   2.507   6.174 -0.0792 -0.1018 -0.0730
  771POPS   PO411734  12.629   2.563   6.143 -0.0604  0.0583  0.2316
  771POPS   GL111735  12.579   2.708   6.596  0.3179 -0.0520 -0.2201
  771POPS   GL211736  12.249   2.693   6.745 -0.0042 -0.2470  0.5042
  771POPS   C1A11737  12.633   2.612   7.094  0.2437 -0.0599 -0.1135
  771POPS   D2A11738  12.541   2.425   7.391 -0.1791  0.0470  0.1240
  771POPS   C3A11739  12.343   2.587   7.746 -0.1591 -0.3040 -0.1369
  771POPS   C4A11740  12.004   2.454   8.099 -0.2939  0.1370  0.1474
  771POPS   C1B11741  12.095   2.699   7.243 -0.2692  0.2585 -0.1176
  771POPS   C2B11742  12.051   2.929   7.589 -0.1343  0.2051 -0.2134
  771POPS   C3B11743  11.936   2.997   8.002 -0.0354  0.1071 -0.1747
  771POPS   C4B11744  11.828   3.261   8.357  0.0337  0.0094  0.1676
  772POPS   CNO11745  12.832   1.546   6.472 -0.0266  0.2051 -0.0252
  772POPS   PO411746  12.539   1.745   6.343 -0.1621 -0.0987 -0.3736
  772POPS   GL111747  12.327   1.639   6.733  0.2290  0.2640 -0.2119
  772POPS   GL211748  12.023   1.726   6.719 -0.0848  0.2144  0.1421
  772POPS   C1A11749  12.393   1.551   7.111 -0.1763  0.2072 -0.1315
  772POPS   D2A11750  12.345   1.609   7.496 -0.1347  0.1777 -0.1334
  772POPS   C3A11751  12.053   1.562   7.849 -0.2640  0.0069  0.0987
  772POPS   C4A11752  11.770   1.916   8.052 -0.0292  0.4535  0.2354
  772POPS   C1B11753  11.925   1.588   7.117  0.0120  0.0611  0.1822
  772POPS   C2B11754  11.939   1.268   7.421  0.1131 -0.0603 -0.0067
  772POPS   C3B11755  12.066   1.004   7.853  0.1872 -0.4663  0.0317
  772POPS   C4B11756  11.989   0.926   8.286 -0.0254  0.0110  0.0689
  773POPS   CNO11757  14.902  15.053   6.550 -0.0301  0.1343 -0.2697
  773POPS   PO411758  15.100  15.305   6.364  0.1853  0.1052  0.0408
  773POPS   GL111759  15.358  15.450   6.712  0.2052  0.2300 -0.2090
  773POPS   GL211760  15.338  15.132   6.840  0.0387 -0.1027  0.1081
  773POPS   C1A11761  15.533  15.462   7.145  0.1664  0.0925  0.2089
  773POPS   D2A11762  15.441  15.381   7.517  0.2816 -0.3893 -0.3299
  773POPS   C3A11763  15.218  15.371   7.890  0.1195  0.0142 -0.0718
  773POPS   C4A11764  15.074  15.727   8.250 -0.2742 -0.1272  0.0349
  773POPS   C1B11765  15.243  15.029   7.185 -0.0797  0.4694  0.3096
  773POPS   C2B11766  15.198  14.949   7.654  0.0701 -0.0302  0.1283
  773POPS   C3B11767  15.392  14.960   8.071 -0.3617  0.2970  0.1277
  773POPS   C4B11768  15.205  14.777   8.410 -0.1050 -0.2498 -0.5570
  774POPS   CNO11769  13.033   3.832   5.885 -0.2109 -0.2207 -0.1036
  774POPS   PO411770  13.190   4.082   6.193 -0.3615 -0.2043 -0.1845
  774POPS   GL111771  13.193   4.165   6.583  0.4027  0.0039  0.2272
  774POPS   GL211772  13.472   4.003   6.821 -0.2107 -0.0214  0.2311
  774POPS   C1A11773  13.064   4.137   7.015 -0.0204 -0.1530  0.1400
  774POPS   D2A11774  13.071   4.030   7.363  0.3992  0.0872 -0.0301
  774POPS   C3A11775  13.465   4.190   7.563 -0.1415  0.2499 -0.3493
  774POPS   C4A11776  13.556   4.234   7.957  0.0073 -0.2540  0.3504
  774POPS   C1B11777  13.674   4.366   7.021  0.0509 -0.0100  0.1645
  774POPS   C2B11778  13.852   4.515   7.466 -0.3652  0.0494  0.0950
  774POPS   C3B11779  14.042   4.340   7.921 -0.1285  0.0788  0.0960
  774POPS   C4B11780  14.242   4.505   8.251 -0.1559 -0.3870 -0.1923
  775POPS   CNO11781   9.409  15.709   6.041  0.1567 -0.0961 -0.1143
  775POPS   PO411782   9.630  16.006   6.197  0.1963 -0.0706  0.2386
  775POPS   GL111783   9.643  15.756   6.607  0.0617  0.2107 -0.0007
  775POPS   GL211784   9.758  15.416   6.810 -0.1782 -0.0266 -0.1256
  775POPS   C1A11785   9.653  15.903   7.031  0.0604  0.1955  0.1136
  775POPS   D2A11786   9.568  15.847   7.519 -0.2238 -0.0361  0.0903
  775POPS   C3A11787   9.213  16.027   7.667  0.0371 -0.1720  0.0741
  775POPS   C4A11788   8.804  16.110   7.999 -0.0627  0.0882  0.1115
  775POPS   C1B11789   9.445  15.382   7.159  0.4520  0.0228 -0.0580
  775POPS   C2B11790   9.091  15.435   7.465 -0.2600  0.2590  0.0413
  775POPS   C3B11791   8.685  15.359   7.669  0.1987 -0.0354  0.2313
  775POPS   C4B11792   8.431  15.729   7.888  0.1572 -0.3425  0.1258
  776POPS   CNO11793   7.597   1.994   5.460  0.1723  0.0031  0.1614
  776POPS   PO411794   7.634   2.231   5.827 -0.1339 -0.4065  0.1181
  776POPS   GL111795   7.605   1.970   6.077 -0.1142  0.0910  0.0363
  776POPS   GL211796   7.253   1.905   6.274 -0.4061 -0.0333 -0.1491
  776POPS   C1A11797   7.750   1.953   6.481  0.1384 -0.0809 -0.0047
  776POPS   D2A11798   7.775   2.056   6.836  0.0802 -0.0657  0.0828
  776POPS   C3A11799   7.826   1.871   7.242  0.2109  0.1029 -0.0498
  776POPS   C4A11800   7.664   1.771   7.542 -0.2918 -0.0925  0.0392
  776POPS   C1B11801   7.376   1.722   6.734  0.0948  0.0507  0.2499
  776POPS   C2B11802   7.408   1.583   7.144 -0.1799 -0.3013 -0.1017
  776POPS   C3B11803   7.145   1.628   7.427 -0.2261  0.0299 -0.0426
  776POPS   C4B11804   6.804   1.843   7.700  0.0353 -0.0598  0.1942
  777POPS   CNO11805   2.573  10.540   5.591  0.1271 -0.1554  0.1072
  777POPS   PO411806   2.802  10.880   5.732 -0.4055  0.1355 -0.0366
  777POPS   GL111807   2.529  10.816   6.091  0.2599  0.2555  0.0483
  777POPS   GL211808   2.453  10.479   6.177  0.4424  0.0354  0.2076
  777POPS   C1A11809   2.599  10.839   6.542  0.0328  0.0970  0.3264
  777POPS   D2A11810   2.786  10.849   6.958 -0.0398 -0.1652  0.2867
  777POPS   C3A11811   3.145  10.653   7.100  0.0565 -0.2729  0.1029
  777POPS   C4A11812   3.493  10.770   7.359 -0.0473 -0.0929 -0.0966
  777POPS   C1B11813   2.434  10.341   6.591  0.1036  0.1475 -0.0991
  777POPS   C2B11814   2.520  10.480   7.099  0.0167  0.0599  0.1348
  777POPS   C3B11815   2.502  10.532   7.557  0.1247  0.1017 -0.3303
  777POPS   C4B11816   2.419  10.314   7.792  0.0033 -0.1525  0.1695
  778POPS   CNO11817   5.048   2.437   6.347 -0.1121 -0.2204 -0.0152
  778POPS   PO411818   4.907   2.835   6.362 -0.1010 -0.2303 -0.0135
  778POPS   GL111819   4.759   2.823   6.767 -0.0479  0.3149  0.0875
  778POPS   GL211820   4.477   3.036   6.789  0.0132  0.0405  0.1482
  778POPS   C1A11821   4.973   2.796   7.204 -0.0556 -0.0119 -0.1470
  778POPS   D2A11822   5.164   2.681   7.488  0.0078  0.0554 -0.1635
  778POPS   C3A11823   5.481   2.554   7.775 -0.1483 -0.2388  0.4239
  778POPS   C4A11824   5.627   2.652   8.257  0.1374 -0.0785 -0.2446
  778POPS   C1B11825   4.592   3.112   7.215  0.1084 -0.1654 -0.0597
  778POPS   C2B11826   4.677   3.168   7.591  0.0805  0.0886  0.0497
  778POPS   C3B11827   4.863   2.861   7.816  0.0593 -0.1945 -0.0671
  778POPS   C4B11828   5.127   2.763   8.059 -0.3102  0.0391 -0.1423
  779POPS   CNO11829  16.438   3.493   6.588  0.0174 -0.2795  0.2520
  779POPS   PO411830  16.477   3.112   6.834 -0.0588 -0.1605 -0.3407
  779POPS   GL111831  16.239   3.388   7.088 -0.0181 -0.3079  0.1188
  779POPS   GL211832  16.088   3.772   7.092 -0.0623 -0.0622 -0.1186
  779POPS   C1A11833  15.992   3.371   7.481  0.1584 -0.1908  0.1683
  779POPS   D2A11834  16.140   3.374   7.853 -0.3294 -0.1361  0.1157
  779POPS   C3A11835  16.122   3.825   7.994 -0.3460  0.0189 -0.0059
  779POPS   C4A11836  16.014   4.270   8.169 -0.0081 -0.0843 -0.0909
  779POPS   C1B11837  16.335   3.777   7.506  0.0739 -0.1280  0.1510
  779POPS   C2B11838  16.601   3.760   7.908  0.2794  0.1189 -0.0448
  779POPS   C3B11839  16.458   3.800   8.340  0.1247 -0.2163 -0.0112
  779POPS   C4B11840  16.746   3.704   8.726 -0.0788  0.1869  0.0073
  780POPS   CNO11841   9.553   1.177   5.703 -0.2092 -0.4327 -0.0681
  780POPS   PO411842   9.588   1.445   6.060  0.1312 -0.2181 -0.1366
  780POPS   GL111843   9.467   1.304   6.424  0.0407 -0.0185 -0.1949
  780POPS   GL211844   9.312   0.927   6.390  0.2212 -0.3396  0.0232
  780POPS   C1A11845   9.347   1.283   6.814  0.0157  0.2022 -0.0877
  780POPS   D2A11846   9.307   1.431   7.257  0.0013 -0.0644  0.1137
  780POPS   C3A11847   9.563   1.767   7.284  0.0346 -0.1706 -0.1044
  780POPS   C4A11848   9.812   1.802   7.701 -0.0836  0.2542  0.1601
  780POPS   C1B11849   9.530   0.835   6.877  0.3759 -0.1213  0.3533
  780POPS   C2B11850   9.312   0.892   7.165 -0.2014  0.1293  0.4877
  780POPS   C3B11851   9.201   0.963   7.563 -0.0744  0.0162 -0.3770
  780POPS   C4B11852   8.942   1.135   7.862 -0.0892  0.3090  0.0426
  781POPS   CNO11853  13.976  11.263   6.253  0.0290  0.0128 -0.0236
  781POPS   PO411854  14.343  11.096   6.517 -0.0126  0.1836  0.0844
  781POPS   GL111855  14.141  10.907   6.833  0.0216  0.1718 -0.0529
  781POPS   GL211856  14.240  10.621   6.750  0.1243  0.2889 -0.3727
  781POPS   C1A11857  13.849  11.035   7.047 -0.3087  0.0119 -0.3214
  781POPS   D2A11858  13.817  11.341   7.344  0.3964 -0.1551  0.2144
  781POPS   C3A11859  13.685  11.331   7.754 -0.2365 -0.0237 -0.0908
  781POPS   C4A11860  13.453  11.316   8.160 -0.3277 -0.2036  0.0248
  781POPS   C1B11861  13.992  10.270   6.946 -0.2921  0.0858 -0.0076
  781POPS   C2B11862  14.085  10.099   7.409 -0.2575 -0.0257  0.0751
  781POPS   C3B11863  13.858   9.856   7.745  0.1918 -0.3376 -0.0298
  781POPS   C4B11864  13.787   9.572   7.992 -0.0187  0.1613 -0.0742
  782POPS   CNO11865  10.017   1.581   6.310  0.3396 -0.1119  0.2017
  782POPS   PO411866  10.356   1.800   6.034  0.0743  0.3534 -0.1718
  782POPS   GL111867  10.294   2.121   6.368 -0.0025 -0.0636 -0.0950
  782POPS   GL211868  10.345   2.461   6.356  0.1465  0.1035 -0.2272
  782POPS   C1A11869  10.301   2.164   6.779  0.1766  0.1011  0.2879
  782POPS   D2A11870  10.253   2.332   7.165  0.2053  0.1687  0.0318
  782POPS   C3A11871  10.077   2.722   7.409 -0.0806 -0.0794  0.0339
  782POPS   C4A11872  10.178   2.805   7.861 -0.0875  0.1464  0.1470
  782POPS   C1B11873  10.336   2.691   6.861  0.3834  0.3431  0.1091
  782POPS   C2B11874   9.998   2.981   6.823 -0.0205 -0.1217 -0.3491
  782POPS   C3B11875   9.715   3.292   6.720  0.2570 -0.0005 -0.3295
  782POPS   C4B11876   9.410   3.490   6.866 -0.2547 -0.1876 -0.2737
  783POPS   CNO11877   7.208  17.775   5.656 -0.1652 -0.2906 -0.0181
  783POPS   PO411878   7.222  18.102   5.805  0.1079  0.0033 -0.1217
  783POPS   GL111879   7.191  18.141   6.285  0.0589  0.0491  0.0234
  783POPS   GL211880   7.079  17.827   6.455 -0.0882 -0.3202  0.0828
  783POPS   C1A11881   7.343  18.246   6.684 -0.0947  0.1671 -0.0692
  783POPS   D2A11882   7.190  18.380   7.119  0.1561 -0.2044  0.1230
  783POPS   C3A11883   7.381  18.532   7.436  0.0765  0.1626 -0.1017
  783POPS   C4A11884   7.680  18.525   7.748 -0.1375 -0.0084  0.1618
  783POPS   C1B11885   7.078  17.860   6.882  0.0189  0.2564 -0.0105
  783POPS   C2B11886   7.163  17.927   7.440  0.1151 -0.1202  0.1907
  783POPS   C3B11887   7.228  18.141   7.767 -0.0287  0.1815 -0.0062
  783POPS   C4B11888   7.184  18.534   7.900  0.0529  0.1548 -0.2055
  784POPS   CNO11889   9.703   4.053   5.847  0.2257 -0.2234  0.3952
  784POPS   PO411890   9.475   4.463   5.919  0.2170  0.2455  0.0436
  784POPS   GL111891   9.280   4.474   6.411 -0.1016  0.1487 -0.4856
  784POPS   GL211892   9.009   4.592   6.496  0.1938 -0.5826 -0.1310
  784POPS   C1A11893   9.344   4.135   6.788  0.0184 -0.1923 -0.0951
  784POPS   D2A11894   9.375   4.154   7.174  0.0794  0.1728 -0.1576
  784POPS   C3A11895   9.776   4.142   7.319  0.1117  0.0981  0.1068
  784POPS   C4A11896  10.131   4.250   7.542  0.0476 -0.1002 -0.1258
  784POPS   C1B11897   9.201   4.614   6.970 -0.0075  0.1708  0.3282
  784POPS   C2B11898   9.509   4.621   7.323 -0.1179 -0.0148 -0.1158
  784POPS   C3B11899   9.760   4.518   7.676  0.2752  0.2829  0.2134
  784POPS   C4B11900   9.761   4.096   7.846 -0.1314  0.1333  0.0264
  785POPS   CNO11901  17.649  16.948   5.842 -0.0289 -0.0461  0.0384
  785POPS   PO411902  17.536  16.923   6.318 -0.0084  0.1154 -0.1104
  785POPS   GL111903  17.507  16.919   6.763  0.1060 -0.0116 -0.1515
  785POPS   GL211904  17.380  16.596   6.951 -0.3942 -0.3072 -0.2158
  785POPS   C1A11905  17.663  16.939   7.141 -0.0324  0.0384 -0.1034
  785POPS   D2A11906  17.673  16.601   7.501  0.0073 -0.0630  0.2459
  785POPS   C3A11907  17.966  16.748   7.696  0.0277  0.1215  0.0727
  785POPS   C4A11908  18.336  16.815   7.876 -0.0668  0.2523 -0.0575
  785POPS   C1B11909  17.227  16.789   7.348 -0.1083  0.3501  0.2090
  785POPS   C2B11910  17.273  16.864   7.841 -0.4155  0.0759 -0.0507
  785POPS   C3B11911  17.391  16.908   8.250  0.2176 -0.1272  0.2913
  785POPS   C4B11912  17.236  16.707   8.663  0.0367 -0.1329  0.1003
  786POPS   CNO11913   9.597  10.153   5.290 -0.0241  0.2188 -0.0984
  786POPS   PO411914   9.438  10.368   5.623 -0.1182  0.1234  0.0472
  786POPS   GL111915   9.555  10.343   6.110  0.0826 -0.2612  0.4379
  786POPS   GL211916   9.604  10.669   6.092  0.1294  0.0472  0.1368
  786POPS   C1A11917   9.294  10.195   6.432  0.1139 -0.0609 -0.2598
  786POPS   D2A11918   9.001  10.281   6.760 -0.0470  0.1761  0.1554
  786POPS   C3A11919   9.025  10.369   7.237 -0.0741 -0.0405 -0.1319
  786POPS   C4A11920   9.193  10.386   7.581 -0.2749 -0.0930 -0.2536
  786POPS   C1B11921   9.268  10.671   6.336 -0.0470  0.0777 -0.0143
  786POPS   C2B11922   8.921  10.636   6.437 -0.0349  0.1809 -0.0364
  786POPS   C3B11923   8.561  10.746   6.563 -0.1639 -0.2253 -0.0880
  786POPS   C4B11924   8.265  11.010   6.672  0.1872 -0.1024 -0.2621
  787POPS   CNO11925   5.891  15.382   5.685  0.0923 -0.0936  0.0799
  787POPS   PO411926   6.018  15.331   6.091 -0.1044  0.2326  0.2580
  787POPS   GL111927   5.825  15.620   6.364  0.1010  0.0670  0.0653
  787POPS   GL211928   5.832  15.895   6.421  0.3051 -0.0010 -0.1373
  787POPS   C1A11929   5.767  15.577   6.828 -0.0382 -0.0134  0.1356
  787POPS   D2A11930   5.849  15.697   7.176 -0.1222 -0.0179 -0.1551
  787POPS   C3A11931   5.703  15.410   7.514 -0.1984 -0.1844 -0.0909
  787POPS   C4A11932   5.525  15.290   7.984 -0.3198  0.1605  0.4786
  787POPS   C1B11933   5.706  16.091   6.811 -0.2672 -0.0559 -0.0351
  787POPS   C2B11934   5.549  16.224   7.074  0.2725  0.2263 -0.2526
  787POPS   C3B11935   5.514  16.397   7.438  0.0706  0.2026 -0.3130
  787POPS   C4B11936   5.296  16.617   7.794  0.1261 -0.0072  0.1110
  788POPS   CNO11937  12.991  16.252   5.805 -0.1206  0.5093 -0.0096
  788POPS   PO411938  12.688  15.966   6.021 -0.0206 -0.0192  0.2501
  788POPS   GL111939  12.859  16.198   6.296  0.1352 -0.0839 -0.4707
  788POPS   GL211940  12.864  16.087   6.542  0.2840  0.0958  0.1303
  788POPS   C1A11941  12.997  16.510   6.724  0.1396 -0.1731  0.1417
  788POPS   D2A11942  13.014  16.613   7.169  0.4829 -0.0726  0.1162
  788POPS   C3A11943  13.175  16.618   7.603 -0.0931 -0.2756  0.3016
  788POPS   C4A11944  13.244  16.768   8.050 -0.3161  0.0207 -0.0529
  788POPS   C1B11945  12.914  16.108   6.993  0.1824 -0.0378  0.1513
  788POPS   C2B11946  12.979  16.153   7.427  0.0378 -0.2061 -0.1022
  788POPS   C3B11947  12.990  16.174   7.868  0.1797 -0.2331  0.1692
  788POPS   C4B11948  13.051  16.146   8.280  0.1867  0.3795  0.0120
  789POPS   CNO11949  16.729  17.744   6.574  0.2989 -0.0294 -0.0691
  789POPS   PO411950  16.826  17.394   6.525  0.1052 -0.0433 -0.3481
  789POPS   GL111951  16.970  17.304   6.904 -0.3639 -0.0393  0.0347
  789POPS   GL211952  16.866  17.005   6.973 -0.1116 -0.0801  0.2373
  789POPS   C1A11953  17.379  17.339   7.195 -0.2150  0.0293 -0.1108
  789POPS   D2A11954  17.493  17.642   7.577  0.0972 -0.1253 -0.0098
  789POPS   C3A11955  17.659  18.064   7.655 -0.1583  0.2970 -0.4159
  789POPS   C4A11956  17.889  18.185   7.996 -0.0247  0.0902  0.2361
  789POPS   C1B11957  16.916  17.162   7.396  0.3678 -0.0470 -0.2717
  789POPS   C2B11958  17.014  17.362   7.793 -0.3932 -0.0744 -0.1158
  789POPS   C3B11959  17.418  17.338   8.001 -0.1126  0.2945  0.4804
  789POPS   C4B11960  17.805  17.277   8.283 -0.0546  0.1038  0.4750
  790POPS   CNO11961   6.047   5.551   5.976 -0.2640 -0.2529  0.1750
  790POPS   PO411962   6.317   5.825   6.206  0.0183 -0.0433 -0.3688
  790POPS   GL111963   6.287   5.738   6.609  0.0544  0.0327  0.3091
  790POPS   GL211964   6.094   5.517   6.714  0.0282 -0.0169  0.0170
  790POPS   C1A11965   6.495   5.790   7.022  0.4317  0.2782 -0.1079
  790POPS   D2A11966   6.606   5.812   7.510 -0.0431  0.0816 -0.4001
  790POPS   C3A11967   6.592   5.507   7.949  0.1848 -0.0932 -0.1853
  790POPS   C4A11968   6.638   5.108   7.963  0.1479 -0.0975 -0.0967
  790POPS   C1B11969   5.981   5.550   7.063  0.1578  0.1699  0.0563
  790POPS   C2B11970   6.060   5.786   7.375 -0.1679  0.0982  0.0317
  790POPS   C3B11971   6.171   5.733   7.801  0.0854  0.0153  0.1953
  790POPS   C4B11972   6.190   5.590   8.239  0.0012  0.1284 -0.2092
  791POPS   CNO11973   4.776   8.574   5.795 -0.0985  0.1955  0.0791
  791POPS   PO411974   5.170   8.651   5.966 -0.2031 -0.0431 -0.2719
  791POPS   GL111975   5.168   8.498   6.362  0.0845 -0.2791 -0.2443
  791POPS   GL211976   5.208   8.186   6.468 -0.3616 -0.1065  0.0467
  791POPS   C1A11977   4.953   8.488   6.739 -0.3884  0.0570 -0.0728
  791POPS   D2A11978   4.923   8.197   7.124  0.1259  0.0011 -0.0142
  791POPS   C3A11979   4.879   8.212   7.539 -0.1121 -0.1438 -0.1079
  791POPS   C4A11980   5.245   8.313   7.868 -0.0152 -0.1976 -0.2623
  791POPS   C1B11981   5.414   8.312   6.918  0.2045  0.2288 -0.0300
  791POPS   C2B11982   5.623   8.183   7.198 -0.2185 -0.1670 -0.2505
  791POPS   C3B11983   5.674   8.057   7.501  0.0214  0.2136  0.0864
  791POPS   C4B11984   6.106   7.902   7.677  0.0111 -0.2158  0.0279
  792POPS   CNO11985   3.820  16.487   5.855  0.0959  0.0460 -0.0612
  792POPS   PO411986   3.924  16.337   6.304  0.0099  0.0501 -0.3478
  792POPS   GL111987   3.789  16.523   6.553  0.0702 -0.2094 -0.1793
  792POPS   GL211988   3.506  16.635   6.420  0.0959 -0.1245 -0.2011
  792POPS   C1A11989   3.673  16.645   6.992 -0.0605  0.2564  0.1210
  792POPS   D2A11990   3.448  16.668   7.366  0.2275 -0.1356  0.2430
  792POPS   C3A11991   3.229  17.015   7.584  0.0709  0.1550  0.1106
  792POPS   C4A11992   3.146  17.434   7.703 -0.3398 -0.0277  0.0374
  792POPS   C1B11993   3.224  16.447   6.732 -0.2312  0.0187  0.0822
  792POPS   C2B11994   3.060  16.483   7.180  0.0698  0.3336  0.0979
  792POPS   C3B11995   3.025  16.502   7.691  0.0485  0.2807 -0.4828
  792POPS   C4B11996   3.085  16.449   8.146  0.1193  0.0573 -0.0737
  793POPS   CNO11997  14.391  12.054   6.091 -0.2971  0.1427 -0.0797
  793POPS   PO411998  14.478  11.969   6.521 -0.1430 -0.2911 -0.2068
  793POPS   GL111999  14.624  12.213   6.877  0.1252  0.2109  0.1786
  793POPS   GL212000  14.511  12.564   6.931 -0.1195 -0.0471  0.2611
  793POPS   C1A12001  14.865  12.190   7.186  0.2104 -0.0157 -0.0024
  793POPS   D2A12002  14.952  12.192   7.623 -0.0840 -0.2463  0.1103
  793POPS   C3A12003  14.587  12.235   8.039 -0.1512 -0.0026  0.3154
  793POPS   C4A12004  14.291  12.425   8.277  0.6894 -0.0713  0.1199
  793POPS   C1B12005  14.588  12.632   7.383  0.0056  0.1946  0.1080
  793POPS   C2B12006  14.544  12.770   7.899 -0.0264  0.1107 -0.0415
  793POPS   C3B12007  14.549  12.983   8.230  0.1787  0.0013  0.0363
  793POPS   C4B12008  14.556  13.181   8.596  0.1213 -0.0394 -0.0186
  794POPS   CNO12009   7.334  13.517   5.716 -0.2050 -0.1512  0.2407
  794POPS   PO412010   7.122  13.206   5.716  0.1307 -0.0450 -0.1475
  794POPS   GL112011   7.343  13.152   6.120  0.1167  0.1122 -0.0753
  794POPS   GL212012   7.290  13.424   6.366 -0.1905  0.1043  0.0956
  794POPS   C1A12013   7.416  12.798   6.380 -0.0416 -0.2020 -0.0553
  794POPS   D2A12014   7.338  12.619   6.792 -0.2645  0.1871 -0.0168
  794POPS   C3A12015   7.025  12.706   7.053 -0.1467 -0.0145 -0.1145
  794POPS   C4A12016   6.598  12.524   6.983 -0.1321  0.0869 -0.0890
  794POPS   C1B12017   7.380  13.650   6.686 -0.0949  0.2484  0.0774
  794POPS   C2B12018   7.350  13.675   7.113  0.0978  0.1414 -0.1114
  794POPS   C3B12019   7.106  13.837   7.329  0.0555 -0.1896 -0.1861
  794POPS   C4B12020   6.833  13.801   7.759 -0.0094 -0.0788 -0.0650
  795POPS   CNO12021  14.549  14.814   6.248  0.0674  0.0603 -0.0493
  795POPS   PO412022  14.151  14.921   6.458 -0.2693 -0.0563 -0.0368
  795POPS   GL112023  14.161  15.021   6.829  0.1726 -0.1763  0.2548
  795POPS   GL212024  14.462  15.152   6.809 -0.0184  0.1287 -0.1271
  795POPS   C1A12025  14.159  14.827   7.223  0.0148 -0.2343  0.0326
  795POPS   D2A12026  13.938  14.871   7.543 -0.0725 -0.2078 -0.2968
  795POPS   C3A12027  13.826  15.029   7.927 -0.0009  0.0567 -0.0508
  795POPS   C4A12028  13.614  15.199   8.381 -0.2430 -0.3218 -0.0479
  795POPS   C1B12029  14.377  15.348   7.132  0.0330  0.0118 -0.0937
  795POPS   C2B12030  14.242  15.315   7.562 -0.1003 -0.0728  0.0906
  795POPS   C3B12031  14.130  15.548   7.909  0.1556  0.0048 -0.0353
  795POPS   C4B12032  13.761  15.645   8.104 -0.1416  0.0301  0.1938
  796POPS   CNO12033  17.598  16.118   5.886 -0.2241 -0.1232 -0.1836
  796POPS   PO412034  17.728  16.405   6.057  0.1320  0.0667 -0.1943
  796POPS   GL112035  17.720  16.269   6.441 -0.1526 -0.0060  0.1696
  796POPS   GL212036  17.770  16.526   6.583  0.1777  0.3249 -0.0166
  796POPS   C1A12037  17.931  16.006   6.643 -0.1476 -0.3097 -0.1270
  796POPS   D2A12038  17.857  15.618   6.807 -0.2712 -0.2367 -0.1443
  796POPS   C3A12039  17.653  15.655   7.120  0.1393 -0.2614  0.2670
  796POPS   C4A12040  17.688  15.587   7.542 -0.1314 -0.0385  0.2517
  796POPS   C1B12041  17.871  16.498   7.036 -0.0058 -0.0831  0.1593
  796POPS   C2B12042  18.196  16.479   7.343 -0.1168  0.2143 -0.1724
  796POPS   C3B12043  18.252  16.281   7.697  0.2223  0.0398 -0.2185
  796POPS   C4B12044  18.613  16.296   8.040 -0.2745 -0.0031  0.1254
  797POPS   CNO12045   2.138   7.937   5.688 -0.1052  0.0772  0.1719
  797POPS   PO412046   2.309   8.072   6.069  0.0120 -0.1685 -0.0523
  797POPS   GL112047   2.318   8.078   6.415  0.1979 -0.0522  0.0077
  797POPS   GL212048   2.542   7.898   6.523  0.2979 -0.0402 -0.1785
  797POPS   C1A12049   2.588   8.383   6.790 -0.1180 -0.2970 -0.2902
  797POPS   D2A12050   2.553   8.533   7.277  0.0219  0.2987  0.0049
  797POPS   C3A12051   2.245   8.422   7.527  0.0597 -0.2796  0.0262
  797POPS   C4A12052   1.849   8.258   7.662 -0.2201  0.1063  0.4122
  797POPS   C1B12053   2.465   7.894   6.955  0.0508 -0.0882 -0.0766
  797POPS   C2B12054   2.502   7.873   7.304  0.0671  0.0312  0.1332
  797POPS   C3B12055   2.451   7.719   7.739 -0.1739  0.0152  0.1713
  797POPS   C4B12056   2.137   7.858   8.070  0.1828 -0.2282 -0.1361
  798POPS   CNO12057   1.282  16.891   5.553 -0.0624 -0.0575  0.1657
  798POPS   PO412058   1.263  16.990   5.916 -0.3320 -0.0853  0.1222
  798POPS   GL112059   1.407  16.817   6.211 -0.0455  0.1199  0.3467
  798POPS   GL212060   1.720  16.808   6.226  0.1689  0.0794  0.1296
  798POPS   C1A12061   1.373  16.714   6.637  0.0877 -0.1050  0.0291
  798POPS   D2A12062   1.469  16.761   7.022 -0.0712 -0.0409 -0.1462
  798POPS   C3A12063   1.246  16.685   7.472  0.1114 -0.0465  0.5536
  798POPS   C4A12064   1.008  16.666   7.834 -0.1142  0.0748 -0.0841
  798POPS   C1B12065   1.891  16.842   6.650  0.2391  0.2558 -0.0609
  798POPS   C2B12066   1.902  16.963   7.032 -0.2720  0.0282 -0.1391
  798POPS   C3B12067   1.728  16.806   7.472 -0.0217  0.1458  0.0645
  798POPS   C4B12068   1.945  16.676   7.880  0.1688 -0.2672  0.4049
  799POPS   CNO12069   0.252   1.067   5.886  0.0588 -0.2470 -0.1499
  799POPS   PO412070   0.091   0.808   6.117 -0.2602 -0.1033 -0.2204
  799POPS   GL112071   0.046   0.758   6.633 -0.2801 -0.0861  0.0555
  799POPS   GL212072  -0.283   0.692   6.726 -0.1387 -0.2615  0.0485
  799POPS   C1A12073   0.112   0.339   6.869 -0.2505 -0.0791 -0.1340
  799POPS   D2A12074   0.097  -0.047   7.120  0.0328  0.2828 -0.2030
  799POPS   C3A12075   0.112  -0.480   7.239  0.3553  0.1676  0.1123
  799POPS   C4A12076   0.362  -0.851   7.299 -0.0101 -0.0288 -0.1724
  799POPS   C1B12077  -0.329   0.889   7.082  0.1685  0.0413  0.0163
  799POPS   C2B12078  -0.423   0.670   7.501 -0.0994 -0.0673 -0.0884
  799POPS   C3B12079  -0.576   0.502   7.891  0.1159 -0.2910 -0.2828
  799POPS   C4B12080  -0.602   0.010   8.006  0.2519 -0.1711 -0.1591
  800POPS   CNO12081   0.006  11.861   6.165 -0.1245 -0.1550  0.0563
  800POPS   PO412082  -0.341  12.074   6.055 -0.2595 -0.1491  0.1213
  800POPS   GL112083  -0.331  12.141   6.476  0.0126  0.0145 -0.0251
  800POPS   GL212084  -0.282  12.347   6.670 -0.0433 -0.0733  0.1243
  800POPS   C1A12085  -0.433  11.954   6.896 -0.1249 -0.1596 -0.2870
  800POPS   D2A12086  -0.341  11.771   7.250 -0.0117 -0.0731 -0.0941
  800POPS   C3A12087  -0.611  11.633   7.586  0.0229 -0.0168 -0.0598
  800POPS   C4A12088  -0.850  11.938   7.950  0.0097 -0.2300  0.0327
  800POPS   C1B12089  -0.402  12.366   7.207 -0.1347  0.1109 -0.2996
  800POPS   C2B12090  -0.486  12.674   7.618 -0.0044 -0.0290  0.0623
  800POPS   C3B12091  -0.637  12.946   7.722 -0.3770 -0.2356 -0.1462
  800POPS   C4B12092  -0.844  13.038   8.128 -0.0487 -0.4387  0.0595
  801POPS   CNO12093  16.815   8.532   6.254 -0.0020  0.0354 -0.0567
  801POPS   PO412094  16.760   8.992   6.063 -0.0544  0.3264 -0.1244
  801POPS   GL112095  16.666   8.917   6.526  0.1769 -0.3052  0.0932
  801POPS   GL212096  16.260   8.928   6.597 -0.0530  0.0626 -0.0453
  801POPS   C1A12097  16.754   8.708   6.818  0.0593  0.0174 -0.1492
  801POPS   D2A12098  16.855   8.514   7.157 -0.1265 -0.0861  0.2537
  801POPS   C3A12099  16.877   8.707   7.515  0.1312  0.0269  0.1332
  801POPS   C4A12100  16.920   8.523   7.926 -0.0939 -0.0392 -0.1107
  801POPS   C1B12101  16.060   8.810   7.026  0.0256  0.1698 -0.0386
  801POPS   C2B12102  16.264   8.912   7.424  0.0937  0.0463  0.1161
  801POPS   C3B12103  16.465   8.782   7.769  0.1488  0.1469  0.1169
  801POPS   C4B12104  16.499   8.606   8.184 -0.0498  0.1382 -0.0393
  802POPS   CNO12105   5.131  15.008   6.212 -0.3187  0.1353 -0.0756
  802POPS   PO412106   5.172  15.394   6.103  0.3085 -0.3125  0.0558
  802POPS   GL112107   4.965  15.379   6.466 -0.2948  0.0843 -0.2129
  802POPS   GL212108   4.739  15.195   6.498  0.0822 -0.1004 -0.0000
  802POPS   C1A12109   4.859  15.508   6.874 -0.1160 -0.0642 -0.1340
  802POPS   D2A12110   4.846  15.741   7.099  0.0203  0.0254 -0.3849
  802POPS   C3A12111   4.883  15.707   7.496 -0.2523 -0.0924 -0.1440
  802POPS   C4A12112   4.548  15.616   7.821 -0.2060 -0.0976 -0.1650
  802POPS   C1B12113   4.407  15.180   6.695 -0.2017  0.1922  0.0971
  802POPS   C2B12114   4.177  14.916   6.998 -0.1570  0.2499  0.0598
  802POPS   C3B12115   4.121  15.036   7.438  0.1369  0.0106 -0.1598
  802POPS   C4B12116   4.381  15.012   7.878 -0.3126 -0.1148 -0.0150
  803POPS   CNO12117   9.008   6.548   5.963 -0.1679 -0.2466  0.1370
  803POPS   PO412118   9.144   6.185   6.233 -0.3545  0.1805  0.1391
  803POPS   GL112119   9.269   5.815   6.483  0.0295  0.0344 -0.2660
  803POPS   GL212120   9.253   5.928   6.759 -0.0183  0.1525  0.0988
  803POPS   C1A12121   9.218   5.324   6.517 -0.0245  0.0988  0.2156
  803POPS   D2A12122   9.374   4.957   6.586 -0.3307  0.0645  0.1933
  803POPS   C3A12123   9.654   4.645   6.777 -0.0500 -0.0240 -0.2191
  803POPS   C4A12124   9.838   4.322   6.765 -0.1784 -0.0100  0.2469
  803POPS   C1B12125   9.132   5.623   6.946 -0.1739 -0.2077 -0.0894
  803POPS   C2B12126   8.898   5.498   7.215 -0.0176 -0.2697 -0.2559
  803POPS   C3B12127   8.786   5.127   7.440  0.2305  0.1793  0.0853
  803POPS   C4B12128   9.066   4.741   7.440 -0.1104 -0.0659 -0.1424
  804POPS   CNO12129   4.245  16.154   5.919  0.4050  0.0458  0.1520
  804POPS   PO412130   4.527  16.081   6.294 -0.2705 -0.0975  0.1823
  804POPS   GL112131   4.334  16.476   6.574  0.0268 -0.0399 -0.1848
  804POPS   GL212132   4.245  16.788   6.583 -0.1348  0.0190 -0.1002
  804POPS   C1A12133   4.083  16.353   7.005 -0.0688 -0.1097  0.1593
  804POPS   D2A12134   3.944  16.436   7.420 -0.1612 -0.2340  0.0165
  804POPS   C3A12135   4.146  16.552   7.835 -0.1698  0.0834  0.0723
  804POPS   C4A12136   4.432  16.889   7.842  0.1240 -0.1722 -0.2756
  804POPS   C1B12137   4.168  16.925   6.969  0.0477  0.0298 -0.2721
  804POPS   C2B12138   4.272  17.104   7.436  0.2151 -0.0877  0.0523
  804POPS   C3B12139   4.715  17.181   7.583 -0.0000  0.0175  0.1609
  804POPS   C4B12140   5.146  17.114   7.609  0.3505  0.2265  0.1004
  805POPS   CNO12141  17.730   1.753   6.129  0.0328 -0.0837  0.2384
  805POPS   PO412142  18.002   1.768   6.423  0.0519  0.0500  0.1656
  805POPS   GL112143  17.961   1.830   6.804 -0.0223  0.2790 -0.1636
  805POPS   GL212144  17.961   2.177   6.843  0.1207  0.1422  0.2491
  805POPS   C1A12145  17.949   1.685   7.189 -0.0201 -0.0757  0.1235
  805POPS   D2A12146  17.953   2.060   7.448  0.0736  0.0694  0.2385
  805POPS   C3A12147  17.960   2.504   7.277  0.0110  0.1538  0.0916
  805POPS   C4A12148  17.866   2.882   7.504 -0.4334  0.2570 -0.2147
  805POPS   C1B12149  18.389   2.133   7.053 -0.0779 -0.2459  0.1902
  805POPS   C2B12150  18.514   2.133   7.477  0.0007 -0.1127  0.2425
  805POPS   C3B12151  18.342   2.077   7.923 -0.1394  0.0464  0.1954
  805POPS   C4B12152  18.020   2.205   8.337  0.1319  0.0219  0.2362
  806YOPS   CNO12153   5.746   5.175   5.944 -0.0583 -0.0914  0.2136
  806YOPS   PO412154   5.626   5.380   6.276 -0.0861 -0.0368 -0.1995
  806YOPS   GL112155   5.366   5.502   6.508 -0.2550  0.3898 -0.2417
  806YOPS   GL212156   5.585   5.678   6.669 -0.0154  0.1212 -0.2879
  806YOPS   C1A12157   5.021   5.476   6.751  0.0764  0.1610  0.0516
  806YOPS   D2A12158   4.923   5.525   7.123 -0.1977 -0.1420 -0.5546
  806YOPS   C3A12159   4.947   5.665   7.559  0.0786  0.1578 -0.1161
  806YOPS   C4A12160   5.305   5.680   7.768 -0.0498  0.0337  0.1187
  806YOPS   C1B12161   5.436   5.594   7.106 -0.2091 -0.0999 -0.1407
  806YOPS   C2B12162   5.662   5.535   7.454 -0.3289 -0.1161  0.4493
  806YOPS   D3B12163   5.762   5.539   7.922 -0.1783 -0.1811 -0.2696
  806YOPS   C4B12164   5.634   5.902   8.121 -0.2461  0.0330  0.3607
  807YOPS   CNO12165   0.095   2.857   6.238 -0.1132  0.0006 -0.2121
  807YOPS   PO412166   0.113   2.534   6.485 -0.3094  0.0267  0.1235
  807YOPS   GL112167   0.227   2.663   6.813 -0.0235 -0.2361 -0.1353
  807YOPS   GL212168   0.541   2.602   6.860 -0.1774 -0.1154 -0.1560
  807YOPS   C1A12169   0.226   3.072   7.038  0.1521  0.0803 -0.1202
  807YOPS   D2A12170   0.062   3.476   6.968  0.1495  0.2431  0.2154
  807YOPS   C3A12171   0.227   3.805   7.268  0.0611  0.1761 -0.0223
  807YOPS   C4A12172   0.300   3.754   7.749 -0.1404 -0.3721  0.1627
  807YOPS   C1B12173   0.479   2.794   7.338  0.0181  0.2691 -0.4155
  807YOPS   C2B12174   0.403   2.546   7.685 -0.0419  0.0149  0.0091
  807YOPS   D3B12175   0.050   2.388   7.839 -0.2261 -0.0712 -0.0953
  807YOPS   C4B12176  -0.237   2.447   7.647 -0.5055 -0.0347 -0.2170
  808YOPS   CNO12177  11.117   8.249   5.832 -0.2162  0.0561  0.0194
  808YOPS   PO412178  10.876   7.839   6.028  0.0647 -0.2523  0.1057
  808YOPS   GL112179  10.852   7.767   6.380 -0.2183  0.3386 -0.2094
  808YOPS   GL212180  10.475   7.735   6.497  0.0371  0.5254 -0.2509
  808YOPS   C1A12181  10.798   7.882   6.898 -0.1221  0.0855  0.0733
  808YOPS   D2A12182  10.818   7.892   7.398 -0.3068 -0.0279 -0.0723
  808YOPS   C3A12183  10.697   7.723   7.784  0.0566 -0.3549  0.1989
  808YOPS   C4A12184  10.696   7.405   8.029 -0.1532 -0.1704  0.1302
  808YOPS   C1B12185  10.301   7.865   6.873 -0.4123 -0.0454  0.2688
  808YOPS   C2B12186  10.369   7.949   7.259 -0.0405 -0.2452 -0.1546
  808YOPS   D3B12187  10.426   8.122   7.708  0.0235  0.1189  0.0796
  808YOPS   C4B12188  10.073   8.390   7.905  0.1868  0.4602  0.0907
  809YOPS   CNO12189   6.199   8.243   6.420 -0.0162  0.1569  0.5137
  809YOPS   PO412190   6.084   8.685   6.291  0.1604 -0.1335 -0.2540
  809YOPS   GL112191   6.034   8.820   6.734 -0.1152  0.1947 -0.0230
  809YOPS   GL212192   5.813   9.046   6.676 -0.2557  0.1921 -0.0451
  809YOPS   C1A12193   6.273   8.766   7.117  0.2488  0.0831 -0.0586
  809YOPS   D2A12194   6.350   8.969   7.495  0.0629  0.0922 -0.0663
  809YOPS   C3A12195   6.468   9.043   7.962 -0.2966  0.3406  0.2286
  809YOPS   C4A12196   6.325   8.730   8.216 -0.0722  0.0960 -0.1955
  809YOPS   C1B12197   5.968   9.142   7.116  0.0311 -0.0297 -0.0964
  809YOPS   C2B12198   6.000   9.289   7.579 -0.1598  0.0271  0.0677
  809YOPS   D3B12199   6.237   9.489   7.961 -0.0206  0.0628 -0.0349
  809YOPS   C4B12200   6.700   9.492   8.027  0.2615 -0.1666 -0.2450
  810YOPS   CNO12201  11.327  11.506   5.447  0.0505 -0.4027  0.0536
  810YOPS   PO412202  11.360  11.585   5.923  0.1650  0.1347 -0.0837
  810YOPS   GL112203  11.152  11.377   6.254 -0.0288  0.2328  0.0822
  810YOPS   GL212204  11.025  11.710   6.463  0.2828  0.2121 -0.1842
  810YOPS   C1A12205  11.111  11.234   6.646 -0.3340 -0.0789  0.1607
  810YOPS   D2A12206  11.002  11.135   7.137  0.0858 -0.1219 -0.1151
  810YOPS   C3A12207  11.135  11.308   7.469  0.0708  0.0383 -0.0386
  810YOPS   C4A12208  11.442  11.546   7.485  0.1088  0.1090  0.1138
  810YOPS   C1B12209  10.834  11.958   6.752  0.2965 -0.0395  0.0845
  810YOPS   C2B12210  10.975  12.192   6.978  0.3578 -0.1269  0.1692
  810YOPS   D3B12211  11.146  12.477   7.119 -0.0047  0.0284  0.3357
  810YOPS   C4B12212  10.935  12.572   7.574 -0.0802  0.1032  0.1820
  811YOPS   CNO12213   0.663   7.082   5.712 -0.0801  0.1622 -0.0080
  811YOPS   PO412214   0.783   6.948   6.133 -0.1250  0.1629  0.0291
  811YOPS   GL112215   0.866   6.940   6.562  0.2496  0.1143 -0.1565
  811YOPS   GL212216   1.063   7.165   6.611 -0.2555 -0.1600 -0.2317
  811YOPS   C1A12217   0.537   6.852   6.844  0.1135  0.0593 -0.0031
  811YOPS   D2A12218   0.318   6.875   7.225  0.0844  0.0159  0.0539
  811YOPS   C3A12219   0.576   7.190   7.439 -0.1230  0.2651  0.0463
  811YOPS   C4A12220   0.306   7.360   7.819  0.0989 -0.2123 -0.0450
  811YOPS   C1B12221   1.166   7.198   6.960 -0.0191 -0.1969  0.1154
  811YOPS   C2B12222   1.038   7.294   7.372 -0.2002  0.0612 -0.1945
  811YOPS   D3B12223   1.094   7.554   7.751  0.0072 -0.1668 -0.1337
  811YOPS   C4B12224   0.866   7.941   7.780 -0.0771  0.1919  0.0357
  812YOPS   CNO12225   7.860   7.196   5.992  0.1381 -0.0137 -0.0389
  812YOPS   PO412226   7.875   7.549   6.194  0.1184 -0.1199 -0.1523
  812YOPS   GL112227   7.941   7.773   6.521 -0.0786 -0.0349  0.2895
  812YOPS   GL212228   7.613   7.816   6.646 -0.1321 -0.0041 -0.0214
  812YOPS   C1A12229   8.096   7.726   6.948 -0.0141 -0.0493  0.2673
  812YOPS   D2A12230   8.031   7.739   7.399 -0.2770 -0.1166 -0.1959
  812YOPS   C3A12231   8.020   7.924   7.899 -0.2007 -0.2010 -0.0552
  812YOPS   C4A12232   8.370   7.952   8.172  0.1274  0.1132  0.1050
  812YOPS   C1B12233   7.639   8.023   7.067  0.1086 -0.1212  0.0021
  812YOPS   C2B12234   7.426   8.247   7.453 -0.3304 -0.1508  0.1059
  812YOPS   D3B12235   7.048   8.389   7.720 -0.1062 -0.2948  0.2638
  812YOPS   C4B12236   6.927   8.802   7.850 -0.1188 -0.0430 -0.3416
  813YOPS   CNO12237   5.593   9.612   6.077  0.0162 -0.2043  0.1703
  813YOPS   PO412238   5.777  10.033   6.190  0.1281 -0.0839  0.0121
  813YOPS   GL112239   5.690   9.776   6.566  0.1397 -0.0208  0.0708
  813YOPS   GL212240   5.412   9.842   6.595  0.0109 -0.0201  0.0138
  813YOPS   C1A12241   5.848   9.627   6.892  0.0190 -0.2236 -0.0380
  813YOPS   D2A12242   5.842   9.683   7.359  0.0599  0.0983  0.2465
  813YOPS   C3A12243   5.516   9.613   7.642  0.0194  0.0190 -0.1947
  813YOPS   C4A12244   5.780   9.544   8.077 -0.3355  0.1324  0.0291
  813YOPS   C1B12245   5.455   9.800   7.067 -0.1417 -0.0408 -0.1716
  813YOPS   C2B12246   5.178   9.765   7.382  0.1517 -0.3157  0.0381
  813YOPS   D3B12247   5.105   9.802   7.845  0.2984 -0.0157 -0.0901
  813YOPS   C4B12248   5.312   9.750   8.196 -0.2431  0.0714 -0.0355
  814YOPS   CNO12249  16.302   5.037   6.389 -0.0102  0.2369 -0.0365
  814YOPS   PO412250  16.192   5.248   6.062 -0.4547 -0.1688  0.2767
  814YOPS   GL112251  16.003   5.443   6.456  0.0031  0.2190 -0.0701
  814YOPS   GL212252  16.300   5.736   6.515 -0.0285  0.0943 -0.1754
  814YOPS   C1A12253  16.181   5.467   6.880  0.0899 -0.0371  0.0061
  814YOPS   D2A12254  16.273   5.683   7.260 -0.1753 -0.2031 -0.4913
  814YOPS   C3A12255  16.393   5.918   7.607  0.0435  0.2328  0.1022
  814YOPS   C4A12256  16.784   6.031   7.609  0.1237  0.0135 -0.3287
  814YOPS   C1B12257  16.533   6.007   6.789 -0.0828 -0.0348  0.0853
  814YOPS   C2B12258  16.665   6.001   7.120  0.1504 -0.0574 -0.3693
  814YOPS   D3B12259  16.903   6.368   7.259  0.0581  0.1181 -0.0750
  814YOPS   C4B12260  17.326   6.355   7.384 -0.3234 -0.0698 -0.0059
  815YOPS   CNO12261  11.102  14.846   6.239 -0.1579 -0.0504  0.0648
  815YOPS   PO412262  11.402  14.948   5.926 -0.1531  0.1212  0.1231
  815YOPS   GL112263  11.549  15.194   6.276  0.0096  0.1172  0.0622
  815YOPS   GL212264  11.737  15.392   6.559  0.2247  0.1691  0.3217
  815YOPS   C1A12265  11.244  15.270   6.594 -0.3790  0.2409  0.0320
  815YOPS   D2A12266  11.207  15.155   7.113 -0.0495  0.0936 -0.1848
  815YOPS   C3A12267  11.282  15.089   7.519 -0.1326  0.0748  0.0985
  815YOPS   C4A12268  11.047  15.296   7.922  0.1122  0.1239 -0.1671
  815YOPS   C1B12269  11.615  15.255   6.937  0.0983 -0.1228 -0.0698
  815YOPS   C2B12270  11.692  15.270   7.327 -0.3962 -0.0824 -0.0862
  815YOPS   D3B12271  11.866  15.059   7.596 -0.1785 -0.2508  0.0464
  815YOPS   C4B12272  12.398  15.057   7.800 -0.0006  0.0323 -0.1589
  816YOPS   CNO12273  15.124   5.361   6.610 -0.0239  0.0241 -0.1891
  816YOPS   PO412274  15.535   5.344   6.473  0.2806  0.0467 -0.0989
  816YOPS   GL112275  15.638   5.401   6.845  0.0381  0.2209 -0.0492
  816YOPS   GL212276  15.536   5.154   6.948  0.1625 -0.0052 -0.0601
  816YOPS   C1A12277  15.800   5.663   7.114  0.3478 -0.0020 -0.0397
  816YOPS   D2A12278  15.848   5.885   7.533 -0.2033 -0.0320  0.1297
  816YOPS   C3A12279  15.929   5.717   7.944  0.0916 -0.2921 -0.0017
  816YOPS   C4A12280  15.969   5.770   8.340  0.1285 -0.1191  0.1533
  816YOPS   C1B12281  15.799   5.048   7.282 -0.4231  0.0569 -0.1927
  816YOPS   C2B12282  15.987   4.842   7.613 -0.0989  0.0728  0.1013
  816YOPS   D3B12283  15.993   4.738   8.066 -0.3754 -0.1967 -0.1772
  816YOPS   C4B12284  16.062   4.929   8.447  0.0505 -0.1079 -0.3469
  817YOPS   CNO12285  17.782   7.629   6.084  0.0474  0.0039  0.1961
  817YOPS   PO412286  17.382   7.664   5.888 -0.1534 -0.0127 -0.0539
  817YOPS   GL112287  17.279   7.453   6.273 -0.0415 -0.1781 -0.2059
  817YOPS   GL212288  17.484   7.301   6.404 -0.1032 -0.1909 -0.0715
  817YOPS   C1A12289  17.165   7.685   6.757  0.2247  0.0679  0.1776
  817YOPS   D2A12290  17.262   7.773   7.199  0.0734  0.1743  0.1415
  817YOPS   C3A12291  17.269   7.661   7.582 -0.2142  0.1422  0.0613
  817YOPS   C4A12292  17.581   7.336   7.900 -0.0051  0.0124 -0.0604
  817YOPS   C1B12293  17.775   7.497   6.602  0.3293  0.2716 -0.0417
  817YOPS   C2B12294  18.147   7.370   6.829 -0.1965 -0.2341 -0.1348
  817YOPS   D3B12295  18.562   7.356   6.954 -0.0716  0.1393  0.0151
  817YOPS   C4B12296  18.599   7.713   7.279 -0.0755 -0.1778 -0.1156
  818YOPS   CNO12297   9.785   2.834   6.283 -0.0194 -0.0389 -0.3341
  818YOPS   PO412298   9.684   3.117   5.907  0.4255  0.0074 -0.0813
  818YOPS   GL112299   9.434   3.131   6.285 -0.1161 -0.0169  0.1044
  818YOPS   GL212300   9.135   2.980   6.363  0.1410  0.1242  0.3261
  818YOPS   C1A12301   9.479   2.906   6.718  0.2112  0.1037 -0.1594
  818YOPS   D2A12302   9.344   3.026   7.115 -0.0443 -0.4074 -0.3067
  818YOPS   C3A12303   9.389   3.218   7.531  0.0112 -0.3335 -0.2425
  818YOPS   C4A12304   9.670   3.187   7.808 -0.1717 -0.0861 -0.0253
  818YOPS   C1B12305   8.960   3.152   6.701  0.1495  0.0424  0.0945
  818YOPS   C2B12306   8.933   3.330   7.212 -0.2416 -0.2815  0.1858
  818YOPS   D3B12307   8.870   3.301   7.660 -0.2916  0.3238  0.3374
  818YOPS   C4B12308   9.142   3.476   7.973  0.0519  0.2790  0.3396
  819YOPS   CNO12309   6.451   9.102   5.460 -0.0102  0.0778  0.2563
  819YOPS   PO412310   6.272   9.288   5.850  0.0162  0.0130  0.4383
  819YOPS   GL112311   6.474   9.542   6.234  0.1549  0.1960 -0.0171
  819YOPS   GL212312   6.779   9.387   6.382  0.0739  0.2466 -0.1022
  819YOPS   C1A12313   6.289   9.432   6.697  0.0633  0.0963  0.1791
  819YOPS   D2A12314   6.323   9.563   7.095 -0.0535  0.0117  0.1077
  819YOPS   C3A12315   6.394   9.524   7.485 -0.1851  0.2561  0.2639
  819YOPS   C4A12316   6.739   9.239   7.556  0.2832 -0.3170 -0.0506
  819YOPS   C1B12317   6.679   9.189   6.699 -0.1090  0.3043 -0.3102
  819YOPS   C2B12318   6.644   9.104   7.100  0.0117 -0.1632  0.4859
  819YOPS   D3B12319   6.819   8.768   7.361  0.0732 -0.2303 -0.2109
  819YOPS   C4B12320   6.719   8.389   7.289  0.2687 -0.3759 -0.1002
  820YOPS   CNO12321   6.991   5.644   5.789  0.1721  0.1772 -0.0517
  820YOPS   PO412322   6.925   5.557   6.279  0.1164  0.1309 -0.3645
  820YOPS   GL112323   6.872   5.876   6.572  0.0818 -0.2332 -0.2085
  820YOPS   GL212324   6.676   5.454   6.689  0.0038  0.3007 -0.1705
  820YOPS   C1A12325   6.983   5.917   6.992 -0.0000 -0.4206 -0.0726
  820YOPS   D2A12326   7.087   5.791   7.476  0.3044 -0.0368  0.0559
  820YOPS   C3A12327   6.967   5.872   7.876 -0.0811  0.0526  0.1829
  820YOPS   C4A12328   7.146   6.093   8.213  0.1321 -0.2275  0.0317
  820YOPS   C1B12329   6.849   5.440   7.113 -0.4932  0.0072 -0.1355
  820YOPS   C2B12330   6.876   5.166   7.568 -0.1669 -0.2129 -0.2590
  820YOPS   D3B12331   6.966   4.756   7.599 -0.0209  0.2995  0.0923
  820YOPS   C4B12332   6.935   4.689   8.102  0.3322  0.1311 -0.1415
  821YOPS   CNO12333  11.285   6.196   5.612  0.0256  0.0313  0.2659
  821YOPS   PO412334  11.347   6.124   6.154  0.1425 -0.0774 -0.2078
  821YOPS   GL112335  11.343   5.991   6.568  0.0626  0.2337  0.0995
  821YOPS   GL212336  11.317   6.224   6.841 -0.0951 -0.1661 -0.1691
  821YOPS   C1A12337  11.313   5.765   6.988  0.1519 -0.0393 -0.1019
  821YOPS   D2A12338  11.199   5.627   7.365  0.1133  0.2512  0.0507
  821YOPS   C3A12339  11.269   5.359   7.772 -0.1522  0.1580 -0.1719
  821YOPS   C4A12340  11.341   5.602   8.173  0.0492 -0.2104  0.2628
  821YOPS   C1B12341  11.266   6.385   7.208 -0.0465  0.0090  0.0613
  821YOPS   C2B12342  11.293   6.502   7.613 -0.1780  0.2537 -0.2130
  821YOPS   D3B12343  11.680   6.325   7.711 -0.0623  0.0888 -0.2481
  821YOPS   C4B12344  11.795   6.382   8.027  0.0294  0.0462 -0.1446
  822YOPS   CNO12345   6.938   3.362   5.778 -0.0379 -0.1352 -0.0009
  822YOPS   PO412346   7.030   3.591   6.128 -0.1224 -0.2037  0.1193
  822YOPS   GL112347   6.931   3.696   6.547  0.0587  0.0482  0.2346
  822YOPS   GL212348   6.688   3.516   6.710  0.2939  0.1963  0.1251
  822YOPS   C1A12349   6.899   3.844   6.978  0.1846 -0.0430  0.0242
  822YOPS   D2A12350   6.777   3.864   7.365 -0.2096 -0.0363  0.6264
  822YOPS   C3A12351   6.802   3.678   7.704 -0.2137  0.0121 -0.1239
  822YOPS   C4A12352   6.882   3.201   7.710 -0.1027 -0.2274  0.0420
  822YOPS   C1B12353   6.551   3.463   7.067 -0.0789 -0.3432 -0.0630
  822YOPS   C2B12354   6.506   3.326   7.424  0.1016 -0.0150  0.0661
  822YOPS   D3B12355   6.257   3.187   7.689  0.4958 -0.1825 -0.2604
  822YOPS   C4B12356   6.361   3.088   8.157 -0.3942  0.0332  0.1008
  823YOPS   CNO12357   2.008   5.430   6.180  0.1739  0.0915 -0.2207
  823YOPS   PO412358   1.768   5.676   6.299  0.0855 -0.1558 -0.1836
  823YOPS   GL112359   1.875   5.437   6.708  0.1046 -0.0895 -0.0287
  823YOPS   GL212360   2.193   5.472   6.732 -0.0424  0.2506 -0.0537
  823YOPS   C1A12361   1.862   5.470   7.188 -0.2518 -0.1371 -0.3239
  823YOPS   D2A12362   1.989   5.334   7.576  0.0405  0.1272  0.0903
  823YOPS   C3A12363   2.242   5.114   7.824 -0.1175 -0.2676 -0.0857
  823YOPS   C4A12364   1.940   5.019   8.220 -0.0379 -0.2599 -0.0768
  823YOPS   C1B12365   2.287   5.697   7.126 -0.2300 -0.0108 -0.0408
  823YOPS   C2B12366   2.347   5.642   7.587  0.1993 -0.1867  0.1867
  823YOPS   D3B12367   2.188   5.661   7.875 -0.0418  0.0862  0.0191
  823YOPS   C4B12368   2.573   5.833   8.022 -0.0248 -0.1898  0.1282
  824YOPS   CNO12369   0.467  11.713   6.025 -0.0963  0.0206  0.1766
  824YOPS   PO412370   0.837  11.462   6.275  0.1372 -0.1783  0.2099
  824YOPS   GL112371   1.101  11.447   6.520  0.0576 -0.2371  0.0431
  824YOPS   GL212372   1.422  11.449   6.644 -0.0118  0.5022 -0.0141
  824YOPS   C1A12373   0.901  11.276   6.968  0.0057  0.0213 -0.0903
  824YOPS   D2A12374   0.756  11.187   7.402 -0.0576  0.0322  0.3508
  824YOPS   C3A12375   0.915  11.241   7.799  0.1297  0.1643 -0.0801
  824YOPS   C4A12376   0.654  11.304   8.066  0.0222 -0.1463 -0.2062
  824YOPS   C1B12377   1.412  11.341   7.055 -0.0421  0.1317 -0.2824
  824YOPS   C2B12378   1.284  11.143   7.401 -0.1621 -0.1040  0.0341
  824YOPS   D3B12379   1.402  11.079   7.860  0.3535 -0.2372  0.0209
  824YOPS   C4B12380   1.501  10.667   7.706  0.2613 -0.0527 -0.0271
  825YOPS   CNO12381  14.807   6.329   5.777 -0.0060 -0.2083 -0.0220
  825YOPS   PO412382  14.788   6.083   6.111 -0.0809 -0.3019  0.0671
  825YOPS   GL112383  14.765   6.334   6.502  0.0599 -0.0241 -0.1887
  825YOPS   GL212384  14.577   6.215   6.678 -0.1312  0.1261 -0.0214
  825YOPS   C1A12385  14.945   6.293   7.034 -0.2774  0.0173 -0.0670
  825YOPS   D2A12386  15.089   6.396   7.439 -0.1846  0.0594 -0.1740
  825YOPS   C3A12387  14.852   6.194   7.861  0.1034  0.0492  0.2971
  825YOPS   C4A12388  14.903   5.726   7.937  0.0688 -0.2819  0.2529
  825YOPS   C1B12389  14.431   6.355   7.070  0.1401 -0.1749 -0.0086
  825YOPS   C2B12390  14.590   6.391   7.502 -0.1750 -0.1207 -0.1491
  825YOPS   D3B12391  14.482   6.523   7.976 -0.2305  0.1802 -0.2031
  825YOPS   C4B12392  14.534   6.164   8.294 -0.0305  0.2757 -0.1341
  826YOPS   CNO12393   8.499  10.204   5.736  0.1039 -0.1171  0.0893
  826YOPS   PO412394   8.759   9.938   5.879 -0.3470 -0.1026  0.0860
  826YOPS   GL112395   8.773  10.100   6.358 -0.2246  0.0122  0.3054
  826YOPS   GL212396   8.949   9.845   6.415 -0.4120  0.1134 -0.1001
  826YOPS   C1A12397   8.496  10.194   6.620 -0.0470 -0.1225  0.2525
  826YOPS   D2A12398   8.487  10.379   6.906 -0.2270  0.1264  0.0557
  826YOPS   C3A12399   8.472  10.578   7.308  0.1638 -0.2653 -0.0945
  826YOPS   C4A12400   8.719  10.556   7.634  0.2003 -0.1953  0.1270
  826YOPS   C1B12401   8.844   9.912   6.952  0.2252 -0.1737 -0.2261
  826YOPS   C2B12402   8.779   9.980   7.342  0.1400  0.0923  0.0070
  826YOPS   D3B12403   8.833  10.087   7.753  0.3582  0.1516  0.1220
  826YOPS   C4B12404   8.594  10.032   8.122 -0.1701  0.0879 -0.0698
  827YOPS   CNO12405   3.006  13.610   5.586  0.2823 -0.1626  0.0954
  827YOPS   PO412406   2.948  13.389   5.971 -0.0785  0.2473 -0.0389
  827YOPS   GL112407   2.773  13.505   6.373 -0.2571 -0.1398  0.1830
  827YOPS   GL212408   2.556  13.213   6.561 -0.1088  0.1144 -0.1275
  827YOPS   C1A12409   2.865  13.469   6.844  0.2088  0.2898 -0.0081
  827YOPS   D2A12410   2.694  13.385   7.240  0.1799  0.1515 -0.5819
  827YOPS   C3A12411   2.817  13.214   7.557 -0.2858  0.0104 -0.1837
  827YOPS   C4A12412   2.601  13.263   7.937 -0.0848  0.0666 -0.1417
  827YOPS   C1B12413   2.187  13.272   6.794 -0.1485  0.1356  0.0132
  827YOPS   C2B12414   2.145  13.177   7.252  0.2648  0.0967 -0.0219
  827YOPS   D3B12415   2.194  13.380   7.607  0.1795  0.0694  0.1718
  827YOPS   C4B12416   1.972  13.361   7.904  0.2764 -0.3614 -0.0148
  828YOPS   CNO12417  15.402  17.687   6.269 -0.3452  0.0243  0.2774
  828YOPS   PO412418  14.978  17.843   6.353  0.0815  0.2533 -0.0952
  828YOPS   GL112419  14.852  17.852   6.721 -0.3398  0.2760 -0.0247
  828YOPS   GL212420  14.531  18.055   6.649 -0.3484  0.2053  0.0390
  828YOPS   C1A12421  14.562  17.629   7.144 -0.0569 -0.2701  0.1517
  828YOPS   D2A12422  14.678  17.272   7.271  0.3607 -0.2358 -0.0031
  828YOPS   C3A12423  14.933  16.904   7.452 -0.2062 -0.0993 -0.1250
  828YOPS   C4A12424  15.143  16.878   7.814 -0.0917 -0.1869  0.0268
  828YOPS   C1B12425  14.378  18.083   7.138 -0.4366 -0.0617  0.0858
  828YOPS   C2B12426  14.192  18.183   7.543 -0.0596 -0.1206  0.1291
  828YOPS   D3B12427  14.473  18.158   7.916 -0.2875  0.0090 -0.2597
  828YOPS   C4B12428  14.231  18.192   8.192  0.1951  0.1187  0.0297
  829YOPS   CNO12429   0.047   6.410   6.022  0.0966 -0.0069 -0.0017
  829YOPS   PO412430   0.319   6.138   5.782  0.1991 -0.5342  0.3489
  829YOPS   GL112431   0.461   6.067   6.210 -0.1686  0.1008 -0.0888
  829YOPS   GL212432   0.763   6.055   6.278 -0.2029  0.5038 -0.1944
  829YOPS   C1A12433   0.380   5.797   6.608  0.0490  0.1240 -0.1038
  829YOPS   D2A12434   0.134   5.877   6.917 -0.1756 -0.0611  0.0992
  829YOPS   C3A12435  -0.224   5.911   7.134 -0.3502  0.2275 -0.5368
  829YOPS   C4A12436  -0.540   5.578   6.926 -0.1074 -0.0141 -0.0101
  829YOPS   C1B12437   0.826   5.938   6.589  0.1115  0.0350  0.0792
  829YOPS   C2B12438   0.595   5.958   7.081  0.1283  0.3222 -0.0225
  829YOPS   D3B12439   0.708   5.925   7.445  0.2664 -0.1125 -0.1734
  829YOPS   C4B12440   0.531   6.091   7.833 -0.0830 -0.0320  0.1184
  830YOPS   CNO12441   8.243   9.365   5.416  0.0179 -0.1041 -0.2324
  830YOPS   PO412442   8.368   9.393   5.838 -0.1569 -0.1079  0.0629
  830YOPS   GL112443   8.663   9.505   6.129  0.1228  0.0412 -0.0529
  830YOPS   GL212444   8.532   9.544   6.396 -0.1527  0.0298  0.2015
  830YOPS   C1A12445   8.930   9.321   6.520 -0.0318  0.0808  0.3229
  830YOPS   D2A12446   9.061   9.361   6.816 -0.0134 -0.0168 -0.1579
  830YOPS   C3A12447   9.070   9.417   7.182 -0.1679  0.1497  0.1249
  830YOPS   C4A12448   9.355   9.174   7.412  0.1842 -0.0915  0.1204
  830YOPS   C1B12449   8.590   9.465   6.890 -0.1790 -0.0320 -0.0230
  830YOPS   C2B12450   8.518   9.538   7.359  0.0164 -0.1136 -0.0049
  830YOPS   D3B12451   8.422   9.735   7.771  0.0255 -0.0946  0.1607
  830YOPS   C4B12452   8.154   9.543   8.174 -0.1359 -0.0017  0.0068
  831YOPS   CNO12453   9.127   8.342   5.924  0.0030 -0.3084 -0.0803
  831YOPS   PO412454   9.084   8.737   6.039 -0.1706  0.1910 -0.0932
  831YOPS   GL112455   9.335   8.806   6.375 -0.3079  0.1408 -0.3156
  831YOPS   GL212456   9.478   9.109   6.453  0.1100 -0.0405  0.0678
  831YOPS   C1A12457   9.191   8.841   6.802  0.1966 -0.0020 -0.2154
  831YOPS   D2A12458   9.144   8.764   7.251 -0.2844  0.0201  0.2661
  831YOPS   C3A12459   9.197   8.755   7.772  0.0185 -0.0964 -0.2455
  831YOPS   C4A12460   9.305   9.190   7.933 -0.0131  0.1445  0.0827
  831YOPS   C1B12461   9.549   9.191   6.868 -0.1905 -0.1971  0.0151
  831YOPS   C2B12462   9.549   9.526   7.066 -0.0120  0.2882  0.2633
  831YOPS   D3B12463   9.645   9.586   7.449  0.0064 -0.1235  0.0780
  831YOPS   C4B12464   9.285   9.658   7.710  0.0591  0.0239 -0.0581
  832YOPS   CNO12465  16.789  10.827   6.137 -0.2919 -0.0767 -0.2378
  832YOPS   PO412466  17.284  10.789   6.379 -0.1169 -0.0507  0.4079
  832YOPS   GL112467  17.547  10.820   6.699 -0.1405  0.1625 -0.1307
  832YOPS   GL212468  17.952  10.748   6.650 -0.0006 -0.1892 -0.1072
  832YOPS   C1A12469  17.642  10.570   7.032 -0.0242 -0.1187 -0.1442
  832YOPS   D2A12470  17.635  10.641   7.485  0.0539 -0.1373  0.0828
  832YOPS   C3A12471  17.505  10.873   7.900 -0.2903 -0.1100 -0.0973
  832YOPS   C4A12472  17.366  10.679   8.224 -0.3199 -0.2076  0.0512
  832YOPS   C1B12473  18.074  11.040   7.007  0.0110  0.0367 -0.1762
  832YOPS   C2B12474  17.939  11.144   7.489  0.1822 -0.2610 -0.0380
  832YOPS   D3B12475  17.990  10.920   7.848  0.1485 -0.3238 -0.0415
  832YOPS   C4B12476  17.907  10.535   7.894 -0.2258  0.2619  0.0418
  833YOPS   CNO12477   8.637   2.921   5.721 -0.0425  0.0138 -0.0237
  833YOPS   PO412478   8.202   2.970   5.898  0.0527  0.2674  0.1129
  833YOPS   GL112479   8.129   2.621   6.248 -0.2889 -0.2814 -0.0438
  833YOPS   GL212480   7.945   2.805   6.410 -0.1381  0.0777  0.2564
  833YOPS   C1A12481   8.055   2.404   6.590  0.1333  0.3216 -0.0671
  833YOPS   D2A12482   8.140   2.363   6.998 -0.1961 -0.3072  0.2216
  833YOPS   C3A12483   7.983   2.315   7.301 -0.1250 -0.4645 -0.4428
  833YOPS   C4A12484   8.025   2.164   7.739 -0.0837  0.0073  0.0236
  833YOPS   C1B12485   7.883   2.772   6.849 -0.3270 -0.1095 -0.1312
  833YOPS   C2B12486   7.910   2.808   7.282 -0.0640  0.0742  0.0347
  833YOPS   D3B12487   8.031   2.789   7.742  0.0335  0.1429 -0.3253
  833YOPS   C4B12488   8.064   3.275   7.690  0.2923  0.2960 -0.0698
  834YOPS   CNO12489  15.228  11.124   5.856 -0.1237 -0.0364 -0.1246
  834YOPS   PO412490  15.292  11.071   6.211 -0.0204 -0.0228 -0.1069
  834YOPS   GL112491  15.391  10.885   6.563  0.0714 -0.2295  0.1994
  834YOPS   GL212492  15.733  10.770   6.542  0.0545 -0.0645  0.0124
  834YOPS   C1A12493  15.520  10.815   7.032 -0.0054  0.0765 -0.1084
  834YOPS   D2A12494  15.481  10.809   7.432 -0.0315  0.1635  0.0148
  834YOPS   C3A12495  15.566  10.523   7.797 -0.1336  0.1981  0.0502
  834YOPS   C4A12496  15.778  10.237   8.037 -0.0696  0.3378 -0.4059
  834YOPS   C1B12497  15.810  10.492   6.894  0.2714 -0.1768 -0.4894
  834YOPS   C2B12498  15.586  10.169   7.164  0.1040  0.1849 -0.0603
  834YOPS   D3B12499  15.437  10.069   7.595  0.0546 -0.0981  0.0689
  834YOPS   C4B12500  15.058  10.142   7.843  0.0190  0.1300  0.1750
  835POPE   NH312501  12.996  13.280   6.280 -0.1872  0.4868  0.0451
  835POPE   PO412502  12.593  13.235   6.128 -0.0529  0.0619  0.0306
  835POPE   GL112503  12.532  13.157   6.463  0.0419  0.1410 -0.2151
  835POPE   GL212504  12.731  12.891   6.564 -0.0018  0.4231  0.0003
  835POPE   C1A12505  12.632  13.308   6.821  0.0881  0.0028  0.3194
  835POPE   D2A12506  12.609  13.598   7.202 -0.1137  0.2946 -0.0578
  835POPE   C3A12507  12.225  13.525   7.552 -0.1954  0.2981  0.0344
  835POPE   C4A12508  11.817  13.396   7.637 -0.1558 -0.0507 -0.0140
  835POPE   C1B12509  12.866  12.932   7.062 -0.1672 -0.1077  0.1462
  835POPE   C2B12510  12.749  13.007   7.513 -0.1569 -0.1083  0.0171
  835POPE   C3B12511  12.750  13.035   7.896 -0.0868  0.1575  0.0453
  835POPE   C4B12512  12.674  13.045   8.340  0.1934 -0.2167  0.0786
  836POPE   NH312513   7.405   5.368   6.205 -0.4036 -0.0978 -0.1194
  836POPE   PO412514   7.893   5.215   6.379 -0.2591 -0.0740 -0.1685
  836POPE   GL112515   7.765   5.303   6.807  0.0561 -0.0452  0.0939
  836POPE   GL212516   7.702   5.612   6.707  0.2034  0.1050 -0.0901
  836POPE   C1A12517   7.889   5.155   7.253  0.1940 -0.0918  0.0727
  836POPE   D2A12518   7.792   5.085   7.699  0.0473  0.0468 -0.0386
  836POPE   C3A12519   7.754   5.316   8.010  0.2438 -0.3335 -0.0263
  836POPE   C4A12520   7.550   5.448   8.342 -0.1331 -0.0793 -0.2564
  836POPE   C1B12521   7.473   5.879   6.791 -0.0366  0.0434 -0.0542
  836POPE   C2B12522   7.470   5.933   7.225 -0.3422  0.1088 -0.2061
  836POPE   C3B12523   7.400   6.130   7.569 -0.0380  0.0801 -0.0028
  836POPE   C4B12524   7.453   6.357   7.929  0.0658  0.0169  0.1215
  837POPE   NH312525   2.501   6.568   6.331 -0.3680 -0.0757  0.1527
  837POPE   PO412526   2.635   6.943   6.048  0.4030 -0.1649  0.3505
  837POPE   GL112527   2.380   7.069   6.321  0.0669 -0.0066 -0.0259
  837POPE   GL212528   2.120   6.891   6.473 -0.0894  0.0802 -0.0633
  837POPE   C1A12529   2.313   7.432   6.633  0.1741 -0.0513  0.1530
  837POPE   D2A12530   2.079   7.538   6.943  0.3309  0.1034 -0.2760
  837POPE   C3A12531   2.011   7.989   6.827 -0.0116 -0.1057 -0.1841
  837POPE   C4A12532   2.168   8.220   7.108  0.2594 -0.1229 -0.0780
  837POPE   C1B12533   2.101   6.983   6.907  0.0368  0.1347  0.0272
  837POPE   C2B12534   2.040   7.064   7.298  0.0292 -0.4887 -0.0261
  837POPE   C3B12535   2.062   7.425   7.448 -0.2822  0.0148 -0.0836
  837POPE   C4B12536   1.944   7.833   7.389 -0.0996 -0.0527 -0.1621
  838POPE   NH312537   4.828   9.106   5.988  0.1844 -0.1102 -0.0840
  838POPE   PO412538   4.690   9.442   5.827  0.1539 -0.1313  0.1450
  838POPE   GL112539   4.518   9.481   6.257 -0.1882  0.0605 -0.0721
  838POPE   GL212540   4.562   9.226   6.417 -0.1279 -0.0967 -0.0125
  838POPE   C1A12541   4.449   9.589   6.748 -0.0898  0.1468  0.0718
  838POPE   D2A12542   4.377   9.703   7.057  0.2136 -0.2188  0.1238
  838POPE   C3A12543   4.699   9.543   7.282  0.0049 -0.2491 -0.1426
  838POPE   C4A12544   4.911   9.320   7.553 -0.0500  0.1472  0.1237
  838POPE   C1B12545   4.767   9.231   6.853  0.0579 -0.2520  0.3794
  838POPE   C2B12546   4.940   9.032   7.094  0.0116  0.0224 -0.2299
  838POPE   C3B12547   5.189   8.747   7.271 -0.1401  0.2571  0.0019
  838POPE   C4B12548   5.280   8.496   7.384 -0.2979 -0.1244 -0.1711
  839POPE   NH312549   1.961  15.014   5.971 -0.2125  0.1266  0.1075
  839POPE   PO412550   1.712  14.711   6.091 -0.1896  0.0879  0.0727
  839POPE   GL112551   1.502  14.634   6.385  0.1361 -0.0781 -0.1066
  839POPE   GL212552   1.181  14.687   6.377  0.4048  0.0316  0.0566
  839POPE   C1A12553   1.382  14.622   6.827  0.0125 -0.4320  0.1296
  839POPE   D2A12554   1.405  14.304   7.094 -0.0769  0.0598  0.1414
  839POPE   C3A12555   1.558  14.165   7.455 -0.5073 -0.0375 -0.4535
  839POPE   C4A12556   1.621  14.107   7.882 -0.0229 -0.1744  0.1392
  839POPE   C1B12557   1.066  15.169   6.590  0.1146  0.0989 -0.1228
  839POPE   C2B12558   0.887  15.219   6.993 -0.0551 -0.1081 -0.1742
  839POPE   C3B12559   0.724  15.348   7.317  0.2741  0.3160  0.1518
  839POPE   C4B12560   0.665  15.303   7.676 -0.1697 -0.0869 -0.2511
  840POPE   NH312561   5.843   0.444   5.892 -0.2890 -0.0040  0.0820
  840POPE   PO412562   5.715   0.821   5.937 -0.0994  0.2187 -0.3568
  840POPE   GL112563   5.727   0.912   6.374 -0.1636 -0.0425  0.1537
  840POPE   GL212564   5.910   0.740   6.422 -0.0957 -0.0337  0.0283
  840POPE   C1A12565   5.422   0.831   6.694  0.1627  0.0853  0.0272
  840POPE   D2A12566   5.270   0.795   7.117 -0.2836  0.1874 -0.2338
  840POPE   C3A12567   4.952   0.549   7.257 -0.3717 -0.0887  0.1393
  840POPE   C4A12568   4.903   0.652   7.715  0.4114  0.2194  0.1431
  840POPE   C1B12569   5.859   0.449   6.795 -0.1992  0.1768  0.1261
  840POPE   C2B12570   5.807   0.415   7.225  0.0461 -0.4310 -0.2764
  840POPE   C3B12571   5.724   0.154   7.627 -0.0501 -0.0447  0.0827
  840POPE   C4B12572   5.365   0.021   7.945  0.1346  0.1303 -0.1044
  841POPE   NH312573  15.882  16.315   6.290  0.2676  0.1667  0.1033
  841POPE   PO412574  15.574  16.570   6.379  0.1834 -0.2341  0.0129
  841POPE   GL112575  15.749  16.473   6.717  0.4529  0.1079 -0.1229
  841POPE   GL212576  15.573  16.386   6.906 -0.4072 -0.1879 -0.0242
  841POPE   C1A12577  16.092  16.310   6.917  0.0367 -0.0902 -0.3220
  841POPE   D2A12578  16.430  16.461   7.080 -0.0696  0.0454 -0.2247
  841POPE   C3A12579  16.235  16.526   7.535  0.0282  0.0594 -0.2438
  841POPE   C4A12580  16.265  16.389   8.010  0.2387 -0.1336 -0.1103
  841POPE   C1B12581  15.746  16.365   7.283 -0.1491  0.0574  0.0299
  841POPE   C2B12582  15.792  16.319   7.736 -0.5383 -0.0721 -0.2221
  841POPE   C3B12583  15.512  16.048   7.916  0.4036  0.0672 -0.1255
  841POPE   C4B12584  15.698  15.615   7.922 -0.1277  0.0713  0.0901
  842POPE   NH312585   3.900  12.615   6.253 -0.2233  0.0879  0.0703
  842POPE   PO412586   4.168  12.359   6.170  0.0574 -0.2938 -0.2436
  842POPE   GL112587   4.368  12.273   6.544  0.1370  0.2175 -0.1851
  842POPE   GL212588   4.649  12.241   6.451  0.0958  0.0810 -0.1642
  842POPE   C1A12589   4.306  12.103   6.898  0.1871  0.0299  0.1530
  842POPE   D2A12590   4.319  12.075   7.367  0.0285 -0.0395 -0.0919
  842POPE   C3A12591   4.664  11.937   7.563 -0.0678  0.1786 -0.0670
  842POPE   C4A12592   5.088  11.833   7.790  0.0417 -0.0460 -0.0073
  842POPE   C1B12593   4.766  12.125   6.783 -0.2021  0.0349 -0.0651
  842POPE   C2B12594   4.763  12.222   7.160 -0.1547 -0.2549  0.0862
  842POPE   C3B12595   5.070  12.177   7.444 -0.1445 -0.0242 -0.0422
  842POPE   C4B12596   5.398  12.374   7.580  0.3376  0.0016 -0.0494
  843POPE   NH312597  12.937   5.109   6.211 -0.1375  0.1433  0.2197
  843POPE   PO412598  12.882   4.690   6.392  0.1397 -0.1682 -0.2967
  843POPE   GL112599  12.899   4.553   6.820  0.0452  0.0366 -0.1082
  843POPE   GL212600  13.261   4.564   6.911  0.3471  0.1919  0.0448
  843POPE   C1A12601  12.928   4.598   7.369 -0.0928  0.0173  0.4974
  843POPE   D2A12602  13.109   4.463   7.784  0.1869  0.1842  0.0692
  843POPE   C3A12603  12.818   4.594   8.109 -0.0963 -0.1425 -0.0085
  843POPE   C4A12604  12.892   4.634   8.497  0.0170 -0.2582  0.1924
  843POPE   C1B12605  13.390   4.606   7.380  0.0138  0.0579 -0.0958
  843POPE   C2B12606  13.553   4.682   7.806 -0.0707 -0.1048  0.0962
  843POPE   C3B12607  13.291   4.741   8.212 -0.1599  0.2722  0.4500
  843POPE   C4B12608  13.400   4.444   8.509  0.1364 -0.0807  0.3289
  844POPE   NH312609   6.663   4.280   6.064 -0.0356 -0.0803 -0.0807
  844POPE   PO412610   6.935   4.527   6.324  0.2920  0.0017  0.0011
  844POPE   GL112611   6.932   4.176   6.524 -0.0401  0.2583  0.1164
  844POPE   GL212612   6.654   4.096   6.540  0.1303 -0.1535 -0.1298
  844POPE   C1A12613   7.332   3.993   6.700 -0.0241 -0.0431  0.4640
  844POPE   D2A12614   7.715   3.689   6.828 -0.2954 -0.0078  0.0140
  844POPE   C3A12615   8.169   3.857   6.981 -0.4001 -0.1222  0.2184
  844POPE   C4A12616   8.559   3.919   7.140 -0.0528 -0.1613 -0.0997
  844POPE   C1B12617   6.562   4.167   7.015  0.0646 -0.2297 -0.2614
  844POPE   C2B12618   6.438   4.287   7.437  0.3978  0.0780 -0.1823
  844POPE   C3B12619   6.219   4.233   7.838 -0.1637  0.0407  0.1171
  844POPE   C4B12620   6.340   4.060   8.183  0.0654  0.2065 -0.1071
  845POPE   NH312621  16.285  17.569   6.254  0.1049  0.0562  0.2895
  845POPE   PO412622  15.915  17.434   6.440 -0.0199 -0.0575 -0.0903
  845POPE   GL112623  15.725  17.542   6.713 -0.2787 -0.1420 -0.3879
  845POPE   GL212624  15.406  17.680   6.766  0.2251  0.0538  0.0667
  845POPE   C1A12625  15.546  17.349   7.093 -0.2407 -0.0422  0.3021
  845POPE   D2A12626  15.477  17.109   7.396  0.0826 -0.2393 -0.1106
  845POPE   C3A12627  15.428  16.672   7.411 -0.0006 -0.1058  0.3749
  845POPE   C4A12628  15.330  16.343   7.500  0.0819  0.0520  0.1263
  845POPE   C1B12629  15.081  17.551   7.056  0.2669 -0.0934 -0.2063
  845POPE   C2B12630  15.064  17.426   7.522  0.2367  0.3403  0.0706
  845POPE   C3B12631  15.065  17.453   7.904  0.0012 -0.0299 -0.2149
  845POPE   C4B12632  15.024  17.227   8.229  0.0362 -0.0030 -0.3966
  846POPE   NH312633  10.830   1.792   6.203 -0.0305 -0.0043  0.1997
  846POPE   PO412634  10.750   2.251   6.110  0.0741  0.2976  0.3358
  846POPE   GL112635  10.813   2.157   6.571 -0.2153 -0.3659 -0.1636
  846POPE   GL212636  10.663   1.846   6.648 -0.1915  0.0180 -0.2066
  846POPE   C1A12637  10.754   2.405   6.950  0.0490 -0.0233 -0.2832
  846POPE   D2A12638  10.613   2.636   7.409  0.3506 -0.1075 -0.0388
  846POPE   C3A12639  10.363   2.366   7.659  0.2062  0.0828 -0.0775
  846POPE   C4A12640  10.325   2.023   7.767  0.0271 -0.2278  0.1122
  846POPE   C1B12641  10.673   1.945   7.056 -0.2855 -0.2089  0.1558
  846POPE   C2B12642  10.745   2.166   7.451 -0.0020  0.2737  0.2067
  846POPE   C3B12643  10.828   2.169   7.899  0.0498 -0.0825 -0.3087
  846POPE   C4B12644  10.871   2.357   8.305 -0.1188 -0.0687 -0.0932
  847POPE   NH312645  13.668   3.327   6.129  0.1426 -0.2251  0.1780
  847POPE   PO412646  13.884   2.880   6.303 -0.0707  0.2736  0.0969
  847POPE   GL112647  13.962   2.870   6.708  0.2584 -0.4114 -0.0819
  847POPE   GL212648  13.912   2.630   6.867 -0.0751 -0.1647  0.0869
  847POPE   C1A12649  14.019   3.007   7.150 -0.0698 -0.2129  0.2123
  847POPE   D2A12650  14.067   2.907   7.533  0.0534 -0.0163  0.3049
  847POPE   C3A12651  13.886   2.563   7.739  0.3913 -0.0189 -0.0550
  847POPE   C4A12652  13.682   2.193   7.902 -0.2495  0.1053  0.0577
  847POPE   C1B12653  14.013   2.407   7.216  0.0568 -0.0051  0.0081
  847POPE   C2B12654  14.106   2.134   7.533 -0.5671 -0.2686 -0.2757
  847POPE   C3B12655  14.040   1.896   7.912 -0.0686 -0.0891  0.2261
  847POPE   C4B12656  14.214   1.890   8.372 -0.1662  0.0971 -0.1398
  848POPE   NH312657  16.430  13.241   6.682  0.0917  0.4401  0.0420
  848POPE   PO412658  16.117  13.343   6.383 -0.3421 -0.0888  0.1878
  848POPE   GL112659  15.925  13.455   6.796  0.1378 -0.1363  0.2436
  848POPE   GL212660  15.943  13.806   6.841 -0.1405 -0.1066 -0.1774
  848POPE   C1A12661  15.837  13.544   7.243 -0.1091  0.3457 -0.0744
  848POPE   D2A12662  15.981  13.779   7.486  0.1297  0.2774 -0.1500
  848POPE   C3A12663  16.051  13.835   7.917  0.1969  0.1384 -0.1672
  848POPE   C4A12664  16.079  14.170   8.295 -0.1494 -0.0909  0.0664
  848POPE   C1B12665  15.819  14.174   7.177 -0.2628  0.0653  0.1129
  848POPE   C2B12666  15.879  14.270   7.668  0.1831  0.1544  0.2128
  848POPE   C3B12667  15.791  14.563   8.044  0.2344 -0.2837 -0.1813
  848POPE   C4B12668  15.716  14.706   8.465  0.1296 -0.1508 -0.1542
  849POPE   NH312669   3.260   7.580   6.222 -0.2664 -0.1790 -0.0775
  849POPE   PO412670   3.663   7.439   6.337  0.2626 -0.0226  0.1508
  849POPE   GL112671   3.910   7.271   6.682  0.1426  0.1945  0.0177
  849POPE   GL212672   3.698   7.393   6.899  0.1480 -0.0672 -0.1042
  849POPE   C1A12673   3.894   6.992   7.067 -0.0338  0.0399 -0.1839
  849POPE   D2A12674   3.769   7.005   7.518 -0.1773  0.0768 -0.1743
  849POPE   C3A12675   3.944   6.737   7.739 -0.2408 -0.1475  0.0454
  849POPE   C4A12676   4.340   6.473   7.885 -0.1371 -0.0094  0.1831
  849POPE   C1B12677   3.740   7.454   7.277 -0.0686  0.1745 -0.1987
  849POPE   C2B12678   3.658   7.562   7.665 -0.1021  0.0414  0.0305
  849POPE   C3B12679   3.413   7.580   7.886  0.0371 -0.1058 -0.2436
  849POPE   C4B12680   3.241   7.670   8.311 -0.0570 -0.0913  0.1237
  850POPE   NH312681  16.708   5.030   6.025  0.1227 -0.5986 -0.1652
  850POPE   PO412682  16.815   5.226   6.400  0.0607  0.0650  0.1233
  850POPE   GL112683  17.073   5.060   6.781 -0.3158  0.1612 -0.3087
  850POPE   GL212684  17.209   4.740   6.825 -0.1359 -0.1050 -0.1166
  850POPE   C1A12685  17.298   5.136   7.169 -0.2535 -0.1891 -0.0937
  850POPE   D2A12686  17.445   5.084   7.641  0.1690 -0.5107  0.1397
  850POPE   C3A12687  17.292   5.446   7.968  0.0234  0.0100 -0.1207
  850POPE   C4A12688  17.404   5.708   8.399  0.2060  0.0984  0.0404
  850POPE   C1B12689  17.287   4.632   7.199  0.1462  0.1115 -0.0130
  850POPE   C2B12690  17.430   4.349   7.423  0.2071  0.2904 -0.1217
  850POPE   C3B12691  17.296   4.103   7.840 -0.1702  0.0266  0.1127
  850POPE   C4B12692  17.167   4.340   8.157  0.0286  0.0437  0.1171
  851POPE   NH312693  17.448  10.107   5.972 -0.0296  0.2386  0.2806
  851POPE   PO412694  17.889  10.140   6.039 -0.1738  0.2708  0.0844
  851POPE   GL112695  17.951  10.044   6.401  0.1068 -0.2671 -0.0008
  851POPE   GL212696  17.634   9.880   6.517  0.2129  0.0712 -0.0164
  851POPE   C1A12697  17.945  10.174   6.798 -0.0699 -0.0263  0.0494
  851POPE   D2A12698  18.106  10.351   7.162 -0.1220  0.1212 -0.1720
  851POPE   C3A12699  18.233  10.193   7.524 -0.1025 -0.1350 -0.0191
  851POPE   C4A12700  18.273   9.939   7.914 -0.3848  0.0493 -0.1162
  851POPE   C1B12701  17.473  10.169   6.869  0.0558 -0.2234 -0.1017
  851POPE   C2B12702  17.433  10.187   7.387  0.0113  0.1075  0.1265
  851POPE   C3B12703  17.422  10.391   7.834  0.3754  0.2876 -0.2815
  851POPE   C4B12704  17.023  10.324   8.142 -0.1002 -0.0310  0.2666
  852POPE   NH312705   2.650   8.941   6.250  0.0400 -0.1077 -0.2222
  852POPE   PO412706   2.370   9.323   6.042 -0.0005 -0.0763 -0.2110
  852POPE   GL112707   2.332   9.270   6.440 -0.0998 -0.2196 -0.1361
  852POPE   GL212708   2.169   8.948   6.502 -0.1211  0.2732  0.0707
  852POPE   C1A12709   2.201   9.368   6.882  0.1509  0.1215 -0.0277
  852POPE   D2A12710   2.006   9.465   7.176  0.1700 -0.0208 -0.2179
  852POPE   C3A12711   1.821   9.260   7.555  0.1798 -0.0167  0.1492
  852POPE   C4A12712   1.578   9.140   7.798  0.1030  0.2199  0.0219
  852POPE   C1B12713   2.295   8.884   6.925 -0.0923 -0.2020 -0.0066
  852POPE   C2B12714   2.264   8.953   7.336  0.2427 -0.2942  0.0947
  852POPE   C3B12715   2.486   8.804   7.663  0.2143  0.0349  0.1171
  852POPE   C4B12716   2.396   8.784   8.110  0.0534 -0.0930  0.3108
  853POPE   NH312717  17.147   0.223   5.901 -0.0449  0.2950 -0.1357
  853POPE   PO412718  17.145   0.213   6.364  0.2234  0.0738  0.1913
  853POPE   GL112719  17.401   0.242   6.755  0.2935 -0.2162  0.1816
  853POPE   GL212720  17.497  -0.075   6.906 -0.0425 -0.3202  0.1102
  853POPE   C1A12721  17.638   0.344   7.178  0.2691  0.0882 -0.1114
  853POPE   D2A12722  17.934   0.626   7.243  0.2360  0.2852 -0.3138
  853POPE   C3A12723  17.944   0.671   7.673  0.0756  0.3351  0.0120
  853POPE   C4A12724  18.308   0.641   7.815  0.1266 -0.3450  0.0178
  853POPE   C1B12725  17.037  -0.052   7.055  0.1066  0.3372  0.1041
  853POPE   C2B12726  16.574  -0.255   7.170 -0.1275 -0.0384  0.1117
  853POPE   C3B12727  16.518  -0.412   7.613  0.1344 -0.3584  0.2035
  853POPE   C4B12728  16.495  -0.462   8.125  0.3379 -0.2076 -0.1801
  854POPE   NH312729   6.468  11.647   6.017  0.0965 -0.1001  0.0309
  854POPE   PO412730   6.852  11.945   5.963  0.0180  0.2869 -0.4654
  854POPE   GL112731   6.699  11.902   6.429  0.1990 -0.0262 -0.0374
  854POPE   GL212732   6.469  12.111   6.580 -0.0700 -0.1405 -0.0480
  854POPE   C1A12733   6.776  11.713   6.758  0.1597 -0.4169 -0.0373
  854POPE   D2A12734   6.823  11.937   7.127  0.1468  0.1023 -0.0906
  854POPE   C3A12735   7.099  11.855   7.453 -0.3604  0.0736  0.1469
  854POPE   C4A12736   7.454  11.597   7.556 -0.0016 -0.0511  0.1730
  854POPE   C1B12737   6.342  12.114   7.044 -0.3911 -0.1139  0.1364
  854POPE   C2B12738   6.363  12.340   7.479 -0.1897  0.1012 -0.2161
  854POPE   C3B12739   6.517  12.692   7.454  0.0286 -0.1871 -0.1225
  854POPE   C4B12740   6.224  12.967   7.714  0.1296 -0.2430  0.2961
  855POPE   NH312741  17.166   9.336   6.069  0.2443  0.0505  0.2607
  855POPE   PO412742  17.086   9.799   6.203 -0.2294  0.1398 -0.0354
  855POPE   GL112743  17.006   9.926   6.637 -0.0645  0.1292 -0.4174
  855POPE   GL212744  17.099  10.257   6.561  0.2075 -0.2995 -0.1677
  855POPE   C1A12745  16.993  10.059   7.088 -0.0808  0.3179 -0.1242
  855POPE   D2A12746  16.756  10.233   7.316  0.0976  0.0185  0.0587
  855POPE   C3A12747  16.791  10.182   7.728  0.0157 -0.0787 -0.0096
  855POPE   C4A12748  16.541  10.344   8.160 -0.1266 -0.1601  0.1723
  855POPE   C1B12749  17.171  10.560   7.031  0.1128  0.1819 -0.0385
  855POPE   C2B12750  17.122  10.568   7.487  0.0133 -0.1039  0.0460
  855POPE   C3B12751  17.044  10.715   7.811 -0.0177 -0.0435  0.0863
  855POPE   C4B12752  16.811  10.835   8.176 -0.0267  0.1348  0.4348
  856POPE   NH312753   7.654  16.128   5.680 -0.0771  0.0675  0.1376
  856POPE   PO412754   7.153  16.107   5.764  0.0094 -0.0068  0.1575
  856POPE   GL112755   7.445  16.095   6.159 -0.2673 -0.0703  0.5033
  856POPE   GL212756   7.197  16.016   6.354 -0.2827 -0.1697 -0.2375
  856POPE   C1A12757   7.908  16.064   6.471  0.0938 -0.1600  0.1243
  856POPE   D2A12758   8.144  15.995   6.892  0.0092 -0.0713 -0.3403
  856POPE   C3A12759   8.130  16.270   7.232 -0.1881 -0.2973 -0.1348
  856POPE   C4A12760   7.990  16.457   7.537 -0.0933  0.0592  0.0159
  856POPE   C1B12761   7.501  15.816   6.583 -0.1826 -0.0096  0.2808
  856POPE   C2B12762   7.589  15.908   6.971 -0.0833  0.2367 -0.0905
  856POPE   C3B12763   7.782  15.950   7.409 -0.0102 -0.1208 -0.0374
  856POPE   C4B12764   7.928  15.995   7.800  0.2158  0.1193 -0.3441
  857POPE   NH312765   0.287   9.654   6.029 -0.1829 -0.3415 -0.0804
  857POPE   PO412766   0.281   9.320   6.077 -0.0417  0.2571 -0.0346
  857POPE   GL112767   0.270   9.238   6.496 -0.3710 -0.2537  0.1320
  857POPE   GL212768   0.013   9.421   6.485  0.2153 -0.3446 -0.2212
  857POPE   C1A12769   0.275   9.047   6.851  0.0402 -0.1955 -0.1530
  857POPE   D2A12770   0.389   8.814   7.106  0.2529  0.4392 -0.1331
  857POPE   C3A12771   0.234   8.817   7.487  0.0392  0.0790 -0.0221
  857POPE   C4A12772   0.115   8.767   7.893 -0.2595 -0.1522 -0.0387
  857POPE   C1B12773   0.053   9.526   6.906 -0.1538  0.2136 -0.3787
  857POPE   C2B12774   0.085   9.338   7.252  0.1158 -0.0872  0.3063
  857POPE   C3B12775   0.124   9.596   7.691 -0.0113  0.0441 -0.1554
  857POPE   C4B12776   0.213   9.350   8.075  0.0936 -0.1300 -0.0855
  858POPE   NH312777  10.942  17.621   6.204  0.0497  0.0694 -0.0409
  858POPE   PO412778  10.639  17.891   5.960  0.2358 -0.1521  0.2913
  858POPE   GL112779  10.580  18.052   6.369 -0.0839  0.0550 -0.1704
  858POPE   GL212780  10.260  17.989   6.556  0.1203  0.1147 -0.2342
  858POPE   C1A12781  10.497  18.266   6.874  0.2958  0.1759 -0.1607
  858POPE   D2A12782  10.430  18.310   7.274 -0.0825  0.0423  0.0973
  858POPE   C3A12783  10.765  18.479   7.401 -0.0885  0.3545 -0.0513
  858POPE   C4A12784  10.837  18.798   7.721  0.3138 -0.4616 -0.2387
  858POPE   C1B12785   9.953  17.922   6.898 -0.1790 -0.1835  0.0689
  858POPE   C2B12786  10.031  17.896   7.259  0.2055  0.2851 -0.1713
  858POPE   C3B12787  10.030  17.767   7.642 -0.1251  0.0380 -0.0669
  858POPE   C4B12788  10.178  17.650   7.964  0.1638 -0.2574 -0.1323
  859POPE   NH312789  11.885  10.238   5.841 -0.0750  0.0023 -0.2026
  859POPE   PO412790  11.851  10.541   6.114 -0.1738 -0.2823 -0.2261
  859POPE   GL112791  12.086  10.706   6.541 -0.2130  0.4320  0.1771
  859POPE   GL212792  12.371  10.587   6.666  0.1050 -0.2582  0.3076
  859POPE   C1A12793  12.122  10.920   6.957 -0.1978  0.1719  0.0302
  859POPE   D2A12794  12.176  11.386   7.153 -0.2991 -0.2370 -0.0005
  859POPE   C3A12795  11.964  11.341   7.561  0.0576 -0.0251 -0.0360
  859POPE   C4A12796  11.725  11.523   7.937  0.1739  0.0944  0.0327
  859POPE   C1B12797  12.646  10.613   6.957 -0.1280  0.0756 -0.0898
  859POPE   C2B12798  12.732  10.555   7.444 -0.2254  0.1421 -0.2536
  859POPE   C3B12799  12.870  10.728   7.811 -0.3696  0.1731 -0.2359
  859POPE   C4B12800  13.002  10.849   8.175 -0.0310  0.1023 -0.0371
  860POPE   NH312801  10.636   7.315   6.238  0.1799  0.2584  0.3074
  860POPE   PO412802  10.133   7.404   6.137 -0.0621 -0.1798  0.0678
  860POPE   GL112803  10.234   7.310   6.595  0.1033  0.1263  0.1125
  860POPE   GL212804  10.442   7.315   6.774  0.1118  0.1166 -0.0987
  860POPE   C1A12805  10.032   7.142   6.939  0.2382  0.3226  0.0325
  860POPE   D2A12806  10.110   7.129   7.391 -0.0896  0.2591 -0.2860
  860POPE   C3A12807   9.804   7.320   7.756 -0.0668 -0.1490 -0.2198
  860POPE   C4A12808   9.820   7.473   8.176  0.1348 -0.0610 -0.2418
  860POPE   C1B12809  10.310   7.481   7.188 -0.1817  0.0153 -0.1968
  860POPE   C2B12810  10.195   7.629   7.631 -0.1870  0.2355  0.3853
  860POPE   C3B12811  10.159   7.798   8.057 -0.1571  0.1966 -0.1099
  860POPE   C4B12812  10.560   7.812   8.335 -0.0425  0.2626  0.0500
  861POPE   NH312813  13.394   0.901   6.446 -0.1325  0.1117 -0.0822
  861POPE   PO412814  12.938   1.067   6.424 -0.0855 -0.1501  0.2517
  861POPE   GL112815  12.655   0.896   6.728 -0.0806 -0.0973 -0.0330
  861POPE   GL212816  12.732   1.187   6.878  0.1829  0.1629 -0.1001
  861POPE   C1A12817  12.630   0.712   7.198 -0.3949  0.0137 -0.1106
  861POPE   D2A12818  12.759   0.436   7.427  0.0621 -0.3617 -0.1541
  861POPE   C3A12819  12.648   0.399   7.881  0.1137  0.1476  0.1070
  861POPE   C4A12820  12.698   0.444   8.324  0.3941  0.2641  0.0479
  861POPE   C1B12821  13.060   1.357   7.106 -0.1440 -0.0069  0.1428
  861POPE   C2B12822  13.001   1.401   7.545 -0.0410  0.0765 -0.1601
  861POPE   C3B12823  13.261   1.515   7.801 -0.2058 -0.0006  0.0642
  861POPE   C4B12824  13.659   1.605   8.031  0.0854 -0.1874  0.2479
  862POPE   NH312825   2.137   1.740   6.109 -0.3362 -0.0984 -0.0808
  862POPE   PO412826   1.872   1.427   5.931  0.1448 -0.1687 -0.0101
  862POPE   GL112827   1.962   1.309   6.318  0.2178  0.2005 -0.0203
  862POPE   GL212828   1.714   1.251   6.418 -0.0800 -0.1134  0.1897
  862POPE   C1A12829   2.175   1.396   6.717  0.1522 -0.0761  0.0272
  862POPE   D2A12830   2.250   1.309   7.151 -0.0482  0.0281 -0.1206
  862POPE   C3A12831   2.568   1.437   7.402  0.1345  0.1206  0.0157
  862POPE   C4A12832   2.393   1.787   7.774 -0.2346  0.1981 -0.3629
  862POPE   C1B12833   1.642   1.064   6.759 -0.1129 -0.0199 -0.0348
  862POPE   C2B12834   1.701   1.020   7.277 -0.0133  0.0441  0.1393
  862POPE   C3B12835   1.820   1.070   7.680 -0.0754  0.1802  0.0189
  862POPE   C4B12836   1.918   0.871   8.029 -0.2098 -0.0424  0.0641
  863POPE   NH312837  11.156   7.312   6.125 -0.4098  0.0183 -0.5361
  863POPE   PO412838  11.367   6.978   6.156 -0.0008 -0.1308 -0.1287
  863POPE   GL112839  11.353   7.047   6.656  0.0268  0.1247 -0.3687
  863POPE   GL212840  11.458   7.252   6.977  0.0324 -0.2050 -0.2171
  863POPE   C1A12841  11.494   6.740   6.982  0.0792 -0.0522 -0.2320
  863POPE   D2A12842  11.782   6.456   7.226 -0.0805 -0.2182  0.2816
  863POPE   C3A12843  12.086   6.605   7.573 -0.3369  0.2432 -0.0595
  863POPE   C4A12844  12.306   6.223   7.731 -0.1609  0.1151  0.2662
  863POPE   C1B12845  11.308   7.069   7.351 -0.1793 -0.2522 -0.1011
  863POPE   C2B12846  11.168   7.143   7.742  0.3861 -0.1754 -0.0966
  863POPE   C3B12847  10.942   6.952   8.107 -0.0082 -0.0992 -0.0558
  863POPE   C4B12848  10.975   6.549   8.293 -0.1714  0.2901  0.1487
  864YOPE   NH312849  13.680   4.139   6.364 -0.1446 -0.0114  0.1001
  864YOPE   PO412850  13.979   3.784   6.200  0.2443 -0.1291 -0.1063
  864YOPE   GL112851  13.730   3.643   6.575 -0.3176 -0.6572 -0.0039
  864YOPE   GL212852  13.359   3.665   6.394  0.0012  0.0270 -0.2794
  864YOPE   C1A12853  13.821   3.587   6.995 -0.0950  0.1015  0.0247
  864YOPE   D2A12854  13.789   3.338   7.417  0.1341 -0.1377 -0.4641
  864YOPE   C3A12855  14.002   3.399   7.766  0.1542  0.0904 -0.3441
  864YOPE   C4A12856  13.960   3.251   8.215 -0.3056 -0.2240  0.1451
  864YOPE   C1B12857  13.236   3.595   6.827 -0.2754  0.3156 -0.2339
  864YOPE   C2B12858  13.437   3.755   7.225  0.0098  0.2681 -0.0541
  864YOPE   D3B12859  13.320   3.704   7.695  0.3669  0.1263  0.0447
  864YOPE   C4B12860  13.154   3.920   8.099 -0.0044  0.0020 -0.1232
  865YOPE   NH312861  15.852   8.482   6.088  0.2649  0.4578 -0.2214
  865YOPE   PO412862  15.836   8.874   6.247  0.1863 -0.0376  0.3243
  865YOPE   GL112863  15.750   9.053   6.526 -0.1285  0.1060  0.0764
  865YOPE   GL212864  15.944   9.316   6.665 -0.1463 -0.0793 -0.0064
  865YOPE   C1A12865  15.582   8.994   6.921  0.3775  0.1487 -0.0488
  865YOPE   D2A12866  15.656   8.974   7.243  0.1266 -0.2247 -0.1560
  865YOPE   C3A12867  15.802   8.752   7.487 -0.1056 -0.2055  0.1317
  865YOPE   C4A12868  16.040   8.435   7.722 -0.0535 -0.1073  0.0566
  865YOPE   C1B12869  15.949   9.384   7.166  0.1043 -0.0333  0.2646
  865YOPE   C2B12870  16.172   9.424   7.513 -0.0557 -0.1677 -0.2576
  865YOPE   D3B12871  16.100   9.332   7.943  0.0255  0.1016 -0.1353
  865YOPE   C4B12872  16.277   9.059   8.167  0.3951 -0.1143 -0.1599
  866YOPE   NH312873   6.853  17.572   6.008 -0.0613 -0.2146  0.0983
  866YOPE   PO412874   6.719  17.937   6.006  0.1449 -0.1936 -0.0287
  866YOPE   GL112875   6.447  17.743   6.311 -0.1763  0.3210 -0.0201
  866YOPE   GL212876   6.630  17.599   6.518 -0.0062 -0.1269 -0.0968
  866YOPE   C1A12877   6.150  17.707   6.632 -0.1949  0.0782  0.1317
  866YOPE   D2A12878   5.990  17.859   6.945 -0.2897  0.1928  0.1861
  866YOPE   C3A12879   5.779  17.741   7.239  0.2740 -0.1594  0.2395
  866YOPE   C4A12880   5.630  17.491   7.626  0.1610 -0.0576 -0.0702
  866YOPE   C1B12881   6.557  17.749   6.974  0.1932  0.0442  0.2023
  866YOPE   C2B12882   6.778  18.095   7.219 -0.1348  0.1492  0.0568
  866YOPE   D3B12883   6.779  18.259   7.593  0.0817 -0.1505 -0.0557
  866YOPE   C4B12884   6.757  18.678   7.757 -0.1442 -0.0012  0.0071
  867YOPE   NH312885   3.923  11.867   6.122 -0.2133 -0.0368  0.0142
  867YOPE   PO412886   4.305  11.878   6.264 -0.1095 -0.1537 -0.2110
  867YOPE   GL112887   4.549  11.728   6.620  0.1719  0.1925  0.2691
  867YOPE   GL212888   4.369  11.490   6.675 -0.0053  0.3827  0.3815
  867YOPE   C1A12889   4.590  11.762   7.061  0.0084  0.3900 -0.1837
  867YOPE   D2A12890   4.348  11.543   7.400 -0.1501  0.4926 -0.1983
  867YOPE   C3A12891   4.417  11.365   7.770  0.0738  0.0687 -0.2536
  867YOPE   C4A12892   4.608  11.181   8.171 -0.1358 -0.2087 -0.2370
  867YOPE   C1B12893   4.056  11.628   6.936  0.0165  0.2402 -0.0429
  867YOPE   C2B12894   3.929  11.762   7.406  0.1086  0.0523 -0.2082
  867YOPE   D3B12895   3.699  11.846   7.803  0.1402 -0.0153  0.2755
  867YOPE   C4B12896   3.850  11.958   8.163 -0.0711  0.4313  0.0679
  868YOPE   NH312897  15.339   2.722   6.514 -0.0460 -0.1015  0.0687
  868YOPE   PO412898  15.379   2.239   6.550 -0.1353 -0.0055 -0.0891
  868YOPE   GL112899  15.376   2.358   6.959 -0.1575 -0.0622  0.2192
  868YOPE   GL212900  15.644   2.490   6.927 -0.1292 -0.1094  0.1975
  868YOPE   C1A12901  15.330   2.160   7.371 -0.0158  0.0361  0.2697
  868YOPE   D2A12902  15.473   2.084   7.751 -0.2511 -0.0650 -0.2931
  868YOPE   C3A12903  15.417   2.395   8.098 -0.1920  0.1031 -0.0727
  868YOPE   C4A12904  15.578   2.351   8.532 -0.2084 -0.2778  0.0016
  868YOPE   C1B12905  15.660   2.643   7.392  0.3397 -0.0364  0.1199
  868YOPE   C2B12906  15.774   2.499   7.783 -0.1421 -0.1421 -0.0005
  868YOPE   D3B12907  15.927   2.599   8.228  0.2402 -0.0559 -0.5021
  868YOPE   C4B12908  16.181   2.623   8.578  0.1065 -0.1473  0.0139
  869YOPE   NH312909  14.781  14.017   6.214  0.1155 -0.0691 -0.0419
  869YOPE   PO412910  14.811  14.435   6.097  0.1001 -0.1904 -0.0788
  869YOPE   GL112911  14.866  14.483   6.541 -0.1543 -0.2256 -0.0674
  869YOPE   GL212912  15.075  14.204   6.607  0.2525  0.0243  0.1604
  869YOPE   C1A12913  14.901  14.735   6.888 -0.2467  0.1270 -0.0313
  869YOPE   D2A12914  14.738  14.969   7.179 -0.2380 -0.0275 -0.1814
  869YOPE   C3A12915  14.614  14.973   7.596 -0.0823 -0.5436  0.0272
  869YOPE   C4A12916  14.336  15.021   7.970  0.3052 -0.0627 -0.0302
  869YOPE   C1B12917  14.961  14.227   7.043  0.2723 -0.1563  0.0964
  869YOPE   C2B12918  14.994  14.519   7.392 -0.0926 -0.1040 -0.2674
  869YOPE   D3B12919  14.776  14.525   7.801 -0.0009 -0.0247 -0.0911
  869YOPE   C4B12920  14.564  14.624   8.136 -0.1930 -0.0223 -0.0215
  870YOPE   NH312921  12.745   6.657   5.642  0.1784 -0.1059 -0.1028
  870YOPE   PO412922  12.671   6.394   5.965 -0.1094  0.1953 -0.2253
  870YOPE   GL112923  12.673   6.285   6.434  0.2151  0.0881  0.4058
  870YOPE   GL212924  12.825   5.952   6.406 -0.3507  0.2466  0.1093
  870YOPE   C1A12925  12.903   6.423   6.796 -0.0860 -0.1476  0.1188
  870YOPE   D2A12926  13.107   6.482   7.187  0.1422 -0.1872  0.0257
  870YOPE   C3A12927  12.865   6.402   7.533 -0.1854 -0.0573  0.0386
  870YOPE   C4A12928  12.575   6.631   7.818  0.0947 -0.0134  0.1993
  870YOPE   C1B12929  12.698   5.987   6.848 -0.2568 -0.1491  0.0882
  870YOPE   C2B12930  12.681   5.960   7.268  0.3057  0.3450 -0.0894
  870YOPE   D3B12931  12.705   5.814   7.695  0.2093  0.0950  0.0141
  870YOPE   C4B12932  13.057   5.500   7.859 -0.2486 -0.0893  0.0186
  871YOPE   NH312933   8.170   4.889   6.190 -0.2891  0.0565  0.1519
  871YOPE   PO412934   7.813   4.523   6.186  0.3278 -0.0164  0.3535
  871YOPE   GL112935   7.925   4.732   6.623 -0.2167  0.3432 -0.1521
  871YOPE   GL212936   8.194   4.923   6.697 -0.0415  0.1078 -0.0942
  871YOPE   C1A12937   8.048   4.699   7.136  0.0158 -0.1562 -0.2124
  871YOPE   D2A12938   7.948   4.633   7.529  0.0614  0.2141  0.3777
  871YOPE   C3A12939   7.766   4.415   7.875  0.0682 -0.2560  0.1636
  871YOPE   C4A12940   7.715   4.102   8.185  0.1717 -0.1431  0.0629
  871YOPE   C1B12941   8.332   5.118   7.081 -0.0236 -0.1934  0.0357
  871YOPE   C2B12942   8.348   5.398   7.412 -0.0838  0.0619 -0.0392
  871YOPE   D3B12943   8.222   5.670   7.787 -0.0133 -0.0225  0.0895
  871YOPE   C4B12944   8.418   5.719   8.237  0.1314  0.3755  0.1535
  872YOPE   NH312945  11.976   9.572   6.273  0.0956  0.1855  0.0119
  872YOPE   PO412946  12.001   9.995   6.318 -0.2539 -0.3566 -0.1187
  872YOPE   GL112947  11.918  10.208   6.735  0.1375 -0.1015  0.1675
  872YOPE   GL212948  11.675  10.371   6.626  0.2707  0.2688 -0.1039
  872YOPE   C1A12949  12.206  10.389   7.053 -0.0232  0.1717 -0.0858
  872YOPE   D2A12950  12.197  10.552   7.350 -0.2224 -0.0585  0.2054
  872YOPE   C3A12951  12.343  11.018   7.345  0.1578  0.0141  0.0653
  872YOPE   C4A12952  12.440  11.320   7.635 -0.0750  0.1479  0.1876
  872YOPE   C1B12953  11.696  10.490   7.052  0.3009  0.1373 -0.0758
  872YOPE   C2B12954  11.617  10.505   7.427  0.1205  0.0393 -0.0217
  872YOPE   D3B12955  11.880  10.588   7.756  0.0064  0.0181 -0.1488
  872YOPE   C4B12956  12.064  10.563   8.190 -0.1144  0.1164 -0.1189
  873YOPE   NH312957   1.809   5.012   6.488 -0.3109 -0.0434  0.1862
  873YOPE   PO412958   1.546   4.717   6.524  0.1299  0.3038 -0.2007
  873YOPE   GL112959   1.240   4.757   6.716  0.2018  0.1230 -0.1130
  873YOPE   GL212960   0.923   4.848   6.604  0.2993 -0.1299  0.0168
  873YOPE   C1A12961   1.256   4.735   7.220 -0.1584 -0.0340  0.1334
  873YOPE   D2A12962   1.355   4.861   7.675 -0.3081  0.1347 -0.2333
  873YOPE   C3A12963   1.479   5.257   7.526 -0.1864  0.2010 -0.0826
  873YOPE   C4A12964   1.636   5.591   7.804 -0.1494  0.0588  0.0391
  873YOPE   C1B12965   0.865   5.018   6.974 -0.0648 -0.0335 -0.2651
  873YOPE   C2B12966   0.906   4.933   7.470 -0.0211 -0.1286  0.0167
  873YOPE   D3B12967   0.972   4.910   8.009 -0.0358 -0.2759  0.0533
  873YOPE   C4B12968   1.160   4.895   8.413  0.1446  0.2921  0.4449
  874YOPE   NH312969  13.655   1.856   6.629  0.0285  0.1238 -0.1571
  874YOPE   PO412970  13.405   2.201   6.611 -0.2159  0.1904 -0.2212
  874YOPE   GL112971  13.580   2.278   7.045 -0.3615  0.0597  0.0664
  874YOPE   GL212972  13.463   2.575   6.991  0.0540  0.1551  0.1988
  874YOPE   C1A12973  13.427   2.292   7.514  0.1858 -0.1574 -0.1162
  874YOPE   D2A12974  13.364   2.568   7.928  0.1607  0.0683 -0.1955
  874YOPE   C3A12975  13.374   2.468   8.268 -0.1897 -0.0928 -0.0523
  874YOPE   C4A12976  13.468   2.466   8.754  0.2500 -0.0965  0.1032
  874YOPE   C1B12977  13.572   2.756   7.376 -0.1475 -0.3259 -0.0253
  874YOPE   C2B12978  13.592   3.054   7.785 -0.0094 -0.1078  0.1977
  874YOPE   D3B12979  13.353   2.960   8.188 -0.0959  0.1278 -0.1225
  874YOPE   C4B12980  13.271   2.878   8.584 -0.0691 -0.1012  0.1322
  875YOPE   NH312981  11.758   7.193   6.302 -0.3134  0.2301  0.2476
  875YOPE   PO412982  12.168   7.084   6.435  0.2841  0.2772  0.0463
  875YOPE   GL112983  11.863   6.972   6.751 -0.2608  0.0633  0.2024
  875YOPE   GL212984  12.175   7.171   6.965 -0.2035  0.0655  0.2146
  875YOPE   C1A12985  11.812   7.030   7.214  0.1007  0.4792  0.2185
  875YOPE   D2A12986  11.648   6.827   7.617 -0.0168  0.1066 -0.3460
  875YOPE   C3A12987  11.656   7.230   7.676  0.0548 -0.0876 -0.0354
  875YOPE   C4A12988  11.614   7.639   7.772  0.2709  0.0557 -0.0466
  875YOPE   C1B12989  12.244   7.036   7.356 -0.1118  0.0813 -0.1444
  875YOPE   C2B12990  12.273   7.013   7.775  0.0197 -0.3136 -0.1984
  875YOPE   D3B12991  11.939   6.860   8.045  0.0516 -0.0338 -0.1500
  875YOPE   C4B12992  11.838   6.970   8.467 -0.1697 -0.1988  0.2294
  876YOPE   NH312993  16.383  15.593   6.325  0.2133 -0.2673  0.0854
  876YOPE   PO412994  16.030  15.820   6.338  0.0339  0.1926  0.0513
  876YOPE   GL112995  15.806  15.675   6.674 -0.2967 -0.0926  0.3241
  876YOPE   GL212996  15.855  15.399   6.655  0.3106  0.0861 -0.0329
  876YOPE   C1A12997  15.730  15.923   7.038  0.0402  0.0708 -0.0209
  876YOPE   D2A12998  15.759  15.891   7.505  0.3102 -0.1343 -0.0478
  876YOPE   C3A12999  16.088  15.935   7.919  0.1179 -0.0097 -0.0378
  876YOPE   C4A13000  15.919  16.050   8.274 -0.1984 -0.3158  0.0526
  876YOPE   C1B13001  15.995  15.370   7.024  0.0800  0.3584 -0.0317
  876YOPE   C2B13002  15.962  15.458   7.435 -0.3482 -0.1658  0.0574
  876YOPE   D3B13003  16.172  15.496   7.764 -0.0181  0.0153 -0.1243
  876YOPE   C4B13004  16.368  15.259   7.951 -0.0037 -0.0892 -0.2322
  877YOPE   NH313005   8.358  12.837   5.840  0.2969  0.0318  0.0879
  877YOPE   PO413006   8.007  12.637   5.662  0.0250 -0.1607 -0.0196
  877YOPE   GL113007   7.995  12.464   6.110 -0.1466  0.0622 -0.5063
  877YOPE   GL213008   8.269  12.403   6.285 -0.1646 -0.0968 -0.1728
  877YOPE   C1A13009   7.789  12.457   6.594  0.1167 -0.1048 -0.1159
  877YOPE   D2A13010   7.693  12.464   7.188 -0.2781  0.0602 -0.1403
  877YOPE   C3A13011   7.333  12.680   7.449  0.1943 -0.0899 -0.1656
  877YOPE   C4A13012   6.960  12.904   7.551 -0.1493  0.0873  0.1803
  877YOPE   C1B13013   8.263  12.713   6.599 -0.3854 -0.0769  0.0637
  877YOPE   C2B13014   8.123  12.625   7.029  0.1243  0.0533  0.0652
  877YOPE   D3B13015   8.314  12.658   7.328 -0.1755  0.0534  0.1369
  877YOPE   C4B13016   8.507  12.484   7.657  0.2968  0.1792 -0.1517
  878YOPE   NH313017   5.027   1.421   5.650 -0.0203  0.3107  0.1135
  878YOPE   PO413018   5.020   1.616   6.108  0.0815 -0.0115  0.0482
  878YOPE   GL113019   5.277   1.862   6.447 -0.2407  0.0411 -0.2194
  878YOPE   GL213020   5.088   1.698   6.624 -0.2769  0.0456 -0.1648
  878YOPE   C1A13021   5.382   2.164   6.715  0.0100  0.4043  0.1892
  878YOPE   D2A13022   5.799   2.392   6.796  0.4719 -0.1680  0.1496
  878YOPE   C3A13023   5.760   2.768   6.936  0.1075 -0.4163 -0.0680
  878YOPE   C4A13024   5.461   2.955   7.175 -0.0217 -0.0327 -0.0472
  878YOPE   C1B13025   5.129   1.845   7.106 -0.1288 -0.0816  0.1811
  878YOPE   C2B13026   5.601   1.872   7.307  0.2885  0.1103 -0.0596
  878YOPE   D3B13027   5.903   1.931   7.635 -0.0931 -0.1960 -0.1055
  878YOPE   C4B13028   6.038   1.807   8.044 -0.1382  0.2017  0.0237
  879YOPE   NH313029  14.740   7.487   5.859 -0.2411 -0.0297  0.1689
  879YOPE   PO413030  14.509   7.249   6.188 -0.1652 -0.1185  0.1176
  879YOPE   GL113031  14.238   7.239   6.535 -0.2534  0.2078 -0.0492
  879YOPE   GL213032  14.427   7.183   6.784 -0.2095  0.0452 -0.1791
  879YOPE   C1A13033  14.006   7.222   6.974 -0.0630  0.2126 -0.0510
  879YOPE   D2A13034  14.028   7.353   7.377 -0.0630 -0.0066  0.0463
  879YOPE   C3A13035  13.614   7.437   7.576  0.1165  0.0451 -0.1801
  879YOPE   C4A13036  13.491   7.732   7.795 -0.2226  0.2017 -0.2001
  879YOPE   C1B13037  14.507   7.347   7.198 -0.2387 -0.0137  0.1039
  879YOPE   C2B13038  14.416   7.337   7.647 -0.1760 -0.1257 -0.2459
  879YOPE   D3B13039  14.438   7.510   7.952  0.1675  0.0037 -0.0932
  879YOPE   C4B13040  14.277   7.363   8.258  0.0311  0.1587 -0.2666
  880YOPE   NH313041   9.417  13.936   5.595  0.1208 -0.1525  0.3711
  880YOPE   PO413042   9.528  14.277   5.767 -0.1419 -0.1581 -0.2102
  880YOPE   GL113043   9.530  14.133   6.124  0.0255 -0.0552  0.1922
  880YOPE   GL213044   9.804  13.975   6.210 -0.1242 -0.0994  0.1357
  880YOPE   C1A13045   9.291  14.047   6.586  0.0631  0.1437  0.0634
  880YOPE   D2A13046   9.064  14.098   6.956  0.0991 -0.2066  0.1181
  880YOPE   C3A13047   8.934  13.961   7.399  0.2329 -0.0048  0.0186
  880YOPE   C4A13048   8.796  13.634   7.642 -0.2929  0.1250 -0.2350
  880YOPE   C1B13049   9.772  13.808   6.617 -0.0508  0.0669 -0.0765
  880YOPE   C2B13050   9.757  13.456   6.892  0.0562  0.1804  0.0718
  880YOPE   D3B13051   9.578  13.306   7.225  0.4393 -0.3029 -0.0223
  880YOPE   C4B13052   9.445  13.287   7.655 -0.1063  0.2741  0.4300
  881YOPE   NH313053   2.930   9.167   5.857  0.0112  0.3081  0.2095
  881YOPE   PO413054   3.170   9.044   6.177 -0.1660 -0.0008 -0.1614
  881YOPE   GL113055   3.047   9.106   6.590  0.1445 -0.2092 -0.0506
  881YOPE   GL213056   2.769   9.115   6.733 -0.2790 -0.1717  0.1353
  881YOPE   C1A13057   3.152   9.148   7.018 -0.4226 -0.3394  0.0352
  881YOPE   D2A13058   3.253   9.168   7.323  0.0967  0.2363  0.1221
  881YOPE   C3A13059   3.399   9.103   7.715  0.1098 -0.1841  0.0095
  881YOPE   C4A13060   3.663   9.331   7.921  0.4043 -0.0575 -0.2282
  881YOPE   C1B13061   2.737   9.050   7.233  0.0149 -0.1723 -0.0398
  881YOPE   C2B13062   2.966   9.008   7.701 -0.0313 -0.2501  0.1352
  881YOPE   D3B13063   3.160   8.944   8.084 -0.0395  0.0616  0.2179
  881YOPE   C4B13064   3.380   9.005   8.357 -0.2324 -0.0487  0.1837
  882YOPE   NH313065  17.398  12.979   6.491  0.1618  0.1055  0.0772
  882YOPE   PO413066  17.834  12.870   6.223 -0.0215 -0.0748 -0.2999
  882YOPE   GL113067  17.892  12.788   6.685 -0.0534 -0.0757 -0.0222
  882YOPE   GL213068  18.039  12.491   6.752 -0.0033  0.1367  0.1592
  882YOPE   C1A13069  17.787  12.727   7.072  0.1042 -0.2305 -0.2383
  882YOPE   D2A13070  17.848  12.711   7.469  0.1019 -0.1049 -0.0282
  882YOPE   C3A13071  18.193  12.665   7.589  0.2206  0.1501 -0.3856
  882YOPE   C4A13072  18.465  12.448   7.411  0.1474 -0.0750  0.1360
  882YOPE   C1B13073  18.229  12.674   7.034 -0.1801 -0.1515  0.0710
  882YOPE   C2B13074  18.173  13.093   7.314  0.1531  0.3991 -0.0570
  882YOPE   D3B13075  18.079  13.236   7.619  0.3187  0.0397 -0.0860
  882YOPE   C4B13076  18.229  13.312   8.018  0.0727 -0.0794  0.2769
  883YOPE   NH313077   5.246   0.945   6.042 -0.1713 -0.0506 -0.1044
  883YOPE   PO413078   4.736   1.138   5.983  0.0459 -0.0480  0.1350
  883YOPE   GL113079   4.886   0.842   6.338 -0.3134  0.1940 -0.1345
  883YOPE   GL213080   5.006   1.087   6.511 -0.3340  0.0205 -0.2283
  883YOPE   C1A13081   4.963   0.666   6.759  0.0027 -0.0485  0.0564
  883YOPE   D2A13082   4.874   0.185   6.915 -0.0631  0.0337 -0.1625
  883YOPE   C3A13083   4.835   0.088   7.342 -0.0327  0.1154 -0.1854
  883YOPE   C4A13084   4.988   0.192   7.730  0.1589 -0.2148 -0.0476
  883YOPE   C1B13085   4.895   1.189   6.887 -0.1652 -0.0469 -0.1236
  883YOPE   C2B13086   4.740   1.184   7.313  0.2049 -0.0891 -0.1664
  883YOPE   D3B13087   4.587   1.145   7.784 -0.0482  0.2342  0.0278
  883YOPE   C4B13088   4.673   1.393   8.055  0.1233  0.0622  0.0468
  884YOPE   NH313089   2.168   2.703   6.187  0.0911  0.0027  0.2825
  884YOPE   PO413090   2.089   3.115   6.019 -0.2669 -0.1512  0.0066
  884YOPE   GL113091   2.178   3.135   6.429  0.1690 -0.0083 -0.0362
  884YOPE   GL213092   2.489   3.034   6.468  0.2638 -0.0384 -0.0928
  884YOPE   C1A13093   2.131   3.111   6.928 -0.1499  0.0279  0.0744
  884YOPE   D2A13094   1.781   2.935   7.146 -0.1937  0.2784 -0.0657
  884YOPE   C3A13095   1.828   2.950   7.584 -0.0312  0.0689  0.1884
  884YOPE   C4A13096   2.038   2.684   7.972  0.1199 -0.0579 -0.0286
  884YOPE   C1B13097   2.549   2.888   6.862 -0.0292 -0.0067 -0.2827
  884YOPE   C2B13098   2.751   2.729   7.230 -0.0757  0.1324 -0.1497
  884YOPE   D3B13099   2.884   2.630   7.641  0.1817 -0.2795 -0.0727
  884YOPE   C4B13100   2.626   2.653   8.024  0.2169  0.1588  0.0585
  885YOPE   NH313101   7.673  13.170   5.705 -0.0958  0.1603  0.2060
  885YOPE   PO413102   8.115  13.281   5.784 -0.1931  0.1054  0.0337
  885YOPE   GL113103   8.302  13.442   6.139  0.0626  0.0462 -0.0867
  885YOPE   GL213104   8.431  13.160   6.313 -0.0568  0.4047  0.4053
  885YOPE   C1A13105   8.397  13.695   6.420  0.0877 -0.0404  0.1734
  885YOPE   D2A13106   8.296  13.777   6.777  0.0550 -0.2038  0.0831
  885YOPE   C3A13107   8.158  14.238   6.748  0.1872  0.1023  0.1892
  885YOPE   C4A13108   7.957  14.635   6.666 -0.2777 -0.0881  0.1471
  885YOPE   C1B13109   8.232  13.224   6.788 -0.3767  0.0836  0.1239
  885YOPE   C2B13110   8.189  13.254   7.157 -0.5450 -0.2854 -0.2049
  885YOPE   D3B13111   8.232  13.126   7.546  0.1557 -0.1714  0.1598
  885YOPE   C4B13112   8.200  12.932   7.927 -0.1115  0.2157 -0.1584
  886YOPE   NH313113  17.370  13.912   6.569  0.1036  0.1158 -0.1456
  886YOPE   PO413114  17.624  14.317   6.483  0.0588  0.0967 -0.0357
  886YOPE   GL113115  17.615  14.717   6.775  0.0198 -0.3803 -0.0340
  886YOPE   GL213116  17.305  14.828   6.833  0.4672  0.2820  0.0992
  886YOPE   C1A13117  17.681  14.705   7.180  0.0732 -0.3123  0.1327
  886YOPE   D2A13118  17.860  14.532   7.502 -0.1194 -0.0985 -0.1500
  886YOPE   C3A13119  17.960  14.739   7.760 -0.3330  0.1514 -0.2965
  886YOPE   C4A13120  18.290  14.920   7.933  0.2663 -0.1947 -0.0821
  886YOPE   C1B13121  17.177  14.963   7.185 -0.0421  0.3553 -0.0070
  886YOPE   C2B13122  16.751  14.912   7.346 -0.2129 -0.2456  0.1143
  886YOPE   D3B13123  16.688  14.954   7.694  0.1115  0.1666 -0.2309
  886YOPE   C4B13124  16.770  14.769   8.070  0.0557 -0.0760  0.1289
  887YOPE   NH313125  10.920   4.257   6.008  0.2819 -0.3027  0.1784
  887YOPE   PO413126  11.102   3.875   6.216  0.0282 -0.1721  0.1639
  887YOPE   GL113127  11.188   3.767   6.596 -0.0760 -0.0909  0.1491
  887YOPE   GL213128  10.942   3.506   6.693  0.2743 -0.3220 -0.4571
  887YOPE   C1A13129  11.099   3.941   6.934  0.1121 -0.1442  0.1905
  887YOPE   D2A13130  10.831   4.172   7.235 -0.3365 -0.0687  0.1578
  887YOPE   C3A13131  10.662   4.060   7.598 -0.0368  0.0797 -0.1477
  887YOPE   C4A13132  10.740   4.333   7.945  0.1888 -0.0196 -0.0941
  887YOPE   C1B13133  10.801   3.481   7.100  0.0061 -0.2196  0.2081
  887YOPE   C2B13134  10.607   3.576   7.498  0.1979  0.0044 -0.2035
  887YOPE   D3B13135  10.560   3.700   7.937  0.2643 -0.1784  0.1911
  887YOPE   C4B13136  10.808   3.749   8.340 -0.0478 -0.1274 -0.2186
  888YOPE   NH313137   0.418  14.341   5.802 -0.1377  0.0498 -0.1735
  888YOPE   PO413138   0.779  14.526   6.087 -0.0489  0.0177  0.1701
  888YOPE   GL113139   0.759  14.367   6.448 -0.1921 -0.1851 -0.4154
  888YOPE   GL213140   0.767  14.686   6.584  0.0056  0.0160  0.0071
  888YOPE   C1A13141   1.075  14.292   6.716  0.3244  0.1664 -0.2550
  888YOPE   D2A13142   1.540  14.132   6.620  0.3570 -0.0178 -0.2714
  888YOPE   C3A13143   1.627  13.763   6.978  0.0162  0.2126 -0.0040
  888YOPE   C4A13144   2.008  13.634   7.172  0.0524 -0.1084 -0.0042
  888YOPE   C1B13145   0.795  14.645   6.947 -0.3748 -0.1889  0.3483
  888YOPE   C2B13146   1.089  14.786   7.181 -0.1008 -0.1273  0.0144
  888YOPE   D3B13147   1.200  15.079   7.440  0.0446 -0.0112 -0.3155
  888YOPE   C4B13148   1.132  15.458   7.679 -0.1402  0.1549  0.0013
  889YOPE   NH313149  15.514   9.840   6.192 -0.0250 -0.4127  0.0089
  889YOPE   PO413150  15.934   9.589   6.245 -0.2090  0.1097 -0.0994
  889YOPE   GL113151  15.950   9.786   6.610 -0.3532 -0.1126  0.2323
  889YOPE   GL213152  15.646  10.034   6.662 -0.1788  0.2471  0.0353
  889YOPE   C1A13153  16.014   9.877   7.063  0.0607  0.0013  0.4182
  889YOPE   D2A13154  15.945  10.001   7.479  0.2547 -0.1013  0.1943
  889YOPE   C3A13155  15.807   9.741   7.795 -0.1975  0.2201 -0.3510
  889YOPE   C4A13156  15.633   9.466   8.149 -0.4036  0.0676 -0.0947
  889YOPE   C1B13157  16.134  10.238   6.613  0.3130 -0.3666  0.3567
  889YOPE   C2B13158  16.268  10.297   7.078  0.0650 -0.0263 -0.2180
  889YOPE   D3B13159  15.980  10.466   7.368  0.1384  0.2726  0.0089
  889YOPE   C4B13160  15.987  10.773   7.653  0.0457 -0.4572  0.0649
  890YOPE   NH313161   7.039   6.924   6.351  0.2429  0.0517 -0.0153
  890YOPE   PO413162   6.672   6.941   6.583 -0.1232 -0.1215 -0.2662
  890YOPE   GL113163   6.513   7.024   6.935  0.4252 -0.0985  0.0244
  890YOPE   GL213164   6.190   7.078   6.919 -0.1135  0.2619  0.1047
  890YOPE   C1A13165   6.629   7.233   7.302 -0.1820  0.0840  0.0522
  890YOPE   D2A13166   6.598   7.470   7.653 -0.2481 -0.4258 -0.0893
  890YOPE   C3A13167   6.476   7.297   7.989  0.0118 -0.1189  0.0514
  890YOPE   C4A13168   6.228   7.168   8.298 -0.2034 -0.2859  0.2013
  890YOPE   C1B13169   5.953   7.038   7.266  0.0057 -0.2115 -0.0158
  890YOPE   C2B13170   5.689   7.098   7.604  0.0871 -0.1503  0.1193
  890YOPE   D3B13171   5.754   7.043   8.004 -0.0935 -0.0423 -0.0240
  890YOPE   C4B13172   5.530   6.914   8.397 -0.0880  0.0297  0.0058
  891YOPE   NH313173   4.799  13.400   5.904 -0.0028  0.2603 -0.2244
  891YOPE   PO413174   4.451  13.261   5.831  0.2312 -0.1011 -0.3029
  891YOPE   GL113175   4.333  13.251   6.247  0.1180 -0.0799  0.4413
  891YOPE   GL213176   4.458  13.494   6.434 -0.1578 -0.2970  0.0898
  891YOPE   C1A13177   4.141  13.182   6.622 -0.2042 -0.2529 -0.0653
  891YOPE   D2A13178   4.205  13.306   7.025  0.0432  0.2243  0.0400
  891YOPE   C3A13179   3.978  13.168   7.382  0.0283 -0.1819 -0.2188
  891YOPE   C4A13180   3.645  13.209   7.762  0.2295 -0.1584  0.1938
  891YOPE   C1B13181   4.443  13.738   6.776 -0.0822  0.1988 -0.0530
  891YOPE   C2B13182   4.436  13.702   7.215 -0.1133 -0.1342  0.1752
  891YOPE   D3B13183   4.346  13.783   7.537  0.0780  0.0891 -0.1702
  891YOPE   C4B13184   4.584  13.816   7.829  0.0462  0.1221  0.1471
  892YOPE   NH313185   0.537   0.831   6.654 -0.1453  0.0783  0.4098
  892YOPE   PO413186   0.460   1.208   6.425  0.1760  0.2209  0.5186
  892YOPE   GL113187   0.698   1.273   6.846  0.0965 -0.0828  0.1410
  892YOPE   GL213188   0.492   1.515   6.897 -0.0251 -0.1582  0.0370
  892YOPE   C1A13189   0.812   1.259   7.303 -0.3002  0.1304  0.0700
  892YOPE   D2A13190   1.007   1.401   7.627 -0.1054 -0.1890  0.2136
  892YOPE   C3A13191   1.075   1.355   8.072  0.0001 -0.2424 -0.2629
  892YOPE   C4A13192   1.332   1.378   8.507 -0.2160 -0.1005 -0.3165
  892YOPE   C1B13193   0.614   1.663   7.173 -0.0839 -0.1109 -0.1569
  892YOPE   C2B13194   0.430   1.613   7.582 -0.0520  0.2307  0.1655
  892YOPE   D3B13195   0.055   1.527   7.668  0.1848  0.0392  0.0341
  892YOPE   C4B13196  -0.065   1.870   7.867  0.0536  0.3093  0.0697
  893YOPE   NH313197  14.424  16.224   5.858  0.1134 -0.1389  0.2039
  893YOPE   PO413198  14.015  16.227   5.807  0.2558 -0.1077  0.1265
  893YOPE   GL113199  13.770  16.259   6.167  0.0770 -0.0759  0.1507
  893YOPE   GL213200  13.626  15.966   6.295  0.3543 -0.2148  0.2435
  893YOPE   C1A13201  13.717  16.315   6.643  0.0213  0.0208  0.4352
  893YOPE   D2A13202  13.426  16.340   7.016 -0.0483  0.0103  0.0918
  893YOPE   C3A13203  13.597  16.352   7.464  0.0914 -0.1823  0.0830
  893YOPE   C4A13204  13.843  16.479   7.803 -0.1336  0.1554  0.1139
  893YOPE   C1B13205  13.386  15.986   6.658  0.0293  0.2772 -0.3080
  893YOPE   C2B13206  13.091  15.692   6.807  0.1123 -0.6439 -0.0757
  893YOPE   D3B13207  12.821  15.490   7.028  0.0163  0.3989  0.3410
  893YOPE   C4B13208  12.537  15.135   7.017  0.3163 -0.2683 -0.2546
  894YOPE   NH313209  16.973   1.592   6.551  0.2461 -0.1398 -0.0316
  894YOPE   PO413210  16.938   1.190   6.405  0.0927 -0.1403 -0.2800
  894YOPE   GL113211  17.033   1.218   6.864 -0.0267 -0.0211  0.0466
  894YOPE   GL213212  17.364   1.217   6.727  0.2643  0.3335 -0.3196
  894YOPE   C1A13213  17.110   1.047   7.240  0.1600  0.1393  0.0714
  894YOPE   D2A13214  17.160   1.086   7.682  0.0360  0.0555 -0.1808
  894YOPE   C3A13215  17.351   1.124   8.123  0.1123  0.1654  0.0079
  894YOPE   C4A13216  17.363   0.812   8.490  0.1502  0.1219 -0.2025
  894YOPE   C1B13217  17.426   1.396   7.113  0.0757  0.2517 -0.2086
  894YOPE   C2B13218  17.607   1.200   7.464 -0.4236 -0.1626  0.3708
  894YOPE   D3B13219  17.751   1.082   7.829 -0.1554 -0.0721  0.0254
  894YOPE   C4B13220  17.734   0.757   8.108 -0.2238  0.0265  0.2460
  895YOPE   NH313221   3.376   8.273   5.814 -0.2462 -0.1111  0.1101
  895YOPE   PO413222   3.224   8.419   6.176 -0.1038  0.0379 -0.0648
  895YOPE   GL113223   3.517   8.711   6.407 -0.0020  0.0502  0.2241
  895YOPE   GL213224   3.452   8.464   6.697  0.1068  0.2666 -0.1158
  895YOPE   C1A13225   3.535   8.887   6.812  0.2413 -0.0451  0.2825
  895YOPE   D2A13226   3.754   9.009   7.126  0.0141  0.0980 -0.3040
  895YOPE   C3A13227   3.793   8.756   7.594  0.1183  0.1948  0.1563
  895YOPE   C4A13228   3.867   8.884   8.069  0.2585 -0.3126 -0.2989
  895YOPE   C1B13229   3.681   8.484   7.113 -0.1222 -0.1660 -0.0352
  895YOPE   C2B13230   3.901   8.288   7.421 -0.0078  0.3736  0.1984
  895YOPE   D3B13231   3.963   8.391   7.843  0.0735  0.1621 -0.1451
  895YOPE   C4B13232   4.081   8.253   8.282 -0.0075 -0.3074 -0.0969
  896YOPE   NH313233   1.681   6.195   6.365 -0.1194 -0.0249 -0.0386
  896YOPE   PO413234   2.093   6.326   6.368  0.0052  0.0182  0.1698
  896YOPE   GL113235   1.870   6.493   6.782 -0.0105  0.1738  0.2338
  896YOPE   GL213236   1.576   6.400   6.881 -0.2403  0.2551 -0.0078
  896YOPE   C1A13237   1.954   6.568   7.153 -0.1366 -0.2989  0.1003
  896YOPE   D2A13238   1.966   6.569   7.511  0.2091 -0.1839  0.0202
  896YOPE   C3A13239   1.846   6.970   7.785 -0.4292 -0.1706  0.0879
  896YOPE   C4A13240   1.920   7.355   8.016  0.0873 -0.1962  0.1510
  896YOPE   C1B13241   1.453   6.494   7.242  0.1694  0.1095  0.1569
  896YOPE   C2B13242   1.450   6.507   7.675 -0.0093 -0.2384 -0.2475
  896YOPE   D3B13243   1.729   6.550   8.000  0.1559  0.0596 -0.1687
  896YOPE   C4B13244   1.841   6.481   8.386 -0.3188  0.0567 -0.4331
  897YOPE   NH313245   5.459  12.667   5.950 -0.0327 -0.2553  0.0646
  897YOPE   PO413246   5.839  12.888   5.917 -0.1076 -0.0619 -0.0447
  897YOPE   GL113247   5.736  12.794   6.408 -0.1798  0.1280  0.1042
  897YOPE   GL213248   5.688  12.435   6.424 -0.0993 -0.2401  0.2779
  897YOPE   C1A13249   5.984  12.912   6.801  0.1817 -0.0049  0.1105
  897YOPE   D2A13250   6.066  12.842   7.290  0.1061  0.0000 -0.0721
  897YOPE   C3A13251   5.931  12.511   7.672 -0.4079  0.4559 -0.0026
  897YOPE   C4A13252   6.054  12.230   8.023  0.1837 -0.2663 -0.0587
  897YOPE   C1B13253   5.553  12.648   6.828 -0.1098  0.0556 -0.0152
  897YOPE   C2B13254   5.564  12.764   7.286  0.2215  0.0854 -0.0730
  897YOPE   D3B13255   5.273  12.823   7.678 -0.2775  0.3312 -0.0980
  897YOPE   C4B13256   5.394  13.005   8.137 -0.0091  0.0261 -0.1657
  898YOPE   NH313257   3.947  13.393   5.911 -0.0763 -0.2114  0.0372
  898YOPE   PO413258   4.005  13.021   5.950 -0.2604  0.0721 -0.1581
  898YOPE   GL113259   3.733  13.076   6.364 -0.1511 -0.1372  0.3490
  898YOPE   GL213260   3.531  13.390   6.407 -0.0575  0.2589  0.2227
  898YOPE   C1A13261   3.765  13.071   6.832 -0.0548  0.0501 -0.0893
  898YOPE   D2A13262   3.684  12.746   7.096 -0.1257 -0.0178 -0.2994
  898YOPE   C3A13263   3.307  12.575   7.202 -0.2091  0.1556  0.0805
  898YOPE   C4A13264   2.930  12.609   7.521  0.1977 -0.0946  0.1184
  898YOPE   C1B13265   3.497  13.476   6.787  0.0755  0.0206  0.1198
  898YOPE   C2B13266   3.659  13.473   7.220 -0.0306 -0.0847 -0.1126
  898YOPE   D3B13267   3.689  13.731   7.558  0.0750  0.0436 -0.0333
  898YOPE   C4B13268   3.454  13.633   8.024  0.3682 -0.1980 -0.2151
  899YOPE   NH313269  11.447   3.449   6.369  0.1598  0.2916  0.3228
  899YOPE   PO413270  11.857   3.323   6.392 -0.1460  0.4192 -0.0269
  899YOPE   GL113271  11.878   3.144   6.729 -0.3120  0.0557 -0.0905
  899YOPE   GL213272  11.616   2.987   6.710  0.6854 -0.0108  0.4754
  899YOPE   C1A13273  12.013   3.175   7.139  0.0754 -0.2140  0.0239
  899YOPE   D2A13274  11.753   3.440   7.373 -0.2356 -0.0084 -0.2530
  899YOPE   C3A13275  11.879   3.804   7.524 -0.0312 -0.3024 -0.0369
  899YOPE   C4A13276  12.002   4.120   7.363  0.1792 -0.1553  0.1657
  899YOPE   C1B13277  11.539   3.004   7.135  0.2301 -0.1811  0.1418
  899YOPE   C2B13278  11.573   2.984   7.516 -0.0027  0.0434 -0.1496
  899YOPE   D3B13279  11.231   3.079   7.812  0.2783 -0.3363  0.0163
  899YOPE   C4B13280  11.045   3.409   8.084 -0.2466  0.1467  0.3864
  900YOPE   NH313281   4.014  15.779   6.185 -0.0973 -0.0062 -0.0794
  900YOPE   PO413282   4.506  15.627   6.044 -0.0413  0.0219 -0.0225
  900YOPE   GL113283   4.415  15.660   6.548 -0.1344 -0.1003  0.3219
  900YOPE   GL213284   4.167  15.946   6.625 -0.0724 -0.0224  0.0156
  900YOPE   C1A13285   4.369  15.610   6.950 -0.2086 -0.2138 -0.0545
  900YOPE   D2A13286   4.456  15.506   7.396  0.3014 -0.2272 -0.0824
  900YOPE   C3A13287   4.090  15.502   7.727 -0.0821 -0.4279  0.3170
  900YOPE   C4A13288   4.210  15.405   8.139  0.0743 -0.0330  0.1254
  900YOPE   C1B13289   3.926  15.877   6.939 -0.1600  0.0930 -0.1979
  900YOPE   C2B13290   3.929  15.832   7.357  0.0168  0.0441 -0.0391
  900YOPE   D3B13291   3.634  15.820   7.663  0.0971 -0.2391 -0.1893
  900YOPE   C4B13292   3.180  16.004   7.863  0.3044 -0.0779 -0.0920
  901YOPE   NH313293   5.996  12.343   5.999  0.3701  0.0752  0.1367
  901YOPE   PO413294   6.380  12.157   6.096 -0.4432  0.0293  0.0035
  901YOPE   GL113295   6.070  11.925   6.324 -0.3626  0.2305  0.1643
  901YOPE   GL213296   6.093  11.615   6.410 -0.1766  0.1506  0.1470
  901YOPE   C1A13297   5.880  11.993   6.656  0.1117  0.1063  0.1079
  901YOPE   D2A13298   5.844  11.704   7.001  0.0991  0.0688  0.1231
  901YOPE   C3A13299   5.498  11.471   6.980  0.1410 -0.1142  0.0552
  901YOPE   C4A13300   5.187  11.247   6.913  0.0711  0.0435  0.1942
  901YOPE   C1B13301   6.316  11.599   6.778  0.2168  0.0432  0.2300
  901YOPE   C2B13302   6.290  11.676   7.228  0.0301  0.2882  0.2093
  901YOPE   D3B13303   6.594  11.645   7.453 -0.0358  0.0030 -0.3669
  901YOPE   C4B13304   6.724  11.698   7.875  0.0170  0.1371 -0.0024
  902YOPE   NH313305   1.310   6.955   6.184  0.1708  0.0670 -0.1005
  902YOPE   PO413306   1.249   7.221   5.817  0.2143 -0.1326  0.0737
  902YOPE   GL113307   1.364   7.627   6.160  0.1046 -0.0773  0.0975
  902YOPE   GL213308   1.355   7.577   6.486 -0.2210  0.0856 -0.2488
  902YOPE   C1A13309   1.230   8.044   6.252 -0.1280  0.2385 -0.3568
  902YOPE   D2A13310   1.298   8.408   6.542 -0.1672  0.1172  0.1134
  902YOPE   C3A13311   1.606   8.445   6.775 -0.2407  0.1450  0.2202
  902YOPE   C4A13312   2.105   8.492   6.697  0.2022  0.1435  0.0004
  902YOPE   C1B13313   1.484   7.912   6.780  0.0172  0.0460 -0.0276
  902YOPE   C2B13314   1.601   8.107   7.129  0.0784 -0.0446  0.1339
  902YOPE   D3B13315   1.472   8.451   7.358  0.0715 -0.0088  0.2454
  902YOPE   C4B13316   1.485   8.643   7.800  0.1236  0.0991 -0.0794
  903YOPE   NH313317  15.093  16.436   6.442 -0.0949 -0.3248 -0.1476
  903YOPE   PO413318  15.460  16.073   6.461  0.1525 -0.2583  0.1586
  903YOPE   GL113319  15.231  15.936   6.838  0.3653 -0.2409  0.2052
  903YOPE   GL213320  14.892  16.016   6.797 -0.1978  0.1013  0.1664
  903YOPE   C1A13321  15.177  15.920   7.256 -0.1537 -0.1346  0.0251
  903YOPE   D2A13322  15.125  15.811   7.690 -0.0592 -0.2104  0.2124
  903YOPE   C3A13323  15.017  16.182   7.891 -0.1173 -0.0060 -0.0077
  903YOPE   C4A13324  15.322  16.458   8.092 -0.1977 -0.1200  0.1035
  903YOPE   C1B13325  14.626  16.000   7.182  0.1404  0.0639  0.0757
  903YOPE   C2B13326  14.623  15.936   7.626 -0.0177 -0.0176  0.0796
  903YOPE   D3B13327  14.667  15.915   8.024  0.1965 -0.0417  0.3185
  903YOPE   C4B13328  14.472  15.875   8.428 -0.1332 -0.1898 -0.0321
  904YOPE   NH313329  13.003  17.140   6.003  0.1089  0.1955 -0.0239
  904YOPE   PO413330  12.671  17.444   6.056 -0.3578  0.0624 -0.1263
  904YOPE   GL113331  12.758  17.263   6.479  0.0453  0.1413 -0.2243
  904YOPE   GL213332  13.022  16.951   6.535  0.1309 -0.0185  0.1936
  904YOPE   C1A13333  12.654  17.297   6.908  0.0446  0.1455  0.4451
  904YOPE   D2A13334  12.210  17.268   7.298 -0.1397 -0.3638 -0.2662
  904YOPE   C3A13335  12.091  17.528   7.718 -0.0101 -0.4221  0.2185
  904YOPE   C4A13336  12.197  17.975   7.827  0.1549  0.1011  0.0216
  904YOPE   C1B13337  13.020  17.014   6.963  0.1499 -0.0106  0.0818
  904YOPE   C2B13338  12.722  17.141   7.360  0.1476 -0.1029 -0.0359
  904YOPE   D3B13339  12.587  17.404   7.593  0.1784  0.1716  0.1478
  904YOPE   C4B13340  12.622  17.791   7.760  0.2590 -0.1313  0.2040
  905YOPE   NH313341   1.549   3.913   6.327 -0.2795  0.0250  0.2476
  905YOPE   PO413342   1.996   4.047   6.251  0.1057 -0.0691 -0.0676
  905YOPE   GL113343   1.874   4.032   6.640 -0.0964  0.1387 -0.0798
  905YOPE   GL213344   1.629   4.106   6.729  0.0069  0.1945 -0.0157
  905YOPE   C1A13345   2.113   4.113   7.034  0.2996  0.1890 -0.0433
  905YOPE   D2A13346   1.989   3.984   7.472 -0.0537  0.2654  0.2082
  905YOPE   C3A13347   2.323   3.671   7.718  0.0608 -0.1368 -0.0068
  905YOPE   C4A13348   2.359   3.595   8.151  0.3415 -0.1979  0.2256
  905YOPE   C1B13349   1.534   4.019   7.215  0.1851 -0.3525  0.0990
  905YOPE   C2B13350   1.473   3.762   7.578  0.0270 -0.0367  0.1238
  905YOPE   D3B13351   1.205   3.598   7.885  0.0888  0.0251  0.2246
  905YOPE   C4B13352   0.862   3.680   8.217 -0.0305  0.2280  0.0727
  906YOPE   NH313353   9.850  13.114   5.936 -0.1006  0.3131  0.0091
  906YOPE   PO413354   9.588  12.794   6.018 -0.2564  0.2575  0.3351
  906YOPE   GL113355   9.720  12.921   6.389  0.0207  0.0865 -0.2114
  906YOPE   GL213356   9.822  12.597   6.427  0.0646  0.4670  0.0481
  906YOPE   C1A13357   9.576  12.955   6.772 -0.1257 -0.0509  0.1524
  906YOPE   D2A13358   9.560  12.749   7.082  0.1456 -0.1447 -0.2674
  906YOPE   C3A13359   9.475  12.351   7.044 -0.4075  0.1312  0.0698
  906YOPE   C4A13360   9.343  11.974   7.119 -0.1450  0.2874  0.2422
  906YOPE   C1B13361   9.989  12.553   6.868 -0.3565 -0.2633 -0.3054
  906YOPE   C2B13362   9.958  12.511   7.302 -0.0976  0.0593 -0.0713
  906YOPE   D3B13363  10.022  12.508   7.704 -0.0974 -0.1141 -0.0657
  906YOPE   C4B13364   9.971  12.641   8.042  0.3846 -0.1813  0.1436
  907YOPE   NH313365   9.160  17.081   6.203  0.1821  0.0132 -0.3837
  907YOPE   PO413366   9.050  17.602   6.143  0.1185  0.0506  0.0379
  907YOPE   GL113367   8.940  17.520   6.510 -0.0388  0.0159  0.0970
  907YOPE   GL213368   8.746  17.759   6.547 -0.1646 -0.1137  0.0093
  907YOPE   C1A13369   9.010  17.463   6.964  0.0919  0.2165 -0.0062
  907YOPE   D2A13370   9.061  17.732   7.303 -0.1131  0.0092 -0.1042
  907YOPE   C3A13371   8.877  17.984   7.609 -0.3003 -0.1233 -0.2149
  907YOPE   C4A13372   8.569  18.026   7.881 -0.0530 -0.4537  0.0405
  907YOPE   C1B13373   8.318  17.832   6.754  0.2270 -0.0034  0.0945
  907YOPE   C2B13374   8.085  17.799   7.156  0.2691  0.0334  0.1153
  907YOPE   D3B13375   8.192  17.875   7.566  0.0426 -0.5260  0.1698
  907YOPE   C4B13376   8.260  17.635   7.981 -0.1247  0.0888 -0.1193
  908YOPE   NH313377   4.977   4.888   6.343 -0.1722  0.1311  0.3171
  908YOPE   PO413378   5.191   4.520   6.454 -0.0913  0.2280 -0.1116
  908YOPE   GL113379   4.967   4.496   6.788  0.0196 -0.0595 -0.1062
  908YOPE   GL213380   4.826   4.797   6.838 -0.0591  0.0893 -0.2088
  908YOPE   C1A13381   5.017   4.596   7.234  0.2906  0.0325  0.1137
  908YOPE   D2A13382   4.961   4.303   7.555  0.0328  0.3542 -0.0345
  908YOPE   C3A13383   4.606   4.456   7.768  0.1287 -0.0781  0.2385
  908YOPE   C4A13384   4.199   4.387   7.851 -0.1183 -0.2630  0.1011
  908YOPE   C1B13385   4.592   4.955   7.189 -0.0705  0.1002  0.0239
  908YOPE   C2B13386   4.576   5.211   7.521 -0.2230 -0.1820 -0.0323
  908YOPE   D3B13387   4.700   5.316   7.913  0.0634  0.0611  0.1212
  908YOPE   C4B13388   4.943   5.619   8.041  0.0798 -0.0252  0.0216
  909YOPE   NH313389   8.319  13.810   5.756  0.3617  0.0187  0.0323
  909YOPE   PO413390   8.777  13.829   5.818  0.0973  0.1570 -0.1061
  909YOPE   GL113391   8.742  14.027   6.196  0.2043 -0.1474 -0.1428
  909YOPE   GL213392   8.930  14.376   6.153 -0.1107 -0.2216 -0.1657
  909YOPE   C1A13393   8.661  14.119   6.614  0.1376  0.2768 -0.0373
  909YOPE   D2A13394   8.585  14.264   7.035 -0.1514 -0.0105  0.2846
  909YOPE   C3A13395   8.249  14.064   7.281  0.1971  0.0208 -0.0527
  909YOPE   C4A13396   8.004  14.093   7.683 -0.0015  0.3994  0.0374
  909YOPE   C1B13397   8.653  14.768   6.318  0.2347 -0.1506  0.0558
  909YOPE   C2B13398   8.453  14.738   6.700 -0.1427  0.0479 -0.1398
  909YOPE   D3B13399   8.281  14.668   7.172 -0.2629 -0.3686  0.2130
  909YOPE   C4B13400   8.029  14.489   7.402 -0.1152  0.0159  0.0943
  910YOPE   NH313401  14.781   1.044   6.462 -0.0259  0.1325  0.2321
  910YOPE   PO413402  14.409   0.912   6.202  0.2538 -0.0237  0.0026
  910YOPE   GL113403  14.407   0.764   6.578 -0.0515 -0.4072 -0.2848
  910YOPE   GL213404  14.187   0.547   6.744 -0.0215  0.2489 -0.2166
  910YOPE   C1A13405  14.363   1.041   6.949 -0.0923  0.0897 -0.0614
  910YOPE   D2A13406  14.495   1.502   7.163  0.1447  0.2619  0.1446
  910YOPE   C3A13407  14.080   1.674   7.373 -0.0945  0.0008  0.1920
  910YOPE   C4A13408  13.681   1.892   7.399 -0.0131  0.0478 -0.0590
  910YOPE   C1B13409  14.117   0.639   7.154  0.0745  0.1761 -0.0323
  910YOPE   C2B13410  14.000   0.786   7.564  0.3751  0.2604 -0.2588
  910YOPE   D3B13411  13.858   0.530   7.936 -0.1022 -0.1106 -0.3209
  910YOPE   C4B13412  13.657   0.325   8.378 -0.1070  0.2062 -0.0896
  911YOPE   NH313413   5.766   7.458   6.293  0.5301  0.2064  0.3349
  911YOPE   PO413414   5.274   7.349   6.171  0.1625 -0.0278 -0.1033
  911YOPE   GL113415   5.259   7.111   6.548 -0.1774  0.1603 -0.1787
  911YOPE   GL213416   5.058   7.261   6.750 -0.3910  0.0985 -0.0274
  911YOPE   C1A13417   5.043   6.777   6.732  0.0442  0.1533  0.1238
  911YOPE   D2A13418   5.168   6.463   6.970 -0.3054 -0.0973  0.0111
  911YOPE   C3A13419   5.546   6.160   6.888  0.1770 -0.0224  0.4305
  911YOPE   C4A13420   5.871   6.020   6.987 -0.3916  0.0078  0.4917
  911YOPE   C1B13421   5.303   7.206   7.112 -0.2278  0.2431 -0.0380
  911YOPE   C2B13422   5.257   7.364   7.625  0.0788 -0.2081 -0.2325
  911YOPE   D3B13423   5.043   7.423   7.981  0.1169 -0.3109  0.1000
  911YOPE   C4B13424   4.842   7.572   8.402  0.0485  0.3308 -0.0898
  912YOPE   NH313425   0.939   6.498   6.181 -0.0554 -0.0768  0.1120
  912YOPE   PO413426   1.338   6.458   6.087 -0.1493 -0.3383 -0.0658
  912YOPE   GL113427   1.334   6.570   6.513 -0.0662 -0.2764 -0.1300
  912YOPE   GL213428   1.192   6.264   6.540 -0.3542 -0.1833  0.0439
  912YOPE   C1A13429   1.040   6.564   6.845  0.2158 -0.0310 -0.2033
  912YOPE   D2A13430   0.863   6.820   7.186  0.3053  0.2702 -0.2430
  912YOPE   C3A13431   1.023   6.770   7.565 -0.1110 -0.1967 -0.0056
  912YOPE   C4A13432   1.154   6.681   8.045  0.2269 -0.4075  0.0107
  912YOPE   C1B13433   1.102   6.044   6.985  0.1780 -0.0273  0.2647
  912YOPE   C2B13434   1.034   6.237   7.317 -0.2202 -0.1812 -0.0639
  912YOPE   D3B13435   0.710   6.404   7.503 -0.0028 -0.2276  0.0551
  912YOPE   C4B13436   0.378   6.659   7.735 -0.1477  0.0506 -0.1490
  913YOPE   NH313437   2.298  13.452   6.053 -0.0317 -0.0025 -0.0989
  913YOPE   PO413438   2.205  13.889   5.958  0.1181  0.1783  0.3854
  913YOPE   GL113439   2.400  13.970   6.407  0.0760 -0.0725 -0.0640
  913YOPE   GL213440   2.699  14.021   6.477 -0.1828  0.2012  0.0570
  913YOPE   C1A13441   2.255  14.196   6.795 -0.1978 -0.1337 -0.0626
  913YOPE   D2A13442   1.934  14.114   7.043 -0.1573 -0.0174  0.1071
  913YOPE   C3A13443   2.042  14.253   7.547  0.1788  0.2669  0.0214
  913YOPE   C4A13444   1.877  14.571   7.742 -0.0664 -0.3596  0.2798
  913YOPE   C1B13445   2.820  14.034   6.978  0.1061  0.0689  0.2998
  913YOPE   C2B13446   2.962  13.969   7.398  0.0118  0.0428 -0.0831
  913YOPE   D3B13447   2.925  13.935   7.822  0.0759 -0.6044 -0.1481
  913YOPE   C4B13448   3.099  14.109   8.204  0.3402  0.4021 -0.2651
  914YOPE   NH313449   3.124  10.174   5.720  0.0275  0.1845  0.2197
  914YOPE   PO413450   3.243  10.002   6.065 -0.0361  0.0522 -0.0898
  914YOPE   GL113451   3.011   9.747   6.332  0.0542  0.2154  0.3688
  914YOPE   GL213452   2.848   9.474   6.240  0.0170  0.0809 -0.0731
  914YOPE   C1A13453   3.085   9.569   6.769  0.1658 -0.1211  0.1951
  914YOPE   D2A13454   3.192   9.673   7.196 -0.3254  0.2333 -0.1677
  914YOPE   C3A13455   3.035   9.551   7.548 -0.1149 -0.0204  0.3316
  914YOPE   C4A13456   3.150   9.497   7.985 -0.0343  0.4360 -0.0235
  914YOPE   C1B13457   2.625   9.607   6.663 -0.1270  0.0910  0.0264
  914YOPE   C2B13458   2.675   9.561   7.053 -0.0549  0.1076 -0.0994
  914YOPE   D3B13459   2.522   9.481   7.467  0.2536  0.0730  0.0856
  914YOPE   C4B13460   2.337   9.252   7.793  0.2822  0.0091 -0.2889
  915YOPE   NH313461  15.342   1.661   6.543  0.2335  0.2945  0.3125
  915YOPE   PO413462  14.918   1.609   6.528 -0.2131 -0.1484 -0.0087
  915YOPE   GL113463  15.068   1.741   6.961  0.5123 -0.0456  0.1040
  915YOPE   GL213464  15.395   1.764   7.103  0.1179 -0.0196 -0.1106
  915YOPE   C1A13465  14.900   1.749   7.316  0.0340 -0.0449 -0.3248
  915YOPE   D2A13466  15.009   1.926   7.749 -0.0046 -0.0586  0.2602
  915YOPE   C3A13467  14.917   2.315   8.014 -0.3484  0.3408 -0.2080
  915YOPE   C4A13468  14.807   2.644   8.184  0.1447  0.1448  0.0512
  915YOPE   C1B13469  15.316   1.623   7.521  0.0374  0.0248  0.4096
  915YOPE   C2B13470  15.418   1.641   7.883  0.2048  0.1052  0.0651
  915YOPE   D3B13471  15.343   1.922   8.270  0.1619 -0.2490  0.2395
  915YOPE   C4B13472  15.200   1.860   8.747  0.0355 -0.2674 -0.1799
  916YOPE   NH313473   1.981   4.560   6.309  0.3291  0.1932 -0.0131
  916YOPE   PO413474   2.374   4.549   6.086  0.2484  0.0925 -0.0067
  916YOPE   GL113475   2.417   4.787   6.567 -0.2017 -0.0621  0.2016
  916YOPE   GL213476   2.541   5.051   6.627  0.2519 -0.1616  0.0610
  916YOPE   C1A13477   2.375   4.678   7.009  0.0687  0.0846 -0.0556
  916YOPE   D2A13478   2.314   4.750   7.523 -0.1985 -0.4034 -0.2380
  916YOPE   C3A13479   2.705   4.784   7.766 -0.1034  0.3475 -0.1554
  916YOPE   C4A13480   3.140   4.768   7.691 -0.0143 -0.1489  0.0160
  916YOPE   C1B13481   2.378   5.137   7.115 -0.0515 -0.0379 -0.1900
  916YOPE   C2B13482   2.609   5.168   7.523 -0.1987 -0.3102 -0.2700
  916YOPE   D3B13483   2.751   5.329   7.912 -0.1312  0.0879 -0.0079
  916YOPE   C4B13484   2.900   5.460   8.334 -0.0681  0.1771 -0.1807
  917YOPE   NH313485   6.975  13.584   6.047 -0.0290 -0.2018  0.1955
  917YOPE   PO413486   6.467  13.509   6.052  0.0155 -0.1946 -0.1031
  917YOPE   GL113487   6.287  13.343   6.315  0.1953 -0.1536 -0.1238
  917YOPE   GL213488   6.323  13.062   6.313 -0.0934  0.1526  0.1736
  917YOPE   C1A13489   6.151  13.431   6.729  0.2988 -0.0962  0.0152
  917YOPE   D2A13490   6.185  13.352   7.131 -0.2447 -0.4022  0.1362
  917YOPE   C3A13491   6.083  13.385   7.524  0.1769 -0.0176  0.1522
  917YOPE   C4A13492   5.687  13.585   7.781  0.1055  0.1863  0.0911
  917YOPE   C1B13493   6.410  12.999   6.667 -0.2015 -0.1721  0.1475
  917YOPE   C2B13494   6.633  13.071   7.054 -0.2799  0.3302 -0.2429
  917YOPE   D3B13495   6.583  13.282   7.419  0.0186  0.2009  0.0965
  917YOPE   C4B13496   6.530  13.352   7.794 -0.0173  0.1258 -0.1481
  918YOPE   NH313497   5.567  15.113   6.001 -0.3488  0.1481 -0.1205
  918YOPE   PO413498   5.745  14.887   6.328  0.0085  0.1925  0.0985
  918YOPE   GL113499   5.901  15.026   6.688  0.1462  0.1352 -0.1103
  918YOPE   GL213500   6.083  15.198   6.544 -0.4616  0.2786 -0.4067
  918YOPE   C1A13501   5.797  15.014   7.233 -0.0918  0.2612 -0.0182
  918YOPE   D2A13502   5.974  14.947   7.675  0.0889  0.2426 -0.1330
  918YOPE   C3A13503   6.000  15.377   7.900  0.0113 -0.0037  0.0221
  918YOPE   C4A13504   5.988  15.686   8.171  0.0716 -0.0914  0.1757
  918YOPE   C1B13505   6.162  15.259   7.030 -0.3093 -0.1492 -0.2866
  918YOPE   C2B13506   6.204  15.517   7.466  0.0581 -0.0077  0.0294
  918YOPE   D3B13507   5.925  15.901   7.677 -0.1437 -0.1600  0.1452
  918YOPE   C4B13508   5.636  16.241   7.888  0.0047  0.1238 -0.0829
  919YOPE   NH313509   6.150   9.800   5.958 -0.1653 -0.0076  0.1837
  919YOPE   PO413510   6.263  10.258   6.125 -0.1375 -0.0711  0.1335
  919YOPE   GL113511   6.484  10.288   6.495 -0.0259  0.1272  0.5245
  919YOPE   GL213512   6.546  10.598   6.526 -0.2328  0.0889  0.0272
  919YOPE   C1A13513   6.342  10.096   6.887 -0.3048 -0.1783  0.0014
  919YOPE   D2A13514   6.549   9.999   7.315 -0.0719  0.0324  0.1002
  919YOPE   C3A13515   6.343  10.247   7.697 -0.1049  0.1357 -0.1003
  919YOPE   C4A13516   5.940  10.394   7.890 -0.1547 -0.1509  0.2026
  919YOPE   C1B13517   6.635  10.583   6.945  0.0523  0.0466 -0.2798
  919YOPE   C2B13518   6.426  10.556   7.330 -0.0900  0.1375 -0.0140
  919YOPE   D3B13519   6.336  10.761   7.740 -0.2511 -0.2012 -0.0589
  919YOPE   C4B13520   6.030  10.942   8.031 -0.1149  0.1988 -0.0293
  920YOPE   NH313521   1.378  10.708   6.188 -0.0484 -0.2190 -0.0439
  920YOPE   PO413522   1.373  10.272   6.162 -0.2804 -0.2332  0.0292
  920YOPE   GL113523   1.535  10.023   6.491  0.0806 -0.2479 -0.1635
  920YOPE   GL213524   1.534   9.753   6.439  0.3104 -0.3982  0.0394
  920YOPE   C1A13525   1.906  10.064   6.752 -0.1223 -0.2549  0.0078
  920YOPE   D2A13526   2.304  10.045   6.962 -0.2068  0.2175  0.1269
  920YOPE   C3A13527   2.412  10.033   7.401 -0.1435  0.0928 -0.0314
  920YOPE   C4A13528   2.171   9.731   7.686  0.0813 -0.1725  0.0057
  920YOPE   C1B13529   1.626   9.749   6.910  0.2448  0.0470  0.1307
  920YOPE   C2B13530   1.891   9.973   7.282  0.0499  0.4127 -0.0028
  920YOPE   D3B13531   1.938  10.158   7.757 -0.1611  0.1200 -0.2244
  920YOPE   C4B13532   1.867  10.460   8.051 -0.2402 -0.0396 -0.0729
  921YOPE   NH313533  17.202   3.259   6.090  0.1452 -0.1222  0.2242
  921YOPE   PO413534  16.926   3.460   6.333 -0.0640  0.0454 -0.0329
  921YOPE   GL113535  16.859   3.529   6.800 -0.3600 -0.0044  0.2845
  921YOPE   GL213536  16.902   3.847   6.738  0.0946 -0.5337  0.3028
  921YOPE   C1A13537  16.835   3.487   7.204  0.2662  0.1530 -0.0621
  921YOPE   D2A13538  16.568   3.309   7.486 -0.2620  0.0783  0.0511
  921YOPE   C3A13539  16.642   3.262   7.916  0.3662 -0.0172 -0.2900
  921YOPE   C4A13540  16.766   3.369   8.284  0.2775  0.0711  0.3281
  921YOPE   C1B13541  16.635   3.892   7.082 -0.0572 -0.0113 -0.2269
  921YOPE   C2B13542  16.623   4.169   7.410 -0.3595 -0.3050  0.0712
  921YOPE   D3B13543  16.914   4.477   7.616 -0.2016  0.4658 -0.3066
  921YOPE   C4B13544  17.194   4.667   7.807  0.0572  0.2469 -0.3347
  922YOPE   NH313545   9.154  16.153   6.068 -0.1355  0.0919 -0.0673
  922YOPE   PO413546   9.243  16.551   6.221 -0.1889  0.0641 -0.0006
  922YOPE   GL113547   9.199  16.493   6.571  0.0264 -0.0174  0.0784
  922YOPE   GL213548   9.446  16.242   6.586  0.0788 -0.1976 -0.0206
  922YOPE   C1A13549   9.159  16.100   6.928 -0.0547 -0.0369  0.1418
  922YOPE   D2A13550   9.183  15.862   7.195  0.2699  0.0225 -0.1842
  922YOPE   C3A13551   8.793  15.972   7.448 -0.0084  0.3173  0.0027
  922YOPE   C4A13552   8.428  16.217   7.703 -0.3351 -0.4379 -0.0201
  922YOPE   C1B13553   9.512  16.474   6.995 -0.4401  0.1629 -0.1830
  922YOPE   C2B13554   9.545  16.395   7.359  0.0819 -0.2217  0.1999
  922YOPE   D3B13555   9.595  16.415   7.794 -0.3903  0.0226  0.0900
  922YOPE   C4B13556   9.235  16.428   8.043 -0.0488  0.0202 -0.0323
  923YOPE   NH313557   5.960   1.241   5.765  0.0792  0.1551  0.1224
  923YOPE   PO413558   6.082   1.715   5.599  0.0360  0.0942  0.0673
  923YOPE   GL113559   6.154   1.712   6.048  0.2518  0.0912 -0.3436
  923YOPE   GL213560   5.986   1.496   6.188 -0.2285 -0.2239 -0.1836
  923YOPE   C1A13561   6.341   1.847   6.394 -0.2585 -0.2509  0.0096
  923YOPE   D2A13562   6.271   1.819   6.821  0.0841 -0.1167 -0.0143
  923YOPE   C3A13563   6.103   2.129   7.109 -0.0121  0.2286  0.2504
  923YOPE   C4A13564   5.851   2.396   7.482  0.2036  0.3023 -0.1709
  923YOPE   C1B13565   5.948   1.429   6.597 -0.0432  0.0129 -0.0162
  923YOPE   C2B13566   5.908   1.051   6.793 -0.0573 -0.1983 -0.1515
  923YOPE   D3B13567   5.769   0.861   7.268 -0.1735  0.1263 -0.2219
  923YOPE   C4B13568   5.966   0.665   7.675  0.1167  0.1243 -0.0297
  924YOPE   NH313569  12.067  16.202   6.006  0.4408  0.2016  0.1514
  924YOPE   PO413570  11.803  16.462   6.297 -0.1152 -0.0935  0.4085
  924YOPE   GL113571  11.592  16.417   6.607  0.2425 -0.1062 -0.1016
  924YOPE   GL213572  11.411  16.616   6.617  0.1029  0.0340 -0.2128
  924YOPE   C1A13573  11.522  16.130   6.901 -0.0123 -0.2103  0.2740
  924YOPE   D2A13574  11.409  16.218   7.307  0.1001 -0.2284  0.1133
  924YOPE   C3A13575  11.605  16.140   7.690  0.1163 -0.1188 -0.1223
  924YOPE   C4A13576  11.928  16.151   7.973  0.2594 -0.4370 -0.1421
  924YOPE   C1B13577  11.158  16.527   6.986  0.0664  0.1303 -0.1055
  924YOPE   C2B13578  10.968  16.827   7.322  0.1348 -0.3223  0.0393
  924YOPE   D3B13579  11.008  17.052   7.718  0.1362  0.1565 -0.0034
  924YOPE   C4B13580  10.908  17.224   8.069 -0.0496 -0.1188 -0.0748
  925YOPE   NH313581   8.062  10.343   5.864  0.2307 -0.2789 -0.1011
  925YOPE   PO413582   7.598  10.496   5.986 -0.1725  0.1261 -0.1342
  925YOPE   GL113583   7.568  10.846   6.268 -0.1628  0.0959  0.2488
  925YOPE   GL213584   7.559  10.631   6.473  0.0369  0.4342  0.0406
  925YOPE   C1A13585   7.405  11.208   6.536  0.5932  0.0554 -0.2066
  925YOPE   D2A13586   7.219  11.576   6.544 -0.0729 -0.0537 -0.0381
  925YOPE   C3A13587   7.284  11.858   6.871 -0.4263  0.1522 -0.0461
  925YOPE   C4A13588   7.169  12.266   7.155 -0.1585 -0.4078  0.2547
  925YOPE   C1B13589   7.678  10.904   6.781 -0.1096  0.1550 -0.3573
  925YOPE   C2B13590   7.894  11.111   7.093 -0.2233 -0.0795 -0.2005
  925YOPE   D3B13591   7.998  11.420   7.370 -0.1593 -0.0866 -0.0929
  925YOPE   C4B13592   7.952  11.789   7.495  0.0976  0.1538 -0.2305
  926YOPE   NH313593   9.756   8.486   5.784 -0.0584 -0.2401 -0.0497
  926YOPE   PO413594  10.087   8.255   6.104 -0.2284  0.2858 -0.0656
  926YOPE   GL113595   9.993   8.231   6.531 -0.0968 -0.0592  0.2499
  926YOPE   GL213596  10.139   8.497   6.696  0.0829  0.1933  0.2457
  926YOPE   C1A13597   9.945   8.149   7.006  0.1814 -0.0132  0.0080
  926YOPE   D2A13598   9.940   8.223   7.447 -0.0528  0.4879 -0.1001
  926YOPE   C3A13599   9.867   7.968   7.674  0.1130 -0.0773 -0.1829
  926YOPE   C4A13600   9.670   7.977   8.049  0.0037  0.2136  0.2223
  926YOPE   C1B13601  10.534   8.370   6.901 -0.1222  0.2158 -0.0810
  926YOPE   C2B13602  11.037   8.352   7.004  0.1796  0.3247 -0.2542
  926YOPE   D3B13603  11.289   8.468   7.394 -0.3285  0.1398 -0.1705
  926YOPE   C4B13604  11.678   8.572   7.494  0.0408 -0.1957 -0.0052
  927YOPE   NH313605   6.555  16.836   5.880  0.1247 -0.1616  0.1501
  927YOPE   PO413606   6.399  16.573   5.815  0.2147 -0.0173  0.0248
  927YOPE   GL113607   6.727  16.460   6.213 -0.0029 -0.1204  0.0762
  927YOPE   GL213608   7.037  16.511   6.225 -0.0635 -0.0609  0.0614
  927YOPE   C1A13609   6.769  16.227   6.637 -0.0952  0.1722 -0.2140
  927YOPE   D2A13610   6.716  16.151   7.047  0.5924  0.3103  0.0734
  927YOPE   C3A13611   6.795  16.299   7.372 -0.0150  0.4248  0.1348
  927YOPE   C4A13612   6.966  16.445   7.708  0.0609  0.0393 -0.4505
  927YOPE   C1B13613   6.899  16.773   6.588 -0.0862  0.0874  0.0230
  927YOPE   C2B13614   6.877  17.125   6.882  0.0125 -0.1593 -0.4307
  927YOPE   D3B13615   6.926  17.454   7.252 -0.2541 -0.2316  0.0650
  927YOPE   C4B13616   7.059  17.515   7.728  0.1238  0.1766  0.2105
  928YOPE   NH313617   5.967   3.979   6.202 -0.0181 -0.2317  0.0883
  928YOPE   PO413618   6.180   4.276   6.141  0.1965  0.4559 -0.3518
  928YOPE   GL113619   6.297   4.426   6.518  0.0575 -0.1186  0.1485
  928YOPE   GL213620   6.078   4.251   6.711 -0.1918  0.3243 -0.0728
  928YOPE   C1A13621   6.282   4.604   6.960  0.1935 -0.2821  0.0593
  928YOPE   D2A13622   6.012   4.716   7.390 -0.0383  0.1362  0.4599
  928YOPE   C3A13623   5.999   4.695   7.731 -0.2887 -0.2074  0.2359
  928YOPE   C4A13624   5.788   4.464   7.903 -0.0615  0.4865  0.0564
  928YOPE   C1B13625   5.908   4.248   7.110  0.1182 -0.1849 -0.2143
  928YOPE   C2B13626   5.883   4.192   7.496  0.1031  0.3980 -0.0122
  928YOPE   D3B13627   5.834   3.968   7.978  0.2773 -0.1778 -0.0941
  928YOPE   C4B13628   5.812   3.667   8.420 -0.1887 -0.0433 -0.2150
  929YOPE   NH313629  10.140   6.388   6.256 -0.1993 -0.2293 -0.0556
  929YOPE   PO413630  10.283   6.906   6.186  0.1082 -0.1120  0.4858
  929YOPE   GL113631   9.921   6.801   6.477  0.1252 -0.1196 -0.1114
  929YOPE   GL213632  10.114   6.690   6.695 -0.3124 -0.3432 -0.0357
  929YOPE   C1A13633   9.659   6.922   6.763  0.0131  0.1235 -0.2940
  929YOPE   D2A13634   9.592   7.018   7.082 -0.1753 -0.0393 -0.0294
  929YOPE   C3A13635   9.491   6.879   7.449 -0.2391 -0.1475 -0.0871
  929YOPE   C4A13636   9.537   6.928   7.865 -0.1290 -0.1941 -0.0767
  929YOPE   C1B13637   9.897   6.590   7.095  0.2784  0.2527 -0.0613
  929YOPE   C2B13638   9.720   6.486   7.446 -0.2087  0.2423  0.2215
  929YOPE   D3B13639   9.631   6.456   7.829  0.0726  0.0256 -0.0017
  929YOPE   C4B13640   9.544   6.637   8.330 -0.0851 -0.0438 -0.1928
  930YOPE   NH313641   9.777  16.524   6.359  0.0936 -0.0481  0.0528
  930YOPE   PO413642   9.645  16.917   6.160  0.2291  0.1044  0.1276
  930YOPE   GL113643   9.479  16.886   6.584  0.0810 -0.0772 -0.1099
  930YOPE   GL213644   9.814  16.878   6.748  0.0194 -0.1220  0.1513
  930YOPE   C1A13645   9.387  16.958   7.023 -0.1064  0.1334  0.0602
  930YOPE   D2A13646   9.295  17.232   7.314 -0.2104 -0.1398 -0.2415
  930YOPE   C3A13647   9.111  17.370   7.606  0.1678  0.1840  0.2006
  930YOPE   C4A13648   9.260  17.427   8.071  0.0493  0.1003 -0.2787
  930YOPE   C1B13649   9.824  16.816   7.187 -0.2205  0.0556  0.1267
  930YOPE   C2B13650   9.844  16.732   7.587 -0.1475 -0.0858  0.0689
  930YOPE   D3B13651  10.123  16.730   7.891 -0.0598 -0.2714  0.2120
  930YOPE   C4B13652  10.302  16.401   8.032 -0.4645 -0.0301 -0.0312
  931YOPE   NH313653   6.496   4.862   6.222 -0.2323  0.0489 -0.2005
  931YOPE   PO413654   6.836   5.074   6.348 -0.0162  0.1559  0.0070
  931YOPE   GL113655   7.089   5.010   6.636 -0.2140  0.2558 -0.1478
  931YOPE   GL213656   7.479   4.985   6.538 -0.2221 -0.1688 -0.1562
  931YOPE   C1A13657   7.020   4.929   7.070  0.1754  0.1287  0.1917
  931YOPE   D2A13658   6.682   4.789   7.248 -0.0713  0.1465  0.1666
  931YOPE   C3A13659   6.470   4.718   7.618  0.1234 -0.0039  0.0306
  931YOPE   C4A13660   6.415   4.646   8.000 -0.4163  0.0723  0.0484
  931YOPE   C1B13661   7.546   4.935   6.959 -0.2059 -0.1131  0.2057
  931YOPE   C2B13662   7.532   4.739   7.291  0.0488  0.1426  0.1771
  931YOPE   D3B13663   7.445   4.752   7.692 -0.0261 -0.3662  0.2714
  931YOPE   C4B13664   7.582   4.810   8.128 -0.1360  0.1415  0.0346
  932POPC   NC313665   6.796   9.981   6.265 -0.0552  0.1884  0.0693
  932POPC   PO413666   7.031   9.686   6.107 -0.0373 -0.2138 -0.0171
  932POPC   GL113667   7.064   9.743   6.643  0.0575  0.2428 -0.0323
  932POPC   GL213668   6.691   9.776   6.739  0.0626 -0.1041  0.3201
  932POPC   C1A13669   7.291   9.666   6.970 -0.2130  0.1087 -0.0529
  932POPC   D2A13670   7.461   9.775   7.435  0.3365 -0.2646 -0.0571
  932POPC   C3A13671   7.324   9.864   7.790  0.0243 -0.0136 -0.0605
  932POPC   C4A13672   7.340  10.222   8.108  0.1222  0.0773 -0.0586
  932POPC   C1B13673   6.844   9.666   7.140 -0.3486 -0.0933 -0.0532
  932POPC   C2B13674   6.944   9.697   7.475 -0.2564  0.2122 -0.0620
  932POPC   C3B13675   6.819   9.942   7.820  0.1103 -0.1439  0.0589
  932POPC   C4B13676   6.850  10.007   8.194  0.1151 -0.0902  0.3910
  933POPC   NC313677   8.298   1.453   5.596  0.3924  0.1796  0.0579
  933POPC   PO413678   8.646   1.586   5.868  0.0734 -0.1570  0.0356
  933POPC   GL113679   8.511   1.406   6.227 -0.0129  0.0273  0.0429
  933POPC   GL213680   8.315   1.220   6.061  0.1152  0.0031  0.2072
  933POPC   C1A13681   8.391   1.367   6.620 -0.1525  0.3276  0.0443
  933POPC   D2A13682   8.395   1.326   7.083  0.3378 -0.0475  0.4545
  933POPC   C3A13683   8.045   1.404   7.298  0.2491 -0.1124  0.1890
  933POPC   C4A13684   7.782   1.341   7.704  0.0078  0.0361 -0.2310
  933POPC   C1B13685   8.255   0.912   6.368 -0.1943  0.1033 -0.1041
  933POPC   C2B13686   8.226   0.847   6.829 -0.3721  0.0511 -0.0782
  933POPC   C3B13687   8.181   0.848   7.251 -0.2852 -0.1565 -0.0436
  933POPC   C4B13688   8.196   1.023   7.589 -0.0048 -0.0595  0.2882
  934POPC   NC313689   4.361   3.419   6.224  0.3247 -0.0136 -0.2610
  934POPC   PO413690   4.540   3.658   6.502  0.0407  0.0059  0.0300
  934POPC   GL113691   4.514   4.056   6.747 -0.2491 -0.0033  0.0827
  934POPC   GL213692   4.427   4.440   6.798 -0.0151 -0.1039  0.1815
  934POPC   C1A13693   4.875   4.110   7.102  0.0465 -0.1162  0.2201
  934POPC   D2A13694   5.124   3.846   7.413  0.2419  0.1154 -0.0019
  934POPC   C3A13695   5.115   3.399   7.462 -0.2884 -0.2370  0.1099
  934POPC   C4A13696   5.346   3.101   7.690  0.0859  0.3799 -0.0409
  934POPC   C1B13697   4.539   4.395   7.313  0.0724  0.0166 -0.1985
  934POPC   C2B13698   4.510   4.034   7.546 -0.3497  0.0640  0.0386
  934POPC   C3B13699   4.169   3.881   7.665  0.2717  0.2931 -0.4392
  934POPC   C4B13700   3.849   3.631   7.805 -0.1510 -0.0644  0.0485
  935POPC   NC313701  12.131  12.207   5.598  0.1802 -0.0951 -0.1135
  935POPC   PO413702  11.754  12.358   5.682  0.0548  0.1071 -0.0133
  935POPC   GL113703  11.572  12.320   6.128  0.0315  0.0038  0.0510
  935POPC   GL213704  11.471  12.045   6.217 -0.1627  0.1335 -0.2054
  935POPC   C1A13705  11.767  12.489   6.450 -0.0710  0.0972  0.2769
  935POPC   D2A13706  12.132  12.558   6.536 -0.1225  0.0502 -0.4245
  935POPC   C3A13707  12.385  12.790   6.874  0.1488  0.4404  0.1511
  935POPC   C4A13708  12.517  12.590   7.178  0.1041  0.0590 -0.1530
  935POPC   C1B13709  11.453  11.708   6.604  0.1765 -0.0408 -0.0489
  935POPC   C2B13710  11.202  11.572   6.982  0.2350 -0.0637  0.0692
  935POPC   C3B13711  11.026  11.772   7.329  0.2074  0.0204 -0.2189
  935POPC   C4B13712  11.173  11.984   7.582 -0.0903  0.1406  0.0566
  936POPC   NC313713  13.000   0.423   5.769 -0.2866  0.0814  0.0158
  936POPC   PO413714  13.109   0.022   5.947 -0.1149 -0.0484 -0.1270
  936POPC   GL113715  13.052  -0.103   6.345  0.2615  0.1418 -0.0028
  936POPC   GL213716  13.305  -0.004   6.486 -0.1233  0.0959  0.1982
  936POPC   C1A13717  12.851  -0.052   6.754  0.0603 -0.0457 -0.3640
  936POPC   D2A13718  12.751  -0.021   7.191 -0.0546  0.0854  0.1248
  936POPC   C3A13719  12.369  -0.090   7.286  0.2640  0.2839 -0.0376
  936POPC   C4A13720  11.912   0.162   7.408  0.0815 -0.0158 -0.1140
  936POPC   C1B13721  13.303   0.066   6.921 -0.4164 -0.4627 -0.0680
  936POPC   C2B13722  13.223   0.231   7.269 -0.0045 -0.0439 -0.0220
  936POPC   C3B13723  13.189   0.233   7.666  0.0856  0.3769 -0.1555
  936POPC   C4B13724  13.474   0.164   7.962  0.0913  0.0514  0.0823
  937POPC   NC313725   0.728   2.662   6.424 -0.0883  0.2759 -0.0952
  937POPC   PO413726   0.916   3.140   6.391 -0.0611  0.1264  0.0764
  937POPC   GL113727   1.107   3.162   6.746  0.1194  0.1421 -0.0063
  937POPC   GL213728   1.494   3.148   6.783  0.2457  0.1146 -0.4713
  937POPC   C1A13729   0.853   3.045   7.094  0.1387 -0.1105  0.0979
  937POPC   D2A13730   0.890   3.017   7.508  0.1181  0.0015  0.0151
  937POPC   C3A13731   0.591   2.942   7.917 -0.4415  0.1030  0.2002
  937POPC   C4A13732   0.462   2.612   8.177  0.2933 -0.2972  0.1032
  937POPC   C1B13733   1.330   3.147   7.174 -0.1271  0.0909 -0.2270
  937POPC   C2B13734   1.421   3.225   7.582  0.1750  0.1693 -0.1271
  937POPC   C3B13735   1.656   3.192   7.964  0.0788 -0.1349  0.2580
  937POPC   C4B13736   1.560   3.495   8.281 -0.0806  0.0903  0.4026
  938POPC   NC313737  11.937  11.074   6.061 -0.1013  0.1110  0.2759
  938POPC   PO413738  12.353  10.934   6.117  0.0130 -0.1409  0.0799
  938POPC   GL113739  12.317  11.163   6.461 -0.1595  0.1089  0.0546
  938POPC   GL213740  12.527  11.364   6.464 -0.1225  0.0599 -0.0799
  938POPC   C1A13741  11.984  11.378   6.671  0.2077 -0.3110 -0.0249
  938POPC   D2A13742  11.752  11.594   7.041  0.0123 -0.0007  0.0848
  938POPC   C3A13743  11.777  11.871   7.509 -0.1891 -0.0797  0.0806
  938POPC   C4A13744  11.917  12.250   7.739 -0.2804  0.4020  0.0280
  938POPC   C1B13745  12.674  11.140   6.816  0.1586 -0.2969  0.0649
  938POPC   C2B13746  12.850  10.988   7.192 -0.0499  0.1119  0.0298
  938POPC   C3B13747  12.963  11.127   7.519  0.1578 -0.1729  0.1472
  938POPC   C4B13748  13.027  11.279   7.989  0.1603  0.0528  0.2157
  939POPC   NC313749   4.676   7.499   6.507 -0.0805  0.0435 -0.2186
  939POPC   PO413750   4.421   7.803   6.265 -0.0282  0.1198 -0.2036
  939POPC   GL113751   4.449   8.059   6.527 -0.0868  0.0304  0.0995
  939POPC   GL213752   4.746   7.984   6.677  0.1795  0.1360 -0.3280
  939POPC   C1A13753   4.354   8.171   6.896 -0.1139  0.0967  0.0457
  939POPC   D2A13754   4.444   8.243   7.307 -0.2824 -0.2508  0.2126
  939POPC   C3A13755   4.514   7.867   7.534 -0.2690 -0.2870  0.2133
  939POPC   C4A13756   4.560   7.691   7.916 -0.1759 -0.3490 -0.1981
  939POPC   C1B13757   4.601   7.763   7.071 -0.4408  0.0074 -0.2812
  939POPC   C2B13758   4.750   7.395   7.170 -0.1923  0.0699  0.1351
  939POPC   C3B13759   4.802   7.240   7.570  0.1380 -0.0199  0.1842
  939POPC   C4B13760   4.577   7.091   7.950 -0.1212 -0.0415  0.2405
  940POPC   NC313761  15.562  12.201   6.537 -0.0869 -0.1217 -0.0710
  940POPC   PO413762  15.262  11.949   6.415 -0.0974  0.0408  0.0017
  940POPC   GL113763  15.024  11.946   6.756 -0.3177  0.2070 -0.1527
  940POPC   GL213764  15.242  12.052   6.957 -0.0587 -0.1951 -0.2425
  940POPC   C1A13765  14.989  11.675   7.131 -0.3154  0.0597 -0.2616
  940POPC   D2A13766  14.981  11.593   7.486 -0.0050  0.1636 -0.0074
  940POPC   C3A13767  15.100  11.279   7.790 -0.1782 -0.1107  0.0418
  940POPC   C4A13768  15.168  10.815   7.803 -0.0782 -0.2516  0.1076
  940POPC   C1B13769  15.368  11.990   7.339 -0.3581 -0.0027 -0.0739
  940POPC   C2B13770  15.350  11.921   7.788 -0.0920 -0.1588 -0.0946
  940POPC   C3B13771  15.533  12.082   8.162  0.1528 -0.1874  0.1587
  940POPC   C4B13772  15.679  12.269   8.572  0.3007  0.1892 -0.2853
  941POPC   NC313773  12.798   8.514   6.267 -0.0967 -0.2143 -0.0933
  941POPC   PO413774  12.627   8.858   6.143  0.2490 -0.1469  0.2223
  941POPC   GL113775  12.712   8.996   6.587 -0.2370 -0.1506  0.3256
  941POPC   GL213776  12.681   9.282   6.557 -0.1397 -0.0151 -0.2514
  941POPC   C1A13777  12.788   8.850   6.949  0.1164  0.1899  0.1356
  941POPC   D2A13778  13.006   9.196   7.234  0.0380  0.0190  0.1946
  941POPC   C3A13779  13.194   9.078   7.568 -0.1620  0.0479  0.0015
  941POPC   C4A13780  13.345   8.772   7.828  0.1054  0.1422  0.1316
  941POPC   C1B13781  12.593   9.487   7.009  0.2328  0.2907 -0.1477
  941POPC   C2B13782  12.682   9.628   7.431 -0.1272  0.1661  0.1358
  941POPC   C3B13783  12.509   9.753   7.852 -0.0668  0.1423  0.1128
  941POPC   C4B13784  12.327   9.799   8.207 -0.1761 -0.3135 -0.1385
  942POPC   NC313785  14.305  14.362   6.342 -0.3560  0.0502  0.1966
  942POPC   PO413786  13.849  14.551   6.411  0.1235 -0.0437  0.0571
  942POPC   GL113787  14.121  14.511   6.808  0.0576 -0.3390  0.0768
  942POPC   GL213788  14.458  14.604   6.770 -0.0509  0.3674  0.0211
  942POPC   C1A13789  13.924  14.375   7.214 -0.1191 -0.0503  0.0224
  942POPC   D2A13790  13.606  14.456   7.459  0.0754  0.0449 -0.0841
  942POPC   C3A13791  13.564  14.484   7.943 -0.0779 -0.0284 -0.1666
  942POPC   C4A13792  13.549  14.665   8.410  0.0945  0.1309  0.1710
  942POPC   C1B13793  14.536  14.499   7.200  0.1608 -0.0098  0.1410
  942POPC   C2B13794  14.677  14.177   7.444  0.2320  0.2451  0.1216
  942POPC   C3B13795  14.665  14.110   7.929 -0.0763  0.1675  0.0436
  942POPC   C4B13796  14.346  14.205   8.320 -0.0874  0.1808 -0.2281
  943POPC   NC313797   0.525  15.037   6.237 -0.1824 -0.0778 -0.2990
  943POPC   PO413798   0.186  14.637   6.135  0.0071  0.2240  0.0796
  943POPC   GL113799   0.246  14.740   6.571 -0.3004  0.3093 -0.1689
  943POPC   GL213800   0.299  14.493   6.721  0.0665  0.1793 -0.0758
  943POPC   C1A13801   0.345  15.075   6.921 -0.0934 -0.0211  0.0240
  943POPC   D2A13802   0.162  15.061   7.336 -0.0602  0.1266 -0.1633
  943POPC   C3A13803   0.193  15.322   7.718 -0.1889 -0.0071  0.1872
  943POPC   C4A13804  -0.030  15.638   7.978 -0.4952  0.0564 -0.1924
  943POPC   C1B13805   0.379  14.606   7.170  0.1657 -0.0065  0.1115
  943POPC   C2B13806   0.659  14.837   7.435  0.0953 -0.1383 -0.2241
  943POPC   C3B13807   0.965  14.811   7.845  0.0658  0.1313  0.2155
  943POPC   C4B13808   0.981  15.149   8.045 -0.1318 -0.2103 -0.2122
  944POPC   NC313809   8.053  15.601   5.561 -0.2937 -0.3759  0.1800
  944POPC   PO413810   8.140  15.998   5.575  0.2237 -0.2491  0.2413
  944POPC   GL113811   8.134  15.851   6.000  0.0184  0.3094  0.0749
  944POPC   GL213812   8.305  15.783   6.176 -0.0158 -0.1232 -0.0669
  944POPC   C1A13813   7.761  15.660   6.145  0.1713  0.1166  0.0481
  944POPC   D2A13814   7.743  15.305   6.442  0.3597  0.3347  0.1289
  944POPC   C3A13815   8.083  15.153   6.483 -0.1485  0.0004 -0.3229
  944POPC   C4A13816   8.441  15.270   6.270  0.1928  0.0107  0.1266
  944POPC   C1B13817   8.104  15.621   6.502  0.0120 -0.1759 -0.2663
  944POPC   C2B13818   7.943  15.507   6.833  0.0270  0.1455 -0.2715
  944POPC   C3B13819   7.942  15.521   7.146  0.2452 -0.0115 -0.1071
  944POPC   C4B13820   7.977  15.521   7.631  0.0655  0.2628 -0.1301
  945POPC   NC313821  17.343  11.715   6.334  0.1831  0.2950  0.2321
  945POPC   PO413822  16.880  11.653   6.307  0.6228  0.1190 -0.1468
  945POPC   GL113823  16.913  11.763   6.663  0.1762 -0.2317  0.2550
  945POPC   GL213824  17.045  12.046   6.662 -0.0662  0.1736  0.0974
  945POPC   C1A13825  16.611  11.781   7.066  0.2306 -0.0145 -0.1212
  945POPC   D2A13826  16.219  11.718   7.234 -0.3993  0.0050 -0.2164
  945POPC   C3A13827  16.013  11.451   6.990 -0.0594  0.0284 -0.1527
  945POPC   C4A13828  15.664  11.220   6.769 -0.1703  0.0498  0.0754
  945POPC   C1B13829  17.004  12.063   7.104  0.1111  0.4328 -0.0722
  945POPC   C2B13830  17.049  12.163   7.493  0.1803  0.0203  0.2916
  945POPC   C3B13831  17.354  12.155   7.759  0.2440 -0.1622 -0.2313
  945POPC   C4B13832  17.405  11.731   8.098  0.2130  0.0512 -0.2810
  946POPC   NC313833   5.386  14.554   5.894  0.1540 -0.2446  0.0219
  946POPC   PO413834   5.780  14.338   6.022 -0.2373 -0.1582 -0.0160
  946POPC   GL113835   5.651  14.157   6.354 -0.0013 -0.0313 -0.1542
  946POPC   GL213836   5.352  14.080   6.466 -0.0683 -0.1897 -0.1012
  946POPC   C1A13837   5.797  13.873   6.788  0.3260 -0.0045  0.1213
  946POPC   D2A13838   5.910  13.741   7.222  0.0927 -0.4049  0.2351
  946POPC   C3A13839   5.764  14.080   7.609 -0.3293 -0.1830 -0.2056
  946POPC   C4A13840   5.701  14.274   8.007  0.2406 -0.2761 -0.0180
  946POPC   C1B13841   5.377  14.024   6.928  0.0400  0.1216 -0.3061
  946POPC   C2B13842   5.354  14.270   7.334 -0.1788 -0.0583  0.1063
  946POPC   C3B13843   5.602  14.556   7.498  0.1281 -0.2436 -0.1665
  946POPC   C4B13844   5.611  14.715   7.909 -0.0099 -0.0562 -0.0293
  947POPC   NC313845  14.508  10.676   6.307 -0.0280  0.2041  0.3701
  947POPC   PO413846  14.624  10.247   6.197  0.3931 -0.0277  0.3595
  947POPC   GL113847  14.693  10.341   6.634 -0.1125  0.3367  0.0682
  947POPC   GL213848  14.617  10.063   6.725  0.1658  0.1414  0.1505
  947POPC   C1A13849  15.071  10.494   6.851 -0.1892 -0.1038  0.2301
  947POPC   D2A13850  15.110  10.503   7.221  0.1842  0.0431  0.1613
  947POPC   C3A13851  14.829  10.529   7.564 -0.0942 -0.0439  0.2394
  947POPC   C4A13852  14.674  10.439   7.931 -0.3283 -0.3342 -0.2810
  947POPC   C1B13853  14.618  10.239   7.127 -0.0754  0.0043  0.0224
  947POPC   C2B13854  14.625  10.110   7.546 -0.0160  0.0924  0.0082
  947POPC   C3B13855  14.310  10.120   7.937 -0.3563 -0.0788  0.3263
  947POPC   C4B13856  14.302  10.301   8.290 -0.2281 -0.1850  0.0567
  948POPC   NC313857  17.661   6.680   6.344 -0.3027 -0.1900 -0.0759
  948POPC   PO413858  17.463   6.244   6.547  0.0454  0.0469  0.0207
  948POPC   GL113859  17.618   6.507   6.870  0.3778  0.0759 -0.1092
  948POPC   GL213860  17.890   6.707   6.784 -0.3226 -0.0994  0.0341
  948POPC   C1A13861  17.679   6.684   7.341 -0.0850  0.0688  0.1296
  948POPC   D2A13862  17.720   6.634   7.719 -0.1030 -0.0881 -0.3117
  948POPC   C3A13863  17.468   6.265   7.949  0.1318  0.0069  0.0870
  948POPC   C4A13864  17.284   5.954   7.786  0.0243  0.0602 -0.2632
  948POPC   C1B13865  17.706   7.088   6.949 -0.0807 -0.3850 -0.1573
  948POPC   C2B13866  17.758   7.460   7.122 -0.0045 -0.1884 -0.2043
  948POPC   C3B13867  18.113   7.513   7.309  0.0181  0.0853  0.1895
  948POPC   C4B13868  18.277   7.895   7.566 -0.1259  0.1768  0.1875
  949POPC   NC313869  17.203   6.431   6.103 -0.1627 -0.1854  0.0745
  949POPC   PO413870  17.221   6.872   6.151 -0.0396 -0.0737 -0.1280
  949POPC   GL113871  17.054   6.751   6.463  0.1721  0.0211  0.0264
  949POPC   GL213872  17.290   6.853   6.723  0.1255 -0.2670  0.1653
  949POPC   C1A13873  16.922   6.449   6.779 -0.2989 -0.2084 -0.1352
  949POPC   D2A13874  17.044   6.018   6.814 -0.0867  0.1273 -0.0874
  949POPC   C3A13875  17.165   5.918   7.237  0.0603  0.0589  0.0844
  949POPC   C4A13876  17.471   5.584   7.465  0.1187 -0.2077 -0.0472
  949POPC   C1B13877  17.246   6.803   7.147 -0.4094  0.1445 -0.2769
  949POPC   C2B13878  17.269   6.793   7.617 -0.1352 -0.3595 -0.1170
  949POPC   C3B13879  17.320   6.800   8.115 -0.2469  0.3282 -0.0983
  949POPC   C4B13880  17.534   7.040   8.313  0.3767 -0.0555  0.0874
  950POPC   NC313881   9.818   7.071   6.001  0.3456  0.3061 -0.2816
  950POPC   PO413882   9.290   7.105   6.060  0.0720 -0.1197  0.0758
  950POPC   GL113883   8.956   7.233   6.380  0.4930  0.0329  0.2937
  950POPC   GL213884   8.623   7.061   6.422  0.0719 -0.0952  0.2340
  950POPC   C1A13885   8.814   7.502   6.772 -0.0685 -0.0691 -0.1545
  950POPC   D2A13886   8.533   7.872   6.866 -0.0672  0.0996 -0.0930
  950POPC   C3A13887   8.528   7.836   7.267  0.1677  0.2118  0.1138
  950POPC   C4A13888   8.414   8.037   7.588 -0.1807 -0.3096  0.1890
  950POPC   C1B13889   8.650   6.706   6.769 -0.3317 -0.1572 -0.3232
  950POPC   C2B13890   8.689   6.632   7.153 -0.0793  0.1322 -0.0838
  950POPC   C3B13891   8.512   6.648   7.550 -0.0852  0.1669  0.3253
  950POPC   C4B13892   8.371   7.076   7.704  0.0880 -0.1950 -0.1280
  951POPC   NC313893   4.208   8.080   5.926 -0.2565  0.0750  0.1971
  951POPC   PO413894   3.852   8.419   6.038 -0.2582 -0.1088  0.0106
  951POPC   GL113895   3.896   8.394   6.424  0.1408  0.1481 -0.2804
  951POPC   GL213896   4.028   8.648   6.740 -0.1588 -0.0867  0.1587
  951POPC   C1A13897   3.857   8.168   6.815 -0.0317 -0.2313  0.0682
  951POPC   D2A13898   4.026   7.814   6.975 -0.1305  0.2198  0.2173
  951POPC   C3A13899   4.059   7.781   7.364  0.0079 -0.1380  0.4031
  951POPC   C4A13900   4.092   7.864   7.812 -0.2863  0.0566 -0.0778
  951POPC   C1B13901   4.190   8.654   7.096  0.2504  0.4399 -0.1879
  951POPC   C2B13902   4.308   8.656   7.527 -0.1190  0.0845  0.0379
  951POPC   C3B13903   4.360   8.675   8.029 -0.0695  0.2998 -0.0260
  951POPC   C4B13904   4.538   8.549   8.407  0.2505 -0.0273  0.0901
  952POPC   NC313905   0.720   0.999   6.063 -0.2276 -0.0537  0.0315
  952POPC   PO413906   0.943   1.314   6.319 -0.0557  0.0665  0.1025
  952POPC   GL113907   1.176   1.439   6.704 -0.3899  0.1900  0.1191
  952POPC   GL213908   1.479   1.603   6.670  0.1216  0.1154 -0.2456
  952POPC   C1A13909   1.242   1.451   7.145 -0.1153  0.1654 -0.0113
  952POPC   D2A13910   1.541   1.516   7.464  0.4383  0.1034 -0.2655
  952POPC   C3A13911   1.516   1.462   7.828 -0.0697 -0.1151 -0.0701
  952POPC   C4A13912   1.470   1.683   8.097  0.0608  0.1156 -0.3064
  952POPC   C1B13913   1.762   1.484   7.076 -0.1809 -0.0402 -0.2267
  952POPC   C2B13914   2.036   1.539   7.519 -0.1593  0.1052 -0.1518
  952POPC   C3B13915   1.949   1.564   7.960 -0.2282 -0.2528 -0.2797
  952POPC   C4B13916   1.852   1.402   8.264  0.1908  0.1257  0.2585
  953POPC   NC313917   0.360   4.804   5.502 -0.0023  0.0140  0.0134
  953POPC   PO413918   0.301   4.986   5.972  0.4771  0.1855  0.0211
  953POPC   GL113919   0.173   5.028   6.403  0.2384  0.0850 -0.1754
  953POPC   GL213920   0.371   4.877   6.530 -0.2583 -0.0923  0.4532
  953POPC   C1A13921   0.072   5.367   6.704  0.1560  0.0987 -0.3079
  953POPC   D2A13922  -0.055   5.366   7.133  0.1065 -0.2008  0.1076
  953POPC   C3A13923   0.107   5.280   7.521 -0.2899  0.0144  0.0667
  953POPC   C4A13924   0.133   5.226   7.919 -0.0086  0.0473  0.2870
  953POPC   C1B13925   0.401   4.828   6.905  0.2052 -0.1772  0.1584
  953POPC   C2B13926   0.473   5.072   7.294  0.3381  0.0905  0.1928
  953POPC   C3B13927   0.451   4.943   7.694  0.1875 -0.3647  0.0585
  953POPC   C4B13928   0.417   4.853   8.105  0.2229  0.1679  0.2892
  954POPC   NC313929  13.133  10.972   5.869  0.1743 -0.0153  0.2010
  954POPC   PO413930  13.521  11.197   5.976 -0.0469  0.1746 -0.0359
  954POPC   GL113931  13.496  10.978   6.238 -0.0018 -0.1186  0.1134
  954POPC   GL213932  13.620  10.960   6.544 -0.0030 -0.3112  0.2338
  954POPC   C1A13933  13.313  10.542   6.355  0.0247  0.1374 -0.0508
  954POPC   D2A13934  13.159  10.314   6.792  0.0590 -0.1008 -0.2671
  954POPC   C3A13935  13.113  10.475   7.196  0.0927 -0.0205 -0.1090
  954POPC   C4A13936  13.251  10.493   7.560  0.0725  0.2878 -0.0054
  954POPC   C1B13937  13.713  10.612   6.764 -0.1457  0.1144  0.1435
  954POPC   C2B13938  13.769  10.537   7.249 -0.0043  0.4642  0.0528
  954POPC   C3B13939  13.775  10.404   7.670 -0.0306 -0.0173 -0.0985
  954POPC   C4B13940  13.660  10.336   8.094  0.1215 -0.0058  0.1268
  955POPC   NC313941  14.225   2.078   5.985  0.3980 -0.0732 -0.3211
  955POPC   PO413942  14.432   2.332   6.359 -0.2618 -0.3139  0.0735
  955POPC   GL113943  14.359   2.348   6.817  0.2684 -0.1928 -0.2595
  955POPC   GL213944  14.478   2.617   6.863 -0.1900  0.3370 -0.0281
  955POPC   C1A13945  14.443   2.013   7.199  0.0029 -0.1278 -0.2641
  955POPC   D2A13946  14.536   1.831   7.640 -0.0244  0.1226 -0.0757
  955POPC   C3A13947  14.501   2.005   7.973  0.2645 -0.1064  0.2399
  955POPC   C4A13948  14.545   2.240   8.435 -0.2952 -0.0609  0.0717
  955POPC   C1B13949  14.730   2.824   7.061  0.0854 -0.3003 -0.0502
  955POPC   C2B13950  14.780   2.926   7.430 -0.2351 -0.1957 -0.1017
  955POPC   C3B13951  14.579   3.067   7.710 -0.3967  0.0488 -0.0754
  955POPC   C4B13952  14.404   2.967   8.140 -0.0517 -0.0853  0.1529
  956POPC   NC313953   3.307   6.213   6.039 -0.1389  0.1918 -0.2438
  956POPC   PO413954   3.449   5.997   6.341 -0.4111  0.0144 -0.1379
  956POPC   GL113955   3.369   6.167   6.759  0.1054  0.2083 -0.1063
  956POPC   GL213956   3.173   5.975   6.958 -0.1928  0.3510  0.1464
  956POPC   C1A13957   3.189   6.384   7.208  0.1471 -0.1774 -0.0334
  956POPC   D2A13958   3.352   6.700   7.375  0.0672 -0.2881 -0.1081
  956POPC   C3A13959   3.439   6.751   7.855  0.3095 -0.2205 -0.2584
  956POPC   C4A13960   3.637   6.729   8.245 -0.2461 -0.0595  0.1537
  956POPC   C1B13961   3.342   5.930   7.331 -0.2842  0.1612  0.1416
  956POPC   C2B13962   3.572   5.797   7.785  0.2877 -0.0700 -0.0642
  956POPC   C3B13963   3.906   5.616   8.017 -0.2126  0.0132 -0.1308
  956POPC   C4B13964   4.280   5.531   7.983  0.4065 -0.2307  0.0277
  957POPC   NC313965   5.346  12.180   5.390 -0.0700 -0.1749 -0.1645
  957POPC   PO413966   5.551  12.193   5.818  0.3543 -0.1655  0.0444
  957POPC   GL113967   5.628  11.923   6.114  0.0381  0.1110 -0.0564
  957POPC   GL213968   5.291  11.698   6.183  0.0976 -0.1054  0.0415
  957POPC   C1A13969   5.636  11.571   6.532  0.1537 -0.3483 -0.1088
  957POPC   D2A13970   5.909  11.215   6.696  0.1730  0.0376 -0.0151
  957POPC   C3A13971   5.873  11.153   7.100 -0.0665  0.0830 -0.1088
  957POPC   C4A13972   5.899  11.437   7.455 -0.2173 -0.1244  0.2934
  957POPC   C1B13973   5.124  11.639   6.610  0.2791  0.1121  0.2565
  957POPC   C2B13974   5.061  11.758   7.000  0.1797 -0.0716  0.1097
  957POPC   C3B13975   4.996  11.611   7.340 -0.0019  0.2708  0.0398
  957POPC   C4B13976   4.920  11.357   7.726 -0.0994 -0.1804  0.3437
  958POPC   NC313977   6.171   6.760   6.497 -0.1623  0.2665  0.1095
  958POPC   PO413978   5.779   6.895   6.304 -0.0675 -0.1374 -0.1461
  958POPC   GL113979   5.732   7.000   6.715 -0.2609  0.0866  0.1424
  958POPC   GL213980   5.732   7.390   6.753  0.2336 -0.0818 -0.1094
  958POPC   C1A13981   5.557   6.838   7.048 -0.3665 -0.0572 -0.5552
  958POPC   D2A13982   5.484   6.444   7.339 -0.1739  0.3501  0.0412
  958POPC   C3A13983   5.425   6.395   7.776 -0.2134  0.1186  0.0030
  958POPC   C4A13984   5.680   6.421   8.057  0.0869 -0.1033  0.5299
  958POPC   C1B13985   5.731   7.436   7.081 -0.1435  0.0779 -0.0825
  958POPC   C2B13986   5.695   7.549   7.404  0.0077  0.1724  0.0525
  958POPC   C3B13987   5.722   7.564   7.860 -0.0918 -0.2617 -0.2285
  958POPC   C4B13988   5.486   7.374   8.158  0.2213 -0.1590 -0.2575
  959POPC   NC313989  14.066   9.042   5.739 -0.1185 -0.1000  0.1412
  959POPC   PO413990  14.357   9.406   5.946 -0.2214  0.0217  0.1116
  959POPC   GL113991  14.295   9.519   6.373 -0.0212  0.2734  0.0238
  959POPC   GL213992  14.090   9.686   6.375  0.1542 -0.2739 -0.1468
  959POPC   C1A13993  14.506   9.581   6.732 -0.1348  0.1622 -0.2806
  959POPC   D2A13994  14.403   9.796   7.145  0.0307 -0.0797 -0.0536
  959POPC   C3A13995  14.334   9.625   7.563  0.0263  0.1723  0.2393
  959POPC   C4A13996  14.275   9.648   7.989 -0.0152 -0.1732  0.0556
  959POPC   C1B13997  13.987   9.821   6.711 -0.0824  0.0366  0.0108
  959POPC   C2B13998  13.964   9.680   7.097  0.2107 -0.2858 -0.1224
  959POPC   C3B13999  13.876   9.409   7.395  0.1892 -0.3857  0.1803
  959POPC   C4B14000  13.711   9.162   7.628  0.0323  0.1051  0.0576
  960POPC   NC314001   1.913  16.105   5.436 -0.0314 -0.0117 -0.4929
  960POPC   PO414002   2.078  15.778   5.794 -0.1579  0.2165  0.1355
  960POPC   GL114003   2.042  16.070   6.080  0.1390 -0.0535 -0.2934
  960POPC   GL214004   1.738  16.123   6.140 -0.2017  0.0477  0.2655
  960POPC   C1A14005   2.085  16.487   6.309 -0.1056  0.1536  0.0104
  960POPC   D2A14006   2.348  16.749   6.538 -0.2316 -0.2174 -0.0429
  960POPC   C3A14007   2.578  17.077   6.486  0.1791 -0.1446  0.0200
  960POPC   C4A14008   2.726  17.424   6.804 -0.3970  0.0952  0.2104
  960POPC   C1B14009   1.719  16.320   6.572  0.3183  0.1758 -0.1626
  960POPC   C2B14010   1.780  16.391   7.026 -0.0804  0.0358  0.1637
  960POPC   C3B14011   1.777  16.307   7.517  0.0939  0.2072  0.0668
  960POPC   C4B14012   1.658  16.279   7.949 -0.0736  0.3300 -0.1258
  961POPC   NC314013   1.095   1.795   6.364  0.1641  0.3988 -0.0304
  961POPC   PO414014   1.017   2.263   6.447  0.2141  0.4151  0.2196
  961POPC   GL114015   1.036   2.456   6.819  0.1735  0.0334  0.2383
  961POPC   GL214016   1.301   2.390   6.928  0.3932 -0.3059 -0.2784
  961POPC   C1A14017   0.894   2.547   7.279  0.1261  0.0680 -0.0557
  961POPC   D2A14018   0.881   2.459   7.764  0.0688  0.2391  0.0263
  961POPC   C3A14019   1.005   2.618   8.119  0.2438 -0.3197  0.3884
  961POPC   C4A14020   1.200   2.355   8.464  0.4022 -0.3593  0.1945
  961POPC   C1B14021   1.392   2.653   7.314  0.0314 -0.1488  0.3033
  961POPC   C2B14022   1.261   2.757   7.688 -0.0872  0.1289  0.1762
  961POPC   C3B14023   1.140   3.132   7.975 -0.0019  0.0480  0.0376
  961POPC   C4B14024   0.838   3.123   8.275 -0.0703 -0.1998  0.0072
  962POPC   NC314025   2.013   7.122   5.703  0.0400  0.0222  0.2857
  962POPC   PO414026   1.836   7.211   6.155  0.1472 -0.1103  0.2501
  962POPC   GL114027   1.638   7.128   6.508  0.0326  0.6222 -0.3418
  962POPC   GL214028   1.707   7.278   6.741  0.0674 -0.1469  0.0371
  962POPC   C1A14029   1.538   6.868   6.903 -0.0771 -0.1820 -0.3213
  962POPC   D2A14030   1.495   6.968   7.405  0.1494  0.1396 -0.1048
  962POPC   C3A14031   1.296   7.132   7.809 -0.1932  0.1183  0.1271
  962POPC   C4A14032   1.048   7.286   8.151 -0.0815  0.1075 -0.3531
  962POPC   C1B14033   1.663   7.459   7.152 -0.2343  0.2128  0.0611
  962POPC   C2B14034   1.582   7.526   7.589  0.1394 -0.2221  0.2164
  962POPC   C3B14035   1.493   7.738   7.961 -0.1102  0.1126  0.0119
  962POPC   C4B14036   1.089   7.922   8.206  0.0105  0.0252 -0.0898
  963POPC   NC314037  11.013   2.861   6.003  0.0510  0.2242 -0.1630
  963POPC   PO414038  10.988   3.139   6.391 -0.1500  0.0525 -0.2701
  963POPC   GL114039  10.696   3.090   6.769  0.4739  0.2067  0.2872
  963POPC   GL214040  10.433   3.363   6.802  0.0020 -0.0961  0.1184
  963POPC   C1A14041  10.430   3.065   7.216 -0.1656  0.0333  0.0441
  963POPC   D2A14042  10.175   3.257   7.560 -0.1014 -0.0665  0.2002
  963POPC   C3A14043  10.225   3.279   8.030 -0.5199 -0.0048 -0.2236
  963POPC   C4A14044  10.490   3.352   8.343  0.0842 -0.2400  0.3160
  963POPC   C1B14045  10.053   3.465   7.046  0.0331  0.1409  0.0985
  963POPC   C2B14046   9.827   3.133   7.242  0.0207  0.2498  0.1092
  963POPC   C3B14047   9.585   2.790   7.445 -0.3481 -0.0724 -0.1518
  963POPC   C4B14048   9.591   2.675   7.851  0.0423 -0.3587 -0.0679
  964POPC   NC314049   8.589  13.343   5.734  0.0195 -0.1773 -0.0285
  964POPC   PO414050   8.811  13.103   5.808  0.2914  0.0592 -0.0867
  964POPC   GL114051   9.168  13.130   6.043  0.1983 -0.0164  0.4022
  964POPC   GL214052   9.443  13.289   6.105  0.2932  0.0297 -0.1730
  964POPC   C1A14053   9.148  13.010   6.471 -0.1141 -0.0896  0.2186
  964POPC   D2A14054   8.736  12.997   6.692 -0.0138  0.0653  0.0510
  964POPC   C3A14055   8.653  13.067   7.128 -0.0549  0.0393  0.0080
  964POPC   C4A14056   8.726  13.058   7.564 -0.2852  0.1650  0.1591
  964POPC   C1B14057   9.337  13.559   6.553 -0.1918  0.1551  0.0941
  964POPC   C2B14058   9.335  13.657   6.979 -0.0252  0.3328 -0.1193
  964POPC   C3B14059   9.612  13.790   7.399 -0.5315  0.0514 -0.1488
  964POPC   C4B14060  10.022  13.849   7.606  0.0444 -0.1653  0.1849
  965POPC   NC314061   0.465  15.392   5.352 -0.4200 -0.0098 -0.0545
  965POPC   PO414062   0.719  15.275   5.715  0.2873  0.1101 -0.2410
  965POPC   GL114063   0.715  15.471   6.144  0.1270 -0.1830 -0.0658
  965POPC   GL214064   1.007  15.485   6.196  0.0176  0.0234 -0.1973
  965POPC   C1A14065   0.391  15.676   6.488  0.4095 -0.0828 -0.2514
  965POPC   D2A14066   0.488  15.611   6.880  0.1071 -0.1212 -0.5725
  965POPC   C3A14067   0.254  15.565   7.279 -0.0020  0.1535 -0.0557
  965POPC   C4A14068   0.428  15.792   7.679  0.1851 -0.2188  0.0000
  965POPC   C1B14069   0.928  15.714   6.615  0.0977 -0.3511 -0.3697
  965POPC   C2B14070   1.006  15.735   7.052  0.3164  0.0101  0.0110
  965POPC   C3B14071   0.891  15.795   7.438  0.1851 -0.1045 -0.1018
  965POPC   C4B14072   0.852  15.792   7.927  0.1171  0.0158  0.1939
  966POPC   NC314073   4.066   4.080   5.946  0.3391 -0.0260 -0.0508
  966POPC   PO414074   4.023   3.762   6.347  0.1457  0.1511  0.0209
  966POPC   GL114075   4.061   3.811   6.765 -0.1092  0.1113  0.2592
  966POPC   GL214076   4.238   3.497   6.941  0.0971 -0.2756 -0.1054
  966POPC   C1A14077   4.247   3.942   7.159  0.2581  0.3377  0.2474
  966POPC   D2A14078   4.303   3.491   7.454  0.3403  0.4073  0.0040
  966POPC   C3A14079   4.311   3.421   7.842  0.0529 -0.1336 -0.2931
  966POPC   C4A14080   4.086   3.617   8.220  0.0541  0.2652 -0.0517
  966POPC   C1B14081   3.865   3.514   7.189  0.0633  0.0838  0.1756
  966POPC   C2B14082   3.707   3.249   7.486  0.1731 -0.1554 -0.1684
  966POPC   C3B14083   3.677   2.951   7.800  0.2245 -0.2357 -0.1085
  966POPC   C4B14084   3.492   2.542   7.761  0.0970  0.1266 -0.0782
  967POPC   NC314085  11.441   0.426   6.184 -0.0570  0.0298  0.0981
  967POPC   PO414086  11.056   0.297   6.327 -0.0698 -0.1075  0.1496
  967POPC   GL114087  11.034   0.250   6.681 -0.2699  0.2378  0.1932
  967POPC   GL214088  11.280   0.441   6.791 -0.0746  0.0006 -0.0249
  967POPC   C1A14089  10.914   0.195   7.107  0.4931 -0.2644 -0.1583
  967POPC   D2A14090  10.919   0.136   7.575 -0.2286 -0.0804  0.0406
  967POPC   C3A14091  10.848   0.496   7.857  0.2094  0.2586 -0.1512
  967POPC   C4A14092  10.639   0.510   8.184 -0.0756  0.0985 -0.0772
  967POPC   C1B14093  11.268   0.521   7.170 -0.2814  0.0242  0.1312
  967POPC   C2B14094  11.298   0.643   7.627 -0.0596 -0.0944 -0.0637
  967POPC   C3B14095  11.578   0.960   7.869 -0.0590 -0.1537  0.0935
  967POPC   C4B14096  11.677   1.277   8.101 -0.1189 -0.0374 -0.1806
  968POPC   NC314097  16.260   7.184   5.966 -0.0194 -0.0523  0.1002
  968POPC   PO414098  16.326   7.607   6.215 -0.2202 -0.2128  0.0320
  968POPC   GL114099  16.220   7.294   6.503  0.0347 -0.3114 -0.0879
  968POPC   GL214100  16.456   7.387   6.718 -0.0737  0.0384  0.0984
  968POPC   C1A14101  16.117   6.823   6.642  0.1666 -0.0253  0.3819
  968POPC   D2A14102  15.891   6.528   6.932  0.1767  0.1208  0.2068
  968POPC   C3A14103  15.988   6.812   7.418 -0.0327 -0.1572  0.3425
  968POPC   C4A14104  16.177   6.981   7.785  0.0454  0.0939  0.0641
  968POPC   C1B14105  16.731   7.581   6.941  0.3003 -0.0367  0.2342
  968POPC   C2B14106  16.801   7.464   7.354 -0.1246  0.1357  0.1477
  968POPC   C3B14107  16.980   7.308   7.764 -0.2371 -0.0354  0.1271
  968POPC   C4B14108  17.179   7.344   8.178  0.0583 -0.2421 -0.0608
  969POPC   NC314109  14.459   6.455   6.132  0.3689  0.2175  0.1467
  969POPC   PO414110  14.907   6.665   6.136  0.0408  0.1999 -0.1668
  969POPC   GL114111  15.057   6.722   6.573 -0.2410 -0.0404  0.1104
  969POPC   GL214112  15.219   6.451   6.680 -0.0585  0.1416  0.2220
  969POPC   C1A14113  15.199   7.057   6.926 -0.3196 -0.0960  0.0597
  969POPC   D2A14114  15.401   7.319   7.242 -0.0718 -0.2101 -0.1649
  969POPC   C3A14115  15.769   7.277   7.457  0.3877 -0.0123 -0.0664
  969POPC   C4A14116  15.935   7.534   7.696 -0.1634 -0.1397  0.0646
  969POPC   C1B14117  15.418   6.634   7.065  0.0200 -0.1089  0.1732
  969POPC   C2B14118  15.302   6.862   7.429 -0.2603 -0.0203 -0.1035
  969POPC   C3B14119  15.438   6.960   7.744  0.0546  0.0044 -0.2315
  969POPC   C4B14120  15.203   7.077   8.138 -0.2930 -0.0643 -0.1600
  970POPC   NC314121   1.203  15.542   5.792 -0.3803 -0.1041  0.2197
  970POPC   PO414122   1.007  15.957   5.880 -0.2358  0.0295  0.2405
  970POPC   GL114123   1.187  16.022   6.254 -0.1624  0.0003 -0.1221
  970POPC   GL214124   1.266  16.326   6.328 -0.3159 -0.1521  0.0653
  970POPC   C1A14125   1.451  15.873   6.605 -0.0560  0.0629  0.4271
  970POPC   D2A14126   1.613  15.914   6.921  0.0642 -0.0143 -0.3167
  970POPC   C3A14127   1.819  15.686   7.147 -0.2771 -0.0373  0.1674
  970POPC   C4A14128   1.665  15.248   7.474 -0.1829  0.0322 -0.0746
  970POPC   C1B14129   1.226  16.293   6.842  0.2021 -0.1551  0.1043
  970POPC   C2B14130   1.283  16.293   7.207  0.0600  0.2469  0.0422
  970POPC   C3B14131   1.360  15.971   7.350 -0.1508  0.1180  0.2285
  970POPC   C4B14132   1.564  15.753   7.603  0.1553  0.1105  0.3036
  971YOPC   NC314133  10.968  11.948   5.940  0.0768 -0.0709 -0.1128
  971YOPC   PO414134  10.560  12.072   5.834 -0.0470  0.1651 -0.0816
  971YOPC   GL114135  10.377  12.184   6.224 -0.1383  0.0026  0.1152
  971YOPC   GL214136  10.683  12.255   6.400  0.2054  0.0750 -0.0144
  971YOPC   C1A14137  10.183  12.140   6.543  0.0233 -0.1089 -0.1597
  971YOPC   D2A14138  10.370  12.211   7.043 -0.1756  0.1980  0.1905
  971YOPC   C3A14139  10.573  11.907   7.279  0.3208 -0.1135 -0.0342
  971YOPC   C4A14140  10.681  11.837   7.693 -0.0895 -0.0074 -0.1274
  971YOPC   C1B14141  11.107  12.314   6.444 -0.1386  0.2345  0.1665
  971YOPC   C2B14142  11.438  12.270   6.753  0.0099  0.0736  0.2661
  971YOPC   D3B14143  11.432  12.048   7.119 -0.1425  0.1267  0.0710
  971YOPC   C4B14144  11.507  12.337   7.442 -0.1593  0.0909 -0.0063
  972YOPC   NC314145   8.302   4.089   6.168  0.2027  0.1491  0.4901
  972YOPC   PO414146   8.242   3.862   5.897  0.4301  0.4063 -0.1762
  972YOPC   GL114147   8.252   3.548   6.371 -0.2123  0.1781  0.0373
  972YOPC   GL214148   8.581   3.454   6.499  0.1968 -0.0079 -0.1766
  972YOPC   C1A14149   8.114   3.387   6.797 -0.0256  0.0295  0.4303
  972YOPC   D2A14150   7.947   3.322   7.227 -0.0644 -0.1083 -0.1419
  972YOPC   C3A14151   7.613   3.545   7.323 -0.4266  0.0595 -0.0115
  972YOPC   C4A14152   7.425   3.796   7.252  0.0978  0.1876 -0.0572
  972YOPC   C1B14153   8.602   3.473   6.861 -0.0815  0.1792  0.0251
  972YOPC   C2B14154   8.453   3.496   7.342  0.0543  0.0110  0.1450
  972YOPC   D3B14155   8.230   3.816   7.587  0.1728 -0.0728  0.0591
  972YOPC   C4B14156   8.095   3.930   7.934 -0.2006  0.1605 -0.2946
  973YOPC   NC314157   8.342  16.863   5.969  0.1998  0.0706 -0.2696
  973YOPC   PO414158   7.989  16.527   5.826 -0.0493  0.1366 -0.0512
  973YOPC   GL114159   7.797  16.634   6.252  0.1010  0.3686  0.0932
  973YOPC   GL214160   8.035  16.801   6.334  0.0373 -0.1090  0.0354
  973YOPC   C1A14161   7.445  16.529   6.484  0.1352  0.0988 -0.0060
  973YOPC   D2A14162   7.294  16.258   6.768 -0.2000 -0.0957 -0.0378
  973YOPC   C3A14163   7.039  16.499   6.971 -0.2256 -0.0827  0.0266
  973YOPC   C4A14164   6.897  16.738   7.237 -0.0686  0.1160  0.0409
  973YOPC   C1B14165   7.735  16.976   6.625 -0.0707  0.0292  0.1995
  973YOPC   C2B14166   7.372  16.924   6.779 -0.1852  0.2530  0.2310
  973YOPC   D3B14167   7.312  17.064   7.248  0.0967 -0.0832 -0.2590
  973YOPC   C4B14168   6.985  17.025   7.604  0.1349 -0.0565 -0.2216
  974YOPC   NC314169  15.284  17.291   5.489  0.1393 -0.4808  0.1270
  974YOPC   PO414170  15.343  17.196   5.881 -0.2884 -0.0977  0.4348
  974YOPC   GL114171  15.262  17.220   6.344  0.1488 -0.0785 -0.0137
  974YOPC   GL214172  14.933  17.307   6.385 -0.0184 -0.0029 -0.1658
  974YOPC   C1A14173  15.263  17.171   6.758 -0.1155  0.0023  0.0281
  974YOPC   D2A14174  15.166  16.728   6.989  0.1383 -0.1915 -0.3090
  974YOPC   C3A14175  14.957  16.399   7.174 -0.0589  0.3173  0.1024
  974YOPC   C4A14176  14.719  16.391   7.536  0.1199  0.2178 -0.3453
  974YOPC   C1B14177  14.746  17.304   6.744 -0.3630  0.2548  0.2363
  974YOPC   C2B14178  14.280  17.202   6.847 -0.0493 -0.0444  0.0491
  974YOPC   D3B14179  14.186  17.232   7.268  0.0483 -0.2004  0.0848
  974YOPC   C4B14180  14.068  17.289   7.686 -0.1544 -0.1979  0.0435
  975YOPC   NC314181   2.612  11.659   6.113  0.2480 -0.2951  0.1224
  975YOPC   PO414182   2.127  11.652   5.938  0.2281 -0.0102  0.1175
  975YOPC   GL114183   2.164  11.813   6.339  0.0984  0.1194 -0.0863
  975YOPC   GL214184   2.074  12.141   6.440  0.1601  0.2046 -0.2041
  975YOPC   C1A14185   2.370  11.704   6.768  0.1970 -0.1541 -0.0746
  975YOPC   D2A14186   2.289  11.651   7.156  0.1026 -0.1780  0.0891
  975YOPC   C3A14187   2.010  11.545   7.177 -0.1780 -0.0853  0.0967
  975YOPC   C4A14188   1.887  11.594   6.726  0.1663 -0.1699 -0.1303
  975YOPC   C1B14189   1.999  12.048   6.902 -0.0320  0.3459  0.4928
  975YOPC   C2B14190   2.053  12.042   7.352 -0.0582  0.1571 -0.2828
  975YOPC   D3B14191   2.369  12.076   7.664  0.3368  0.0734  0.2067
  975YOPC   C4B14192   2.621  12.264   8.033  0.0178  0.0542  0.1921
  976YOPC   NC314193  10.784  13.058   5.969 -0.0526 -0.0394  0.0066
  976YOPC   PO414194  10.357  13.166   5.944 -0.3240 -0.1095 -0.0436
  976YOPC   GL114195  10.224  13.178   6.346  0.1967 -0.0267  0.1047
  976YOPC   GL214196  10.527  13.201   6.562 -0.0159  0.1239 -0.0127
  976YOPC   C1A14197  10.088  13.115   6.692 -0.1239 -0.1762 -0.1562
  976YOPC   D2A14198  10.072  13.069   7.098 -0.0778  0.0207 -0.2262
  976YOPC   C3A14199  10.063  13.409   7.374 -0.1449  0.2326  0.0440
  976YOPC   C4A14200  10.452  13.740   7.356  0.2466  0.0278  0.1126
  976YOPC   C1B14201  10.874  13.373   6.878 -0.0350  0.1658  0.2136
  976YOPC   C2B14202  10.970  13.615   7.304 -0.0942  0.0912 -0.1007
  976YOPC   D3B14203  11.196  13.304   7.626 -0.1337 -0.1041  0.0348
  976YOPC   C4B14204  11.076  13.346   7.991 -0.0255 -0.0938 -0.0460
  977YOPC   NC314205   0.066   8.188   5.434 -0.0089 -0.1292 -0.1497
  977YOPC   PO414206  -0.116   8.114   5.845 -0.2161 -0.1344  0.1981
  977YOPC   GL114207   0.144   8.065   6.255  0.1393  0.1832 -0.2293
  977YOPC   GL214208   0.218   8.381   6.419 -0.2579 -0.1181 -0.0910
  977YOPC   C1A14209   0.318   7.892   6.631  0.1745 -0.2576 -0.0608
  977YOPC   D2A14210   0.426   7.829   6.928 -0.1262 -0.3211  0.1247
  977YOPC   C3A14211   0.765   8.125   7.062  0.3050  0.4744 -0.3095
  977YOPC   C4A14212   1.116   8.186   6.916  0.2239 -0.4015  0.0067
  977YOPC   C1B14213   0.358   8.398   6.836  0.3863  0.1212  0.0828
  977YOPC   C2B14214   0.253   8.316   7.327  0.0227 -0.1359  0.1789
  977YOPC   D3B14215   0.495   8.369   7.708  0.0953 -0.1312 -0.2810
  977YOPC   C4B14216   0.828   8.491   7.954  0.1237 -0.0755 -0.1553
  978YOPC   NC314217  17.513   2.178   6.606 -0.1113  0.0158  0.2992
  978YOPC   PO414218  17.122   2.034   6.743 -0.1187  0.3558 -0.0737
  978YOPC   GL114219  17.296   2.095   7.094 -0.2377  0.3122 -0.1682
  978YOPC   GL214220  17.509   2.215   7.176  0.1127 -0.0646 -0.2187
  978YOPC   C1A14221  17.499   1.811   7.437  0.1559 -0.0774 -0.2455
  978YOPC   D2A14222  17.386   1.558   7.808 -0.0353  0.0172  0.2641
  978YOPC   C3A14223  17.653   1.517   8.184 -0.1451  0.0971  0.2301
  978YOPC   C4A14224  17.939   1.179   8.242 -0.2764 -0.0734  0.0158
  978YOPC   C1B14225  17.255   2.552   7.326  0.0760  0.1365  0.1201
  978YOPC   C2B14226  17.295   2.861   7.650  0.2614  0.0383 -0.0147
  978YOPC   D3B14227  17.109   3.209   7.570  0.3847 -0.1287  0.0458
  978YOPC   C4B14228  17.062   3.543   7.784  0.1573  0.1504 -0.3104
  979YOPC   NC314229  15.795   0.542   6.454  0.0668 -0.2234 -0.1620
  979YOPC   PO414230  16.227   0.357   6.321 -0.1530 -0.1247 -0.1640
  979YOPC   GL114231  16.487   0.374   6.577  0.4073 -0.1449 -0.0115
  979YOPC   GL214232  16.754   0.423   6.523  0.0288 -0.0139 -0.0329
  979YOPC   C1A14233  16.410   0.360   6.987 -0.0531  0.0172  0.1831
  979YOPC   D2A14234  16.642   0.262   7.336  0.1410 -0.1158 -0.1395
  979YOPC   C3A14235  16.362   0.199   7.559 -0.2211  0.5459 -0.1913
  979YOPC   C4A14236  16.216  -0.011   7.900 -0.1151  0.0454  0.1174
  979YOPC   C1B14237  16.918   0.377   6.905 -0.3087 -0.0994 -0.1050
  979YOPC   C2B14238  17.141   0.477   7.106 -0.0817  0.1885  0.0870
  979YOPC   D3B14239  17.161   0.185   7.473 -0.2376 -0.2108 -0.1089
  979YOPC   C4B14240  16.887  -0.097   7.524 -0.1279 -0.0162  0.0070
  980YOPC   NC314241  17.186   4.831   6.273 -0.1248 -0.0317 -0.1253
  980YOPC   PO414242  16.809   4.563   6.071 -0.4155 -0.2258 -0.0526
  980YOPC   GL114243  16.777   4.661   6.550 -0.1231 -0.0431 -0.0307
  980YOPC   GL214244  16.758   4.343   6.818  0.0765  0.0680 -0.0174
  980YOPC   C1A14245  16.541   4.897   6.816  0.0374  0.0531  0.3153
  980YOPC   D2A14246  16.333   4.648   7.108  0.0626 -0.1051  0.0316
  980YOPC   C3A14247  16.446   4.663   7.502  0.1181  0.2699 -0.0736
  980YOPC   C4A14248  16.446   4.986   7.772  0.1304  0.0301  0.0931
  980YOPC   C1B14249  16.834   4.559   7.116  0.0439  0.0639  0.1176
  980YOPC   C2B14250  16.785   5.009   7.178  0.0291 -0.1403 -0.1400
  980YOPC   D3B14251  16.934   5.018   7.564  0.0658  0.0127 -0.0922
  980YOPC   C4B14252  16.930   5.105   7.911  0.0735 -0.0896  0.0765
  981YOPC   NC314253   4.130   7.109   5.823  0.2459 -0.1254 -0.1657
  981YOPC   PO414254   4.397   6.876   6.028 -0.0546  0.0583  0.2100
  981YOPC   GL114255   4.340   6.813   6.455 -0.1024 -0.0144 -0.0777
  981YOPC   GL214256   4.505   7.005   6.548  0.1682 -0.2845 -0.1865
  981YOPC   C1A14257   4.253   6.672   6.870 -0.0615  0.0612  0.1746
  981YOPC   D2A14258   4.227   6.689   7.350 -0.1689 -0.0309  0.0937
  981YOPC   C3A14259   4.538   6.782   7.575 -0.3444 -0.1651 -0.1882
  981YOPC   C4A14260   4.943   6.583   7.850  0.0339 -0.2193 -0.0857
  981YOPC   C1B14261   4.676   6.971   6.983  0.0672  0.3387 -0.1406
  981YOPC   C2B14262   4.983   6.859   7.228  0.2265 -0.2020 -0.0022
  981YOPC   D3B14263   5.192   6.883   7.493  0.0741 -0.2010 -0.1461
  981YOPC   C4B14264   5.314   6.920   7.852  0.0190  0.2463  0.3989
  982YOPC   NC314265   7.495   8.709   6.318  0.3672 -0.0393  0.3475
  982YOPC   PO414266   7.939   8.715   6.253  0.1739  0.4085  0.0114
  982YOPC   GL114267   8.018   8.704   6.600 -0.1828  0.0817 -0.0250
  982YOPC   GL214268   7.623   8.687   6.777  0.0390  0.0377 -0.2353
  982YOPC   C1A14269   8.082   8.794   6.923 -0.3976  0.2528 -0.1962
  982YOPC   D2A14270   8.217   8.690   7.340 -0.0340 -0.1931  0.0118
  982YOPC   C3A14271   8.596   8.501   7.573  0.1741 -0.0512 -0.1596
  982YOPC   C4A14272   8.995   8.389   7.508  0.0871 -0.1144  0.1335
  982YOPC   C1B14273   7.800   8.456   7.164 -0.0546 -0.4086 -0.0353
  982YOPC   C2B14274   7.961   8.237   7.529  0.3936  0.0508  0.1985
  982YOPC   D3B14275   8.169   8.481   7.878  0.2504  0.2076  0.1264
  982YOPC   C4B14276   8.507   8.501   8.089 -0.1579 -0.0966  0.2011
  983YOPC   NC314277  10.009  16.682   5.695 -0.2088  0.3041  0.0000
  983YOPC   PO414278  10.188  16.545   6.101 -0.3177 -0.1309  0.1015
  983YOPC   GL114279  10.290  16.604   6.479 -0.3019  0.0036  0.0505
  983YOPC   GL214280  10.452  16.308   6.633  0.0474 -0.0219  0.1093
  983YOPC   C1A14281  10.233  16.750   6.920  0.1035  0.1567  0.0121
  983YOPC   D2A14282  10.327  16.915   7.330  0.0010  0.1943  0.1887
  983YOPC   C3A14283  10.525  16.568   7.561  0.0555  0.0419 -0.3212
  983YOPC   C4A14284  10.932  16.349   7.439 -0.0130 -0.0547  0.2707
  983YOPC   C1B14285  10.373  15.970   6.708  0.2241  0.0087 -0.2139
  983YOPC   C2B14286  10.089  15.779   6.793  0.0276  0.1508 -0.1750
  983YOPC   D3B14287  10.003  15.605   7.264  0.2143 -0.0850  0.2794
  983YOPC   C4B14288   9.851  15.470   7.707  0.1902 -0.1184 -0.0121
  984YOPC   NC314289   3.607   7.205   5.863  0.0278 -0.0522  0.2347
  984YOPC   PO414290   3.347   7.076   6.096 -0.1450  0.0622  0.1036
  984YOPC   GL114291   3.412   7.085   6.576  0.0237  0.3175 -0.1771
  984YOPC   GL214292   3.235   7.349   6.718 -0.0123 -0.0959 -0.0851
  984YOPC   C1A14293   3.470   6.710   6.854  0.0846 -0.1238  0.3823
  984YOPC   D2A14294   3.774   6.453   7.113  0.0752  0.0438  0.0927
  984YOPC   C3A14295   3.706   6.315   7.568  0.2010  0.0361  0.0672
  984YOPC   C4A14296   3.675   6.319   7.975 -0.2371 -0.1028  0.0014
  984YOPC   C1B14297   3.347   7.134   7.096 -0.0102 -0.1385 -0.0173
  984YOPC   C2B14298   3.244   7.172   7.592 -0.1150 -0.0659 -0.0027
  984YOPC   D3B14299   2.960   7.226   7.818  0.0752 -0.1862 -0.1598
  984YOPC   C4B14300   2.864   7.558   8.017  0.3392  0.0182  0.0140
  985YOPC   NC314301   1.208   0.380   6.340  0.0004  0.1088 -0.0206
  985YOPC   PO414302   0.772   0.571   6.248  0.1109  0.0069 -0.1032
  985YOPC   GL114303   0.865   0.405   6.693 -0.0229 -0.1134 -0.1940
  985YOPC   GL214304   0.606   0.157   6.803 -0.0086  0.1474 -0.0853
  985YOPC   C1A14305   1.022   0.261   7.124 -0.0173 -0.1052  0.2653
  985YOPC   D2A14306   1.062   0.273   7.551  0.0476  0.1431 -0.2152
  985YOPC   C3A14307   0.743   0.308   7.919  0.0849 -0.2903 -0.5297
  985YOPC   C4A14308   0.475   0.181   8.238  0.0974 -0.1793 -0.0781
  985YOPC   C1B14309   0.652  -0.138   7.209 -0.1476  0.0367  0.3418
  985YOPC   C2B14310   0.510  -0.446   7.513  0.0771  0.1687 -0.1632
  985YOPC   D3B14311   0.203  -0.546   7.754  0.1426  0.2462  0.1686
  985YOPC   C4B14312  -0.181  -0.724   7.635  0.0317 -0.2547 -0.1857
  986YOPC   NC314313  13.161  14.910   5.785  0.0468 -0.0268  0.2552
  986YOPC   PO414314  13.164  15.066   6.192  0.1564  0.1269  0.1055
  986YOPC   GL114315  13.453  15.057   6.564 -0.1079 -0.1662  0.0980
  986YOPC   GL214316  13.701  14.888   6.747 -0.1198  0.0756  0.1963
  986YOPC   C1A14317  13.267  15.203   6.934  0.3718  0.2086 -0.0338
  986YOPC   D2A14318  13.152  15.269   7.384 -0.0732  0.1315  0.1954
  986YOPC   C3A14319  12.882  14.960   7.554  0.1347 -0.0837 -0.0560
  986YOPC   C4A14320  12.795  14.723   7.899 -0.0232  0.1020 -0.0588
  986YOPC   C1B14321  13.550  14.874   7.178  0.2958  0.3798  0.0922
  986YOPC   C2B14322  13.406  14.868   7.624  0.1497 -0.1433  0.1627
  986YOPC   D3B14323  13.292  14.963   8.076  0.0289  0.3071 -0.0045
  986YOPC   C4B14324  13.068  14.771   8.465 -0.2020  0.0700  0.0228
  987YOPC   NC314325   9.840   1.903   5.955 -0.0220  0.1047 -0.0195
  987YOPC   PO414326   9.828   2.383   6.103 -0.4286  0.1475  0.2351
  987YOPC   GL114327   9.783   2.255   6.492  0.0133 -0.3999 -0.2227
  987YOPC   GL214328   9.837   2.472   6.656 -0.2489 -0.1036 -0.1690
  987YOPC   C1A14329   9.792   2.009   6.876  0.2030 -0.1772  0.4138
  987YOPC   D2A14330   9.997   1.871   7.136 -0.1139 -0.3259 -0.0171
  987YOPC   C3A14331  10.295   1.740   7.349  0.0855  0.1300 -0.0000
  987YOPC   C4A14332  10.231   1.466   7.757  0.2819  0.1818  0.0453
  987YOPC   C1B14333   9.806   2.512   7.004  0.1529  0.2316 -0.0398
  987YOPC   C2B14334   9.863   2.271   7.398  0.1192 -0.0468 -0.1022
  987YOPC   D3B14335   9.868   2.300   7.777 -0.2985 -0.1446 -0.1849
  987YOPC   C4B14336   9.753   2.329   8.276  0.1257  0.2136 -0.0787
  988YOPC   NC314337  15.564   5.050   6.075 -0.1661  0.0486  0.4861
  988YOPC   PO414338  15.857   4.720   6.136 -0.1129  0.1987 -0.2341
  988YOPC   GL114339  15.899   4.754   6.578  0.3574  0.2055  0.3095
  988YOPC   GL214340  16.030   4.427   6.821  0.0599  0.1179  0.0439
  988YOPC   C1A14341  16.083   5.011   6.866 -0.0466  0.1369 -0.1224
  988YOPC   D2A14342  16.302   5.159   7.254  0.0912  0.0944 -0.0099
  988YOPC   C3A14343  16.096   5.342   7.619  0.0624 -0.1112  0.0429
  988YOPC   C4A14344  15.915   5.238   8.064 -0.0239 -0.0363  0.1712
  988YOPC   C1B14345  16.102   4.228   7.201 -0.2376  0.3327  0.0148
  988YOPC   C2B14346  16.158   4.277   7.618 -0.1649  0.0077 -0.0769
  988YOPC   D3B14347  16.520   4.275   7.895  0.0808 -0.2104 -0.0420
  988YOPC   C4B14348  16.640   4.649   8.138  0.3935  0.4136  0.1298
  989YOPC   NC314349   2.969   0.544   5.653 -0.2417 -0.0007  0.4162
  989YOPC   PO414350   3.146   0.256   5.936  0.3546 -0.0011  0.0376
  989YOPC   GL114351   2.984   0.176   6.295  0.2886  0.1338  0.2826
  989YOPC   GL214352   3.080  -0.154   6.300 -0.0064  0.1550 -0.2245
  989YOPC   C1A14353   2.801   0.090   6.695 -0.0213  0.1236  0.1109
  989YOPC   D2A14354   2.849   0.033   7.136  0.1231  0.2508  0.5012
  989YOPC   C3A14355   2.819  -0.411   7.287 -0.2661 -0.3061 -0.0037
  989YOPC   C4A14356   2.674  -0.634   7.657  0.0860  0.0442  0.0890
  989YOPC   C1B14357   3.113  -0.625   6.372 -0.0315 -0.0660 -0.0254
  989YOPC   C2B14358   2.988  -1.048   6.434  0.1507  0.1681  0.3451
  989YOPC   D3B14359   2.731  -1.274   6.859 -0.0599 -0.3058 -0.0741
  989YOPC   C4B14360   2.533  -1.578   7.054  0.2803  0.1938 -0.1818
  990YOPC   NC314361  17.834   3.759   5.607  0.0893 -0.0553 -0.2496
  990YOPC   PO414362  18.080   3.790   6.058  0.2845 -0.0320 -0.1257
  990YOPC   GL114363  18.112   3.954   6.488  0.1791 -0.0588  0.5428
  990YOPC   GL214364  18.253   3.835   6.719 -0.1603 -0.0327 -0.1372
  990YOPC   C1A14365  17.813   4.063   6.786  0.1076  0.0764  0.0880
  990YOPC   D2A14366  17.500   4.282   6.962 -0.1814 -0.1785  0.1394
  990YOPC   C3A14367  17.116   4.108   7.175 -0.0358 -0.2442 -0.4835
  990YOPC   C4A14368  16.970   3.916   7.536 -0.2993 -0.2586 -0.0738
  990YOPC   C1B14369  18.516   3.961   7.066 -0.1803  0.2726 -0.0367
  990YOPC   C2B14370  18.449   4.083   7.511  0.0236  0.0344  0.2301
  990YOPC   D3B14371  18.527   4.057   7.900 -0.1648  0.1001  0.2799
  990YOPC   C4B14372  18.501   4.144   8.358 -0.3251 -0.1045 -0.1517
  991YOPC   NC314373  11.458  13.878   5.928  0.0137 -0.2930 -0.1030
  991YOPC   PO414374  11.763  13.566   5.915  0.1179 -0.3694  0.1209
  991YOPC   GL114375  11.967  13.550   6.229  0.0627  0.0247 -0.1289
  991YOPC   GL214376  11.807  13.588   6.399 -0.1021 -0.2498  0.1566
  991YOPC   C1A14377  12.313  13.663   6.512  0.1145 -0.1447  0.1014
  991YOPC   D2A14378  12.567  13.908   6.781 -0.1038  0.2071  0.4607
  991YOPC   C3A14379  12.278  14.114   7.046  0.1562  0.2137  0.0988
  991YOPC   C4A14380  12.291  13.944   7.380 -0.1173 -0.0747 -0.0446
  991YOPC   C1B14381  11.512  13.381   6.668  0.0823  0.0357 -0.1743
  991YOPC   C2B14382  11.462  13.364   7.170  0.2345 -0.1080 -0.1430
  991YOPC   D3B14383  11.442  13.743   7.496 -0.1513  0.2370 -0.2436
  991YOPC   C4B14384  11.851  13.947   7.735 -0.0722  0.0582  0.2151
  992YOPC   NC314385  17.170   2.323   6.020 -0.1623 -0.1315 -0.0070
  992YOPC   PO414386  17.056   2.548   6.426  0.2274  0.0808  0.0511
  992YOPC   GL114387  17.051   2.594   6.894 -0.1580  0.2703 -0.1794
  992YOPC   GL214388  16.741   2.687   7.002 -0.1494 -0.1823  0.0481
  992YOPC   C1A14389  17.127   3.039   7.139  0.0656 -0.0058 -0.2261
  992YOPC   D2A14390  17.537   3.120   7.183 -0.0428  0.1470 -0.1090
  992YOPC   C3A14391  17.661   3.343   7.599 -0.1202  0.2378 -0.2697
  992YOPC   C4A14392  17.786   3.483   8.001 -0.1848 -0.0863  0.0183
  992YOPC   C1B14393  16.800   2.719   7.462 -0.2075 -0.0322 -0.0166
  992YOPC   C2B14394  16.868   2.828   7.919 -0.0824  0.0929 -0.1431
  992YOPC   D3B14395  17.204   3.016   8.189 -0.1886  0.0079  0.0260
  992YOPC   C4B14396  17.350   2.895   8.632 -0.1053 -0.0478 -0.1992
  993YOPC   NC314397  13.021   7.624   6.027 -0.1164  0.1789  0.0155
  993YOPC   PO414398  12.850   7.373   6.236  0.0132  0.1958 -0.2089
  993YOPC   GL114399  12.932   7.479   6.604 -0.0776 -0.0094  0.2514
  993YOPC   GL214400  12.769   7.320   6.784  0.2183 -0.0948 -0.1443
  993YOPC   C1A14401  12.892   7.910   6.698  0.1565 -0.0632  0.0018
  993YOPC   D2A14402  12.767   8.350   6.788  0.4234  0.2013  0.0251
  993YOPC   C3A14403  12.398   8.587   6.903 -0.2291  0.2526 -0.0277
  993YOPC   C4A14404  12.288   8.990   6.875 -0.0276  0.1619 -0.3005
  993YOPC   C1B14405  13.047   7.559   7.069  0.0941 -0.3821  0.1022
  993YOPC   C2B14406  13.142   7.761   7.453  0.0816  0.1334 -0.2595
  993YOPC   D3B14407  13.030   7.515   7.892 -0.3960  0.1533 -0.1297
  993YOPC   C4B14408  13.028   7.421   8.269  0.1982 -0.0322  0.3071
  994YOPC   NC314409   8.403  11.128   5.694  0.2457  0.3219  0.1048
  994YOPC   PO414410   8.068  10.832   5.906  0.1721 -0.0855  0.0171
  994YOPC   GL114411   7.936  11.172   6.194  0.0027 -0.2048  0.0205
  994YOPC   GL214412   8.134  11.407   6.118 -0.0667  0.3197  0.0222
  994YOPC   C1A14413   7.858  11.338   6.615  0.0262 -0.0939 -0.0407
  994YOPC   D2A14414   7.648  11.511   6.976  0.0700 -0.0457 -0.1482
  994YOPC   C3A14415   7.383  11.173   7.116 -0.0793 -0.1897  0.2278
  994YOPC   C4A14416   7.434  11.051   7.615  0.0899 -0.0459  0.0004
  994YOPC   C1B14417   8.296  11.572   6.477 -0.2869  0.3491  0.0001
  994YOPC   C2B14418   8.313  11.536   6.853 -0.0339  0.3030  0.3346
  994YOPC   D3B14419   8.391  11.812   7.165 -0.1207  0.1568 -0.1291
  994YOPC   C4B14420   8.346  12.146   7.288  0.0936 -0.0569 -0.0797
  995YOPC   NC314421   0.052  12.401   6.219  0.1324 -0.1843  0.0793
  995YOPC   PO414422   0.405  12.103   6.329  0.2069 -0.1637  0.0608
  995YOPC   GL114423   0.623  12.209   6.670  0.0501  0.1817 -0.0004
  995YOPC   GL214424   0.700  11.866   6.871 -0.0472  0.0584  0.3551
  995YOPC   C1A14425   0.864  12.324   7.012  0.0252 -0.1475  0.1296
  995YOPC   D2A14426   0.998  12.143   7.449  0.0811  0.0960  0.1164
  995YOPC   C3A14427   0.645  11.999   7.726  0.2919 -0.1050  0.1968
  995YOPC   C4A14428   0.440  12.222   7.945 -0.1983  0.0632 -0.0104
  995YOPC   C1B14429   0.620  11.729   7.262  0.0051  0.2005 -0.3626
  995YOPC   C2B14430   0.450  11.517   7.649 -0.0351 -0.1982 -0.1526
  995YOPC   D3B14431   0.413  11.745   8.060 -0.4263  0.0341  0.0169
  995YOPC   C4B14432   0.747  12.026   8.257  0.0130 -0.2964 -0.3746
  996YOPC   NC314433  14.828  12.773   6.298  0.0609 -0.1787  0.0764
  996YOPC   PO414434  15.103  13.106   6.182  0.0024  0.0593 -0.0339
  996YOPC   GL114435  15.069  13.047   6.640 -0.0102 -0.0158 -0.2216
  996YOPC   GL214436  14.718  12.994   6.726 -0.1517  0.0939  0.0673
  996YOPC   C1A14437  15.034  13.065   7.114 -0.0175 -0.2489  0.2488
  996YOPC   D2A14438  14.955  13.210   7.478  0.4879  0.2196  0.1360
  996YOPC   C3A14439  14.566  13.079   7.505  0.0298 -0.1017  0.0341
  996YOPC   C4A14440  14.301  13.398   7.420 -0.3401  0.1697  0.3051
  996YOPC   C1B14441  14.411  13.104   6.939  0.0714  0.4758  0.1224
  996YOPC   C2B14442  14.145  12.770   7.266 -0.2105 -0.1905 -0.0957
  996YOPC   D3B14443  14.115  12.858   7.676 -0.1681  0.0651 -0.2072
  996YOPC   C4B14444  14.168  13.197   7.848 -0.2908  0.0239  0.1442
  997YOPC   NC314445   8.486  16.454   5.571 -0.3727 -0.0415  0.1706
  997YOPC   PO414446   8.801  16.576   5.915 -0.0374 -0.0107 -0.1377
  997YOPC   GL114447   8.781  16.720   6.379  0.3923  0.0792  0.1659
  997YOPC   GL214448   8.509  16.823   6.491  0.0109  0.1873  0.1313
  997YOPC   C1A14449   8.748  16.509   6.799 -0.2466 -0.1545 -0.0979
  997YOPC   D2A14450   8.631  16.118   6.976  0.2494 -0.0897  0.0824
  997YOPC   C3A14451   8.608  15.794   6.740  0.2107  0.0326 -0.1753
  997YOPC   C4A14452   8.414  15.288   6.817  0.0354  0.2267 -0.0994
  997YOPC   C1B14453   8.334  16.863   6.879 -0.1186  0.1303  0.0713
  997YOPC   C2B14454   8.251  16.747   7.229  0.3883  0.0898 -0.1845
  997YOPC   D3B14455   8.599  16.490   7.353 -0.2900  0.0951 -0.0750
  997YOPC   C4B14456   8.965  16.455   7.564  0.0766 -0.1373 -0.2153
  998YOPC   NC314457   9.046  11.720   5.694  0.0931 -0.0125  0.2663
  998YOPC   PO414458   9.254  12.119   5.924  0.0135 -0.1439  0.1511
  998YOPC   GL114459   9.266  12.448   6.113  0.2628  0.0108  0.1225
  998YOPC   GL214460   8.889  12.598   6.009 -0.2637 -0.0282 -0.1097
  998YOPC   C1A14461   9.276  12.480   6.551  0.1009 -0.0206  0.0310
  998YOPC   D2A14462   9.095  12.709   6.895 -0.0897  0.0799 -0.1789
  998YOPC   C3A14463   9.160  13.135   6.961 -0.0946 -0.0861  0.1703
  998YOPC   C4A14464   9.051  13.338   7.370 -0.0731 -0.1794  0.0241
  998YOPC   C1B14465   8.741  12.563   6.434  0.1074 -0.1574 -0.0564
  998YOPC   C2B14466   8.598  12.488   6.900  0.1120  0.0296  0.1316
  998YOPC   D3B14467   8.827  12.604   7.286  0.2345 -0.0904 -0.0651
  998YOPC   C4B14468   9.178  12.854   7.441 -0.4636 -0.0791  0.1383
  999YOPC   NC314469   4.129   8.939   6.292 -0.0151 -0.3816  0.1663
  999YOPC   PO414470   4.423   8.884   6.000 -0.1429 -0.0752 -0.2499
  999YOPC   GL114471   4.694   8.740   6.364 -0.2196 -0.2063  0.0182
  999YOPC   GL214472   5.021   8.993   6.405  0.0540  0.2429  0.2622
  999YOPC   C1A14473   4.534   8.752   6.747  0.0077  0.1113  0.2685
  999YOPC   D2A14474   4.687   8.629   7.172 -0.0258 -0.0071 -0.0282
  999YOPC   C3A14475   4.829   8.831   7.600  0.1329  0.1476  0.3306
  999YOPC   C4A14476   4.861   8.598   8.001  0.2426 -0.1964 -0.2068
  999YOPC   C1B14477   5.313   8.832   6.722  0.0955  0.2607 -0.0782
  999YOPC   C2B14478   5.703   8.719   7.062 -0.0060  0.1999 -0.2214
  999YOPC   D3B14479   5.833   8.788   7.513  0.0055 -0.1749  0.0427
  999YOPC   C4B14480   5.747   8.463   7.822  0.2819  0.0814 -0.2499
 1000YOPC   NC314481   2.422  14.693   5.386  0.1495 -0.0366 -0.1092
 1000YOPC   PO414482   2.507  14.324   5.696 -0.2980 -0.1473  0.1571
 1000YOPC   GL114483   2.567  14.407   6.186  0.1981  0.2235 -0.1143
 1000YOPC   GL214484   2.205  14.364   6.244  0.0193  0.1585 -0.0527
 1000YOPC   C1A14485   2.649  14.502   6.656  0.0209  0.2678  0.0661
 1000YOPC   D2A14486   2.457  14.571   7.127  0.1492  0.0706  0.2093
 1000YOPC   C3A14487   2.075  14.623   7.181  0.1241  0.0538 -0.3557
 1000YOPC   C4A14488   1.685  14.753   7.244 -0.0378 -0.1389 -0.0033
 1000YOPC   C1B14489   1.981  14.539   6.665 -0.1043  0.0263  0.0079
 1000YOPC   C2B14490   1.855  14.983   6.732 -0.0128 -0.0052  0.0635
 1000YOPC   D3B14491   1.438  15.106   6.908 -0.1536  0.1342  0.0976
 1000YOPC   C4B14492   1.371  15.436   7.078 -0.0500 -0.1479 -0.0515
 1001YOPC   NC314493  12.291  14.241   5.819 -0.1699  0.1961  0.1004
 1001YOPC   PO414494  11.895  14.460   5.949 -0.0610  0.0001 -0.2659
 1001YOPC   GL114495  11.917  14.682   6.301  0.2123  0.0130  0.0992
 1001YOPC   GL214496  12.288  14.583   6.406  0.1056  0.3958  0.2689
 1001YOPC   C1A14497  11.655  14.849   6.642 -0.0004 -0.1351 -0.2901
 1001YOPC   D2A14498  11.151  14.744   6.748  0.0459 -0.2877  0.0704
 1001YOPC   C3A14499  11.129  14.672   7.149 -0.0437 -0.2738  0.0291
 1001YOPC   C4A14500  10.932  14.682   7.449 -0.0376 -0.1411  0.0354
 1001YOPC   C1B14501  12.153  14.229   6.557  0.0040 -0.0848 -0.0442
 1001YOPC   C2B14502  11.886  13.921   6.712 -0.0808  0.3097  0.0393
 1001YOPC   D3B14503  11.457  13.855   6.900 -0.1368  0.2625  0.1979
 1001YOPC   C4B14504  11.204  14.068   7.179 -0.0316 -0.0154 -0.1953
 1002YOPC   NC314505   1.406   3.429   6.288  0.0470  0.1084  0.1424
 1002YOPC   PO414506   1.714   3.176   6.339 -0.1298 -0.1707  0.2109
 1002YOPC   GL114507   1.826   3.509   6.661  0.1290 -0.2707  0.0651
 1002YOPC   GL214508   2.224   3.631   6.524 -0.0720  0.0932 -0.0039
 1002YOPC   C1A14509   1.755   3.513   7.102 -0.1041 -0.1123  0.2416
 1002YOPC   D2A14510   1.856   3.440   7.604 -0.3067 -0.0796  0.1359
 1002YOPC   C3A14511   1.837   3.690   7.931  0.1076  0.1510 -0.3166
 1002YOPC   C4A14512   2.061   4.023   7.952 -0.0060 -0.1389 -0.1302
 1002YOPC   C1B14513   2.313   3.651   6.813 -0.2534  0.2797 -0.1057
 1002YOPC   C2B14514   2.287   3.581   7.247  0.3992 -0.3274 -0.0267
 1002YOPC   D3B14515   2.221   3.089   7.381 -0.0838 -0.0176 -0.3761
 1002YOPC   C4B14516   2.323   2.753   7.492 -0.0306  0.0246  0.1156
 1003YOPC   NC314517   4.665  11.140   5.919 -0.1507  0.1323 -0.2367
 1003YOPC   PO414518   4.516  10.762   5.863  0.0522  0.1118 -0.2716
 1003YOPC   GL114519   4.460  10.722   6.277 -0.1969 -0.2621 -0.0110
 1003YOPC   GL214520   4.696  10.654   6.515 -0.2488  0.0018  0.0191
 1003YOPC   C1A14521   4.323  10.451   6.758 -0.4314  0.0121 -0.0114
 1003YOPC   D2A14522   4.486  10.605   7.198  0.4659 -0.0127  0.5690
 1003YOPC   C3A14523   4.473  10.467   7.618  0.0822 -0.1576  0.2171
 1003YOPC   C4A14524   4.647  10.223   7.960  0.1914  0.0635 -0.2520
 1003YOPC   C1B14525   4.298  10.928   6.710 -0.2357  0.2822 -0.1588
 1003YOPC   C2B14526   4.223  11.150   6.969 -0.2282 -0.1837 -0.0320
 1003YOPC   D3B14527   4.275  11.010   7.370 -0.2270 -0.1032 -0.3325
 1003YOPC   C4B14528   4.169  10.919   7.790  0.1857 -0.0172 -0.3842
 1004YOPC   NC314529  11.882  15.056   5.913  0.0869 -0.0430 -0.3624
 1004YOPC   PO414530  12.332  14.941   6.126  0.0362  0.0338  0.0007
 1004YOPC   GL114531  12.328  15.048   6.590 -0.0254 -0.3577  0.2908
 1004YOPC   GL214532  12.272  15.408   6.533 -0.0429 -0.0384 -0.0176
 1004YOPC   C1A14533  12.034  15.001   6.910 -0.0677  0.0958 -0.1489
 1004YOPC   D2A14534  12.163  14.782   7.355  0.1824 -0.2697 -0.2257
 1004YOPC   C3A14535  12.011  14.414   7.530  0.2823 -0.1347 -0.1949
 1004YOPC   C4A14536  11.999  14.617   7.967  0.1150 -0.1754 -0.1172
 1004YOPC   C1B14537  12.089  15.516   6.908 -0.1458 -0.2905  0.1199
 1004YOPC   C2B14538  12.268  15.401   7.336 -0.2700  0.0610  0.0568
 1004YOPC   D3B14539  12.648  15.420   7.572  0.1039 -0.0952  0.1143
 1004YOPC   C4B14540  12.969  15.601   7.721  0.1178  0.0541 -0.1658
 1005YOPC   NC314541  16.384  11.267   6.162 -0.1437  0.1397  0.1582
 1005YOPC   PO414542  16.103  11.087   6.234 -0.1050  0.0559 -0.1423
 1005YOPC   GL114543  16.225  10.912   6.537 -0.0752 -0.0636  0.0187
 1005YOPC   GL214544  16.413  10.697   6.540  0.0618  0.5324  0.0831
 1005YOPC   C1A14545  16.034  10.940   6.956 -0.0236 -0.0741 -0.0841
 1005YOPC   D2A14546  15.913  11.093   7.343 -0.1274 -0.0152  0.1026
 1005YOPC   C3A14547  16.027  11.401   7.560 -0.1436 -0.1001  0.0157
 1005YOPC   C4A14548  16.245  11.704   7.724  0.2984  0.0430 -0.2457
 1005YOPC   C1B14549  16.669  10.312   6.738  0.1085  0.2058 -0.2584
 1005YOPC   C2B14550  16.561   9.899   6.959 -0.0825  0.0254  0.4292
 1005YOPC   D3B14551  16.509   9.842   7.458 -0.2103  0.3644  0.1141
 1005YOPC   C4B14552  16.341   9.860   7.876 -0.0779  0.1012  0.2169
 1006YOPC   NC314553   1.053   9.179   5.765 -0.0839  0.3160  0.1713
 1006YOPC   PO414554   0.977   8.755   5.986 -0.1116  0.0024  0.1620
 1006YOPC   GL114555   0.710   8.608   6.196 -0.1134 -0.2089 -0.0880
 1006YOPC   GL214556   0.618   8.723   6.528  0.0592  0.1686 -0.0606
 1006YOPC   C1A14557   0.759   8.275   6.498  0.1337 -0.2388  0.1064
 1006YOPC   D2A14558   0.885   7.846   6.629  0.0350  0.0072  0.1819
 1006YOPC   C3A14559   1.140   7.672   6.994 -0.0138  0.3494  0.2207
 1006YOPC   C4A14560   1.220   7.876   7.424  0.2384 -0.0299  0.0931
 1006YOPC   C1B14561   0.787   8.672   6.906  0.0905  0.1584 -0.1240
 1006YOPC   C2B14562   0.797   8.656   7.415 -0.2676  0.1661 -0.0147
 1006YOPC   D3B14563   0.981   8.308   7.467  0.3187 -0.1363 -0.1062
 1006YOPC   C4B14564   1.272   8.196   7.790  0.1149 -0.2625 -0.0359
 1007YOPC   NC314565  11.353   7.871   6.180  0.2568  0.0156  0.0516
 1007YOPC   PO414566  11.435   7.578   6.487 -0.0473  0.0466  0.0135
 1007YOPC   GL114567  11.376   7.728   6.802  0.1816 -0.2295 -0.0521
 1007YOPC   GL214568  11.402   8.079   6.693  0.4137 -0.1279  0.0473
 1007YOPC   C1A14569  11.390   7.968   7.160  0.0153 -0.0702 -0.0445
 1007YOPC   D2A14570  11.668   8.073   7.500 -0.2409 -0.0098  0.0651
 1007YOPC   C3A14571  11.576   8.213   7.937  0.1081  0.0956  0.0405
 1007YOPC   C4A14572  11.272   8.298   8.211 -0.0858 -0.0919  0.1127
 1007YOPC   C1B14573  11.569   8.434   7.001  0.0393  0.3804 -0.0486
 1007YOPC   C2B14574  11.999   8.394   7.198 -0.2089 -0.4618 -0.2552
 1007YOPC   D3B14575  12.184   8.700   7.344 -0.0891 -0.1358  0.4182
 1007YOPC   C4B14576  12.178   8.967   7.632  0.3044  0.2170  0.4405
 1008YOPC   NC314577   1.190  12.760   5.793  0.1110 -0.2802 -0.2080
 1008YOPC   PO414578   0.848  12.913   6.079 -0.2951 -0.2816 -0.0377
 1008YOPC   GL114579   0.925  13.072   6.525 -0.3986 -0.0598  0.0820
 1008YOPC   GL214580   0.679  12.997   6.799 -0.0076 -0.0741 -0.0540
 1008YOPC   C1A14581   1.249  12.883   6.742  0.1764 -0.0366 -0.0299
 1008YOPC   D2A14582   1.310  12.810   7.129 -0.0040  0.4265  0.2626
 1008YOPC   C3A14583   1.056  12.656   7.483 -0.4102 -0.2693 -0.1324
 1008YOPC   C4A14584   0.859  12.470   7.845  0.2911  0.0404  0.0104
 1008YOPC   C1B14585   0.782  12.948   7.199  0.1305  0.1323  0.1411
 1008YOPC   C2B14586   0.693  13.065   7.608 -0.2625  0.2182 -0.0461
 1008YOPC   D3B14587   0.903  13.088   7.856 -0.1121 -0.2395 -0.1165
 1008YOPC   C4B14588   1.075  13.310   8.224 -0.1162 -0.2599  0.1792
 1009YOPC   NC314589  17.763  10.940   6.266 -0.1771  0.1554 -0.2468
 1009YOPC   PO414590  17.505  11.256   6.349  0.1153  0.2321 -0.1472
 1009YOPC   GL114591  17.209  11.357   6.729  0.0283  0.1005  0.1587
 1009YOPC   GL214592  17.180  11.080   6.876  0.0097 -0.1446  0.0925
 1009YOPC   C1A14593  17.057  11.530   7.137  0.2348  0.2644  0.1924
 1009YOPC   D2A14594  16.740  11.692   7.584 -0.0845 -0.2479 -0.0785
 1009YOPC   C3A14595  16.678  11.585   8.081  0.2734 -0.0481  0.0869
 1009YOPC   C4A14596  16.277  11.475   8.239 -0.0769 -0.1612 -0.2209
 1009YOPC   C1B14597  17.059  11.031   7.230 -0.2317  0.2590  0.1832
 1009YOPC   C2B14598  16.919  11.129   7.579  0.1757 -0.0763  0.3133
 1009YOPC   D3B14599  17.106  11.218   8.004  0.1041  0.2613  0.0093
 1009YOPC   C4B14600  17.408  11.151   8.365 -0.1844 -0.0211 -0.0297
 1010YOPC   NC314601  13.870   7.311   6.107 -0.1492 -0.2249  0.0491
 1010YOPC   PO414602  13.739   7.091   6.421 -0.0016  0.1910  0.0935
 1010YOPC   GL114603  13.524   7.150   6.703 -0.1903  0.2372  0.1418
 1010YOPC   GL214604  13.276   7.119   6.658 -0.2239 -0.0067 -0.0368
 1010YOPC   C1A14605  13.460   7.251   7.127 -0.2361 -0.1852 -0.2542
 1010YOPC   D2A14606  13.222   7.201   7.448 -0.2844  0.0083  0.0769
 1010YOPC   C3A14607  13.164   6.822   7.623 -0.1798 -0.4412  0.0832
 1010YOPC   C4A14608  13.040   6.525   8.002 -0.2755  0.2068 -0.0262
 1010YOPC   C1B14609  13.100   6.930   6.895 -0.3079  0.1031 -0.0382
 1010YOPC   C2B14610  12.791   6.853   7.280 -0.1351 -0.4059 -0.0087
 1010YOPC   D3B14611  12.459   6.613   7.171  0.2048  0.0560 -0.0777
 1010YOPC   C4B14612  12.264   6.250   6.969  0.2058  0.0918  0.0998
 1011YOPC   NC314613  10.876   0.525   5.911  0.0643  0.2101  0.0473
 1011YOPC   PO414614  10.606   0.779   6.024  0.1478  0.0588 -0.0026
 1011YOPC   GL114615  10.543   0.712   6.408 -0.0511  0.7478 -0.4639
 1011YOPC   GL214616  10.453   0.923   6.604  0.1164 -0.2886  0.3126
 1011YOPC   C1A14617  10.869   0.739   6.779 -0.1362  0.3168  0.0331
 1011YOPC   D2A14618  10.992   1.026   7.174 -0.2375  0.1642 -0.1311
 1011YOPC   C3A14619  10.701   1.368   7.433 -0.0954 -0.2514 -0.2442
 1011YOPC   C4A14620  10.679   1.718   7.698  0.0505 -0.1585  0.0638
 1011YOPC   C1B14621  10.411   0.899   7.014  0.0747 -0.0980  0.1163
 1011YOPC   C2B14622  10.281   0.945   7.407  0.2819  0.0685 -0.2368
 1011YOPC   D3B14623  10.391   0.661   7.749  0.2965  0.1505 -0.2496
 1011YOPC   C4B14624  10.442   0.960   8.067  0.1859  0.1552 -0.1144
 1012YOPC   NC314625   0.664   4.082   6.211 -0.0771 -0.1125  0.1063
 1012YOPC   PO414626   0.683   4.580   6.243  0.2914  0.1409  0.1491
 1012YOPC   GL114627   0.700   4.382   6.585  0.0520  0.1302 -0.1897
 1012YOPC   GL214628   0.388   4.362   6.746 -0.4579 -0.1050 -0.1594
 1012YOPC   C1A14629   0.779   4.462   7.014  0.2032  0.0912 -0.0338
 1012YOPC   D2A14630   0.605   4.587   7.371 -0.2795  0.1062 -0.1096
 1012YOPC   C3A14631   0.874   4.478   7.749 -0.2482 -0.1173  0.0024
 1012YOPC   C4A14632   1.087   4.445   8.168  0.1642 -0.1570  0.1459
 1012YOPC   C1B14633   0.286   4.295   7.110 -0.0981  0.1771 -0.0094
 1012YOPC   C2B14634   0.075   4.256   7.430  0.0770  0.0488  0.1131
 1012YOPC   D3B14635   0.343   4.425   7.845  0.0370  0.0677  0.0797
 1012YOPC   C4B14636   0.147   4.439   8.327 -0.0679 -0.0512  0.1282
 1013YOPC   NC314637  14.814   9.486   5.748 -0.0888  0.1090  0.3037
 1013YOPC   PO414638  15.145   9.599   5.991  0.2210  0.1140  0.3098
 1013YOPC   GL114639  15.106   9.573   6.383 -0.1147 -0.0617 -0.0630
 1013YOPC   GL214640  15.499   9.532   6.570  0.0589 -0.0210 -0.2051
 1013YOPC   C1A14641  15.021   9.408   6.762  0.2233  0.0417 -0.1570
 1013YOPC   D2A14642  15.203   9.206   7.125 -0.4125 -0.1017  0.1206
 1013YOPC   C3A14643  15.235   9.154   7.465 -0.0513 -0.1282  0.0171
 1013YOPC   C4A14644  15.689   9.238   7.644  0.0910 -0.0792  0.2093
 1013YOPC   C1B14645  15.538   9.650   6.979 -0.2215  0.2244 -0.0224
 1013YOPC   C2B14646  15.553   9.658   7.383  0.0242 -0.0129  0.1845
 1013YOPC   D3B14647  15.292   9.554   7.779  0.1827  0.3197 -0.1369
 1013YOPC   C4B14648  15.036   9.182   7.957  0.2038  0.1170  0.0678
 1014YOPC   NC314649  13.225   1.383   6.161 -0.2859 -0.1489  0.0328
 1014YOPC   PO414650  13.295   1.754   6.332 -0.3931 -0.1110 -0.0097
 1014YOPC   GL114651  13.137   1.839   6.698 -0.0948 -0.1095 -0.8337
 1014YOPC   GL214652  13.324   1.788   7.060  0.2843  0.1596 -0.0102
 1014YOPC   C1A14653  12.825   1.811   6.989  0.2438 -0.1196 -0.1501
 1014YOPC   D2A14654  12.684   1.969   7.303  0.0853 -0.0353 -0.0684
 1014YOPC   C3A14655  12.654   1.925   7.696  0.1335 -0.2969 -0.1663
 1014YOPC   C4A14656  12.860   1.711   8.007  0.1159  0.0283  0.0487
 1014YOPC   C1B14657  13.170   1.852   7.489  0.0474  0.1969 -0.0256
 1014YOPC   C2B14658  13.237   2.002   7.979 -0.2241 -0.3530  0.0530
 1014YOPC   D3B14659  13.280   1.670   8.288  0.1271 -0.1117 -0.3280
 1014YOPC   C4B14660  13.655   1.506   8.535 -0.0765  0.1414 -0.1605
 1015YOPC   NC314661  10.192  11.776   5.855 -0.2602  0.2807  0.0492
 1015YOPC   PO414662  10.643  11.603   6.086  0.2096 -0.0140 -0.1966
 1015YOPC   GL114663  10.453  11.737   6.395  0.4426  0.0859  0.0912
 1015YOPC   GL214664  10.127  11.696   6.362  0.1953 -0.1478  0.1071
 1015YOPC   C1A14665  10.314  11.714   6.842  0.4464 -0.1673 -0.1276
 1015YOPC   D2A14666  10.236  11.381   7.119 -0.5191 -0.0505 -0.1961
 1015YOPC   C3A14667  10.274  11.548   7.554 -0.5377 -0.1087 -0.1418
 1015YOPC   C4A14668  10.350  11.710   8.016 -0.0956  0.1691 -0.2759
 1015YOPC   C1B14669   9.726  11.561   6.371 -0.0606 -0.2431 -0.2364
 1015YOPC   C2B14670   9.366  11.524   6.656 -0.0920  0.0756 -0.2153
 1015YOPC   D3B14671   9.288  11.107   6.930  0.4859  0.0104 -0.3158
 1015YOPC   C4B14672   9.212  10.714   6.899  0.1773  0.3090 -0.1655
 1016YOPC   NC314673  10.821  16.032   5.780  0.0109  0.1401 -0.0569
 1016YOPC   PO414674  10.998  15.898   6.020 -0.0706  0.3762 -0.0124
 1016YOPC   GL114675  10.895  15.874   6.537 -0.2060  0.1455 -0.1838
 1016YOPC   GL214676  10.915  15.607   6.524 -0.0220 -0.1301  0.0803
 1016YOPC   C1A14677  11.049  16.021   6.962 -0.1989 -0.3563  0.1895
 1016YOPC   D2A14678  11.060  15.865   7.379 -0.1322 -0.2606 -0.2029
 1016YOPC   C3A14679  10.833  15.716   7.720  0.4415  0.0388  0.0831
 1016YOPC   C4A14680  10.844  15.713   8.059  0.0768 -0.0525 -0.0426
 1016YOPC   C1B14681  10.916  15.541   7.012  0.0746  0.0789 -0.0181
 1016YOPC   C2B14682  10.870  15.371   7.425  0.0591 -0.3884  0.2285
 1016YOPC   D3B14683  10.711  15.055   7.698 -0.0590  0.2064  0.0948
 1016YOPC   C4B14684  10.670  14.835   8.109 -0.2068  0.0222  0.2161
 1017YOPC   NC314685  12.181   0.588   6.053 -0.0159 -0.2314  0.0686
 1017YOPC   PO414686  12.046   1.035   6.277  0.2916 -0.2530  0.2747
 1017YOPC   GL114687  12.104   1.099   6.699 -0.0399  0.1335  0.1586
 1017YOPC   GL214688  11.860   1.257   6.703  0.3043 -0.4125 -0.1574
 1017YOPC   C1A14689  12.244   1.087   7.133  0.0163 -0.1199 -0.0175
 1017YOPC   D2A14690  12.529   1.158   7.421 -0.0937 -0.0970 -0.1034
 1017YOPC   C3A14691  12.497   1.189   7.856 -0.1285 -0.1773  0.2485
 1017YOPC   C4A14692  12.436   1.487   8.147 -0.2322  0.0092 -0.1783
 1017YOPC   C1B14693  11.564   1.539   6.726 -0.0097 -0.2135 -0.1066
 1017YOPC   C2B14694  11.230   1.933   6.713  0.1203  0.1219 -0.1177
 1017YOPC   D3B14695  11.179   2.230   7.180  0.2823 -0.1894 -0.1564
 1017YOPC   C4B14696  11.118   2.512   7.614 -0.1308 -0.2917  0.0574
 1018YOPC   NC314697  12.267  17.187   6.262  0.1718 -0.0359  0.4589
 1018YOPC   PO414698  12.162  16.738   6.102  0.1711 -0.0738  0.0629
 1018YOPC   GL114699  12.188  16.680   6.519  0.1383  0.0155  0.0872
 1018YOPC   GL214700  12.541  16.818   6.652 -0.0696 -0.1378  0.1143
 1018YOPC   C1A14701  12.039  16.602   6.922  0.0202  0.0935  0.2689
 1018YOPC   D2A14702  11.728  16.663   7.032  0.1247 -0.0055 -0.0468
 1018YOPC   C3A14703  11.556  16.690   7.368  0.0247 -0.0930 -0.1320
 1018YOPC   C4A14704  11.342  16.558   7.696 -0.0877  0.0511 -0.0132
 1018YOPC   C1B14705  12.478  16.820   7.151  0.1519  0.0252  0.2571
 1018YOPC   C2B14706  12.196  16.805   7.453 -0.3004  0.0957 -0.0345
 1018YOPC   D3B14707  12.278  16.982   7.748 -0.5325  0.0386 -0.1735
 1018YOPC   C4B14708  12.332  16.912   8.220  0.2155 -0.2652 -0.1125
 1019YOPC   NC314709  12.503   4.475   6.127 -0.0213 -0.2823  0.1608
 1019YOPC   PO414710  12.054   4.569   6.129 -0.3730  0.2566  0.0500
 1019YOPC   GL114711  11.854   4.483   6.545  0.3530 -0.0258  0.0923
 1019YOPC   GL214712  11.574   4.617   6.511 -0.0706  0.0889  0.1304
 1019YOPC   C1A14713  11.844   4.381   6.939  0.1128 -0.1329  0.1580
 1019YOPC   D2A14714  11.695   4.558   7.373  0.1290  0.1373  0.1307
 1019YOPC   C3A14715  11.876   4.410   7.731  0.2952  0.1481 -0.3016
 1019YOPC   C4A14716  12.172   4.209   8.090 -0.1049 -0.0679  0.1261
 1019YOPC   C1B14717  11.585   4.780   6.957  0.2816  0.1927  0.3970
 1019YOPC   C2B14718  11.358   4.910   7.372 -0.2724 -0.0178 -0.0223
 1019YOPC   D3B14719  11.601   4.981   7.692 -0.2737  0.0859 -0.1117
 1019YOPC   C4B14720  11.676   4.816   8.022  0.0918 -0.1807 -0.0917
 1020YOPC   NC314721  14.273   4.175   6.198  0.1605  0.2088  0.3075
 1020YOPC   PO414722  14.449   4.603   6.227  0.0622  0.0648 -0.3530
 1020YOPC   GL114723  14.425   4.585   6.619  0.1095  0.1912  0.0604
 1020YOPC   GL214724  14.545   4.711   6.812  0.1908 -0.2250  0.0017
 1020YOPC   C1A14725  14.270   4.439   7.098  0.0091  0.1257  0.1549
 1020YOPC   D2A14726  14.343   4.266   7.502 -0.0367  0.0347  0.2533
 1020YOPC   C3A14727  14.548   4.449   7.805 -0.0358  0.1809  0.1493
 1020YOPC   C4A14728  14.722   4.237   8.183 -0.1718 -0.0621 -0.0128
 1020YOPC   C1B14729  14.622   4.965   7.146 -0.1322  0.0600 -0.3432
 1020YOPC   C2B14730  14.830   4.991   7.510 -0.2867 -0.1254  0.2745
 1020YOPC   D3B14731  15.130   5.306   7.637 -0.0146 -0.0473  0.0396
 1020YOPC   C4B14732  15.609   5.432   7.611  0.0781 -0.1099 -0.0220
 1021YOPC   NC314733  11.318  12.627   5.486 -0.2379 -0.1381 -0.0744
 1021YOPC   PO414734  11.285  12.851   5.890 -0.1178  0.0265  0.0395
 1021YOPC   GL114735  11.280  12.810   6.311  0.2018 -0.1330  0.1842
 1021YOPC   GL214736  10.906  12.743   6.370  0.1841  0.1558 -0.2298
 1021YOPC   C1A14737  11.520  12.827   6.647  0.0390  0.2778  0.0030
 1021YOPC   D2A14738  11.589  12.781   7.033 -0.0416  0.2719  0.0616
 1021YOPC   C3A14739  11.894  13.026   7.205  0.2551  0.0033  0.0268
 1021YOPC   C4A14740  12.302  13.070   7.319 -0.0087  0.0939  0.2292
 1021YOPC   C1B14741  11.012  12.929   6.771  0.1703 -0.0419 -0.2238
 1021YOPC   C2B14742  10.999  12.991   7.202 -0.0862  0.0421  0.1315
 1021YOPC   D3B14743  11.361  12.813   7.427  0.1837 -0.0568 -0.0684
 1021YOPC   C4B14744  11.378  12.700   7.910  0.0261 -0.2224 -0.1474
 1022YOPC   NC314745   5.242  17.202   5.660 -0.2143  0.2494  0.1094
 1022YOPC   PO414746   5.043  16.853   5.865  0.1252  0.0621 -0.0087
 1022YOPC   GL114747   4.712  17.079   6.129  0.3683  0.3125 -0.1403
 1022YOPC   GL214748   4.387  17.144   6.271 -0.0409 -0.0883  0.2270
 1022YOPC   C1A14749   4.747  16.902   6.593  0.3835  0.0164  0.1417
 1022YOPC   D2A14750   4.747  16.599   6.907 -0.0031  0.0723  0.2950
 1022YOPC   C3A14751   5.061  16.301   7.122  0.0676 -0.0147  0.1754
 1022YOPC   C4A14752   5.074  16.115   7.601  0.0886  0.1972 -0.1664
 1022YOPC   C1B14753   4.362  17.276   6.672  0.0678  0.4099  0.0037
 1022YOPC   C2B14754   4.618  17.082   7.088  0.0809  0.1303  0.3340
 1022YOPC   D3B14755   5.029  17.018   6.948 -0.3678  0.4467 -0.1825
 1022YOPC   C4B14756   5.357  16.936   6.650  0.1938 -0.1932  0.0424
 1023YOPC   NC314757   2.471  12.582   5.794 -0.3246 -0.1732 -0.3020
 1023YOPC   PO414758   2.494  12.934   6.019  0.0178 -0.1805 -0.0815
 1023YOPC   GL114759   2.145  12.991   6.344  0.2553  0.0009 -0.0681
 1023YOPC   GL214760   1.807  12.986   6.324  0.1593 -0.3282 -0.1221
 1023YOPC   C1A14761   2.058  12.733   6.673 -0.0346  0.2826  0.3441
 1023YOPC   D2A14762   1.836  12.826   7.085 -0.0237 -0.2455 -0.2176
 1023YOPC   C3A14763   2.033  12.618   7.362 -0.1030 -0.3239  0.1983
 1023YOPC   C4A14764   2.022  12.886   7.733  0.3687 -0.2391  0.3389
 1023YOPC   C1B14765   1.695  13.204   6.768 -0.1985 -0.0639  0.1735
 1023YOPC   C2B14766   1.640  13.254   7.236 -0.0104 -0.3919 -0.2034
 1023YOPC   D3B14767   1.534  12.975   7.509  0.1897 -0.0804  0.2390
 1023YOPC   C4B14768   1.491  12.580   7.760  0.0703 -0.0042 -0.0269
 1024YOPC   NC314769  12.803  14.054   5.877  0.2649  0.2724 -0.1324
 1024YOPC   PO414770  13.143  13.919   6.060 -0.0984  0.0923 -0.0201
 1024YOPC   GL114771  12.933  14.159   6.445  0.2255  0.2570  0.0492
 1024YOPC   GL214772  13.102  14.248   6.669 -0.0560 -0.0399 -0.0645
 1024YOPC   C1A14773  12.664  14.379   6.787  0.0281 -0.0076 -0.1683
 1024YOPC   D2A14774  12.432  14.654   6.963 -0.1426 -0.3566  0.0215
 1024YOPC   C3A14775  12.511  14.408   7.427 -0.2108 -0.2411  0.2256
 1024YOPC   C4A14776  12.424  14.131   7.812  0.0165 -0.1512  0.0231
 1024YOPC   C1B14777  13.145  14.083   7.088 -0.0443 -0.1771  0.0705
 1024YOPC   C2B14778  12.866  14.011   7.347  0.0837 -0.1109  0.1814
 1024YOPC   D3B14779  12.889  13.880   7.772  0.1403  0.1193  0.1742
 1024YOPC   C4B14780  12.748  13.476   7.748  0.1421 -0.0371 -0.1618
 1025YOPC   NC314781  17.026  16.725   5.870  0.0655 -0.1284  0.2922
 1025YOPC   PO414782  16.708  16.566   6.166 -0.1710 -0.1040 -0.0424
 1025YOPC   GL114783  16.865  16.285   6.446  0.1324 -0.0586 -0.2678
 1025YOPC   GL214784  16.930  16.546   6.675  0.0316 -0.2362 -0.1502
 1025YOPC   C1A14785  16.800  16.023   6.815  0.0944 -0.3072 -0.3061
 1025YOPC   D2A14786  16.861  15.758   7.069  0.3953  0.0398  0.1818
 1025YOPC   C3A14787  16.966  15.876   7.473  0.0151  0.4462 -0.2024
 1025YOPC   C4A14788  17.219  15.868   7.860 -0.0858 -0.0657 -0.1295
 1025YOPC   C1B14789  16.944  16.447   7.121  0.0387  0.1358  0.0472
 1025YOPC   C2B14790  16.762  16.637   7.457  0.0480  0.1016  0.3579
 1025YOPC   D3B14791  16.721  16.612   7.912  0.0904 -0.0689 -0.1713
 1025YOPC   C4B14792  16.792  16.710   8.373 -0.1507  0.1525  0.1262
 1026YOPC   NC314793  12.946   9.261   5.676  0.1819  0.1139  0.1058
 1026YOPC   PO414794  13.070   9.047   5.990 -0.0893  0.3083  0.1673
 1026YOPC   GL114795  13.392   8.835   6.246 -0.0184 -0.2285  0.1330
 1026YOPC   GL214796  13.251   8.656   6.459 -0.3467 -0.1178 -0.3743
 1026YOPC   C1A14797  13.659   8.967   6.611 -0.0276  0.2316  0.3107
 1026YOPC   D2A14798  13.950   9.297   6.786 -0.2275  0.1076 -0.0314
 1026YOPC   C3A14799  14.275   9.320   7.109  0.0826  0.0140  0.0924
 1026YOPC   C4A14800  14.683   9.385   7.212  0.1035  0.3056  0.1520
 1026YOPC   C1B14801  13.216   8.597   6.918 -0.1747 -0.2762  0.0191
 1026YOPC   C2B14802  13.028   8.597   7.362  0.2018 -0.1437 -0.1366
 1026YOPC   D3B14803  12.696   8.872   7.477 -0.0241 -0.4472 -0.1349
 1026YOPC   C4B14804  12.488   9.119   7.317 -0.1041 -0.1552  0.1949
 1027YOPC   NC314805   4.765   9.944   5.922  0.3051 -0.0560 -0.2708
 1027YOPC   PO414806   5.072   9.569   6.208 -0.0067  0.2424 -0.0839
 1027YOPC   GL114807   4.912   9.735   6.482  0.0843  0.2572  0.0496
 1027YOPC   GL214808   4.661  10.066   6.526  0.0777 -0.0494 -0.1485
 1027YOPC   C1A14809   4.980   9.784   6.902 -0.2586 -0.2591  0.4114
 1027YOPC   D2A14810   4.703  10.036   7.069 -0.1201  0.0049  0.0609
 1027YOPC   C3A14811   4.889  10.205   7.438  0.4099  0.1378  0.1433
 1027YOPC   C4A14812   5.132  10.350   7.877  0.2916  0.1615  0.1591
 1027YOPC   C1B14813   5.036  10.232   6.665  0.1307  0.0106  0.0724
 1027YOPC   C2B14814   5.411  10.289   6.864  0.1415  0.0501  0.0891
 1027YOPC   D3B14815   5.431  10.222   7.369  0.4331 -0.1011  0.1796
 1027YOPC   C4B14816   5.487  10.113   7.702  0.2411 -0.1132 -0.0656
 1028YOPC   NC314817  17.496  15.577   6.229  0.0554  0.1299 -0.0870
 1028YOPC   PO414818  17.247  15.227   6.001 -0.1679  0.4422 -0.2841
 1028YOPC   GL114819  17.301  15.215   6.456  0.2462 -0.1600 -0.1723
 1028YOPC   GL214820  17.588  15.226   6.694 -0.0136  0.0278 -0.3606
 1028YOPC   C1A14821  17.159  15.366   6.900 -0.0922 -0.1345 -0.0816
 1028YOPC   D2A14822  17.220  15.442   7.330 -0.0360 -0.0036 -0.0724
 1028YOPC   C3A14823  17.060  15.312   7.714  0.4067 -0.0328 -0.1170
 1028YOPC   C4A14824  17.010  15.203   8.142  0.1621  0.1314  0.1086
 1028YOPC   C1B14825  17.621  15.208   7.111 -0.1252 -0.0153  0.0967
 1028YOPC   C2B14826  17.539  15.013   7.527 -0.2389 -0.0608 -0.2673
 1028YOPC   D3B14827  17.524  15.169   7.881 -0.2612  0.0629  0.0786
 1028YOPC   C4B14828  17.488  15.245   8.375 -0.1582  0.0470 -0.3079
 1029YOPC   NC314829  16.123   1.354   6.672  0.1443 -0.0859  0.0559
 1029YOPC   PO414830  15.799   1.094   6.784 -0.1045  0.0473 -0.0369
 1029YOPC   GL114831  15.773   0.884   7.115  0.0388  0.1604  0.1866
 1029YOPC   GL214832  15.534   0.642   7.045 -0.0317 -0.1116  0.0421
 1029YOPC   C1A14833  15.823   0.836   7.579 -0.3052 -0.1273 -0.0113
 1029YOPC   D2A14834  15.770   0.825   7.951  0.1480  0.2537 -0.1622
 1029YOPC   C3A14835  16.077   0.888   8.297 -0.0405 -0.2640  0.1828
 1029YOPC   C4A14836  16.088   1.298   8.538 -0.2719  0.0473  0.1831
 1029YOPC   C1B14837  15.466   0.472   7.379  0.1213  0.3559 -0.2553
 1029YOPC   C2B14838  15.389   0.470   7.767  0.2033 -0.0589 -0.1064
 1029YOPC   D3B14839  15.353   0.155   8.041 -0.0900 -0.0605 -0.1422
 1029YOPC   C4B14840  15.302  -0.146   8.274  0.3160 -0.0104 -0.1749
 1030YOPC   NC314841  16.005  12.783   5.757  0.0911  0.2029  0.0621
 1030YOPC   PO414842  15.993  12.875   6.200 -0.0462  0.1675 -0.3202
 1030YOPC   GL114843  16.018  12.526   6.491  0.0781  0.0924 -0.0034
 1030YOPC   GL214844  16.093  12.183   6.508 -0.2845 -0.0169 -0.0242
 1030YOPC   C1A14845  16.042  12.577   6.993  0.0364  0.1606 -0.0597
 1030YOPC   D2A14846  15.968  12.577   7.370 -0.0093  0.1715 -0.1857
 1030YOPC   C3A14847  16.221  12.712   7.675  0.0284  0.0494 -0.0671
 1030YOPC   C4A14848  16.312  12.460   8.056 -0.1399 -0.2147  0.0430
 1030YOPC   C1B14849  16.035  12.000   6.846  0.2362 -0.0163 -0.3984
 1030YOPC   C2B14850  15.795  12.133   7.101  0.0547 -0.0295  0.1482
 1030YOPC   D3B14851  15.824  11.881   7.484 -0.1041  0.2068 -0.0357
 1030YOPC   C4B14852  15.816  11.626   7.939 -0.2302 -0.2730  0.2210
 1031YOPC   NC314853  10.433   5.611   6.242 -0.1300 -0.1650  0.0833
 1031YOPC   PO414854  10.727   5.281   6.376 -0.0712  0.2762 -0.1402
 1031YOPC   GL114855  10.682   5.506   6.790  0.0480 -0.3779 -0.3923
 1031YOPC   GL214856  10.776   5.860   6.772  0.1297 -0.1184  0.0631
 1031YOPC   C1A14857  10.666   5.534   7.189 -0.1182  0.1944  0.1149
 1031YOPC   D2A14858  10.749   5.748   7.634 -0.1224  0.0752  0.1203
 1031YOPC   C3A14859  10.776   5.444   7.955 -0.0656 -0.2542 -0.0335
 1031YOPC   C4A14860  10.861   4.933   7.879  0.3428 -0.2441  0.1144
 1031YOPC   C1B14861  10.917   6.070   7.213 -0.1939  0.0186 -0.0872
 1031YOPC   C2B14862  10.942   6.156   7.711  0.1801  0.0340  0.1747
 1031YOPC   D3B14863  10.882   5.872   8.117  0.2262 -0.0326 -0.2709
 1031YOPC   C4B14864  10.940   5.617   8.498  0.1829 -0.2219 -0.0514
 1032YOPC   NC314865   3.223  15.668   5.596 -0.0289 -0.0104 -0.2307
 1032YOPC   PO414866   3.269  15.777   6.051 -0.0830  0.2588  0.2668
 1032YOPC   GL114867   3.460  15.798   6.472 -0.1096 -0.0319 -0.0738
 1032YOPC   GL214868   3.650  16.080   6.618 -0.0569 -0.1333  0.3108
 1032YOPC   C1A14869   3.469  15.604   6.859 -0.1874 -0.2147  0.1701
 1032YOPC   D2A14870   3.347  15.671   7.276  0.0979 -0.1668  0.0988
 1032YOPC   C3A14871   3.047  15.610   7.525  0.1278 -0.3264 -0.0177
 1032YOPC   C4A14872   2.959  15.413   7.858 -0.1910  0.0281 -0.1247
 1032YOPC   C1B14873   3.551  16.116   7.090  0.0974  0.0044 -0.0015
 1032YOPC   C2B14874   3.354  16.177   7.436 -0.1851  0.0125 -0.2347
 1032YOPC   D3B14875   3.519  16.383   7.800  0.0663 -0.0245  0.2679
 1032YOPC   C4B14876   3.511  16.106   8.198 -0.2838  0.2640  0.0479
 1033YOPC   NC314877   2.917   2.172   5.900 -0.1425 -0.3505  0.1730
 1033YOPC   PO414878   3.376   2.229   6.036 -0.1569 -0.2723  0.2714
 1033YOPC   GL114879   3.369   2.116   6.488 -0.0262 -0.0744 -0.0260
 1033YOPC   GL214880   3.472   2.399   6.514 -0.0185  0.0014 -0.0878
 1033YOPC   C1A14881   3.525   2.236   6.968 -0.0941  0.2189  0.0186
 1033YOPC   D2A14882   3.690   2.133   7.419  0.0563 -0.0363  0.2021
 1033YOPC   C3A14883   3.430   2.036   7.620 -0.1476  0.1229  0.0389
 1033YOPC   C4A14884   3.054   2.176   7.786 -0.0991 -0.0297 -0.0993
 1033YOPC   C1B14885   3.408   2.746   6.771  0.0614  0.1593  0.3286
 1033YOPC   C2B14886   3.108   2.978   7.025  0.1656  0.0796  0.1417
 1033YOPC   D3B14887   3.229   2.961   7.459  0.0611 -0.1617 -0.1781
 1033YOPC   C4B14888   3.180   2.981   7.878 -0.1098  0.2921 -0.2582
 1034YOPC   NC314889   6.357  10.782   6.045  0.1902 -0.1250 -0.2373
 1034YOPC   PO414890   6.776  10.971   6.081 -0.1863 -0.1350 -0.0991
 1034YOPC   GL114891   6.964  10.962   6.439  0.0194  0.3124 -0.1051
 1034YOPC   GL214892   7.125  10.786   6.666 -0.1400  0.0515 -0.1205
 1034YOPC   C1A14893   6.974  11.214   6.781  0.0800  0.0811  0.4769
 1034YOPC   D2A14894   7.030  11.503   7.118  0.1527 -0.1714 -0.1246
 1034YOPC   C3A14895   6.969  11.347   7.493 -0.0605 -0.1033 -0.1305
 1034YOPC   C4A14896   6.736  11.196   7.836  0.4628 -0.1404 -0.0378
 1034YOPC   C1B14897   7.036  10.811   7.094 -0.2134 -0.0013  0.0000
 1034YOPC   C2B14898   6.854  10.798   7.502 -0.1465  0.0534 -0.0472
 1034YOPC   D3B14899   6.776  10.444   7.845  0.1631 -0.0732 -0.1451
 1034YOPC   C4B14900   6.404  10.401   8.135  0.2789 -0.0957 -0.1040
 1035YOPC   NC314901   7.182   2.379   6.053  0.1931  0.1261 -0.0233
 1035YOPC   PO414902   6.817   2.074   5.995 -0.2592 -0.0147 -0.2176
 1035YOPC   GL114903   6.899   2.205   6.446  0.1604  0.1465 -0.0338
 1035YOPC   GL214904   6.884   2.510   6.423 -0.1101 -0.0806 -0.0229
 1035YOPC   C1A14905   7.141   2.156   6.762 -0.1749 -0.0720 -0.1909
 1035YOPC   D2A14906   7.299   2.051   7.239 -0.0557  0.2799  0.1611
 1035YOPC   C3A14907   7.266   2.171   7.657 -0.2323  0.3361  0.0981
 1035YOPC   C4A14908   6.878   2.271   7.941 -0.0107  0.0588 -0.0017
 1035YOPC   C1B14909   6.879   2.555   6.900  0.2113 -0.1836  0.0159
 1035YOPC   C2B14910   6.918   2.428   7.308 -0.0903  0.1295  0.2909
 1035YOPC   D3B14911   6.550   2.315   7.581  0.0539  0.0389  0.0293
 1035YOPC   C4B14912   6.375   2.153   7.836  0.1784  0.1937  0.0572
 1036YOPC   NC314913   8.849   3.750   5.699 -0.0176  0.1927 -0.0726
 1036YOPC   PO414914   8.734   3.810   6.162  0.0762  0.0747  0.2036
 1036YOPC   GL114915   8.934   4.032   6.478  0.1301 -0.0644 -0.1091
 1036YOPC   GL214916   8.575   3.968   6.674  0.0234  0.0651 -0.3504
 1036YOPC   C1A14917   8.887   4.291   6.827  0.0704  0.0904 -0.3379
 1036YOPC   D2A14918   8.787   4.316   7.330 -0.0326  0.0561  0.0326
 1036YOPC   C3A14919   8.946   4.265   7.677  0.1630 -0.3851  0.1145
 1036YOPC   C4A14920   9.073   3.941   7.981 -0.1959  0.0099 -0.1254
 1036YOPC   C1B14921   9.004   3.821   6.977  0.0843  0.2418 -0.0378
 1036YOPC   C2B14922   9.111   3.771   7.404 -0.1872  0.1148  0.0715
 1036YOPC   D3B14923   8.734   3.764   7.673 -0.2263  0.1566 -0.0143
 1036YOPC   C4B14924   8.417   3.524   7.913 -0.2082  0.1931 -0.3441
 1037YOPC   NC314925  16.451   0.732   6.132 -0.3073  0.0805 -0.1035
 1037YOPC   PO414926  16.172   0.975   6.364 -0.1920 -0.0595 -0.1484
 1037YOPC   GL114927  16.283   0.846   6.699  0.0314  0.1378  0.0482
 1037YOPC   GL214928  16.589   0.963   6.688  0.1034  0.3839  0.3077
 1037YOPC   C1A14929  16.255   0.796   7.214  0.1022  0.2836 -0.0617
 1037YOPC   D2A14930  16.372   0.692   7.614 -0.1877 -0.2055  0.0742
 1037YOPC   C3A14931  16.264   0.561   7.991  0.1292 -0.2035  0.1096
 1037YOPC   C4A14932  16.049   0.353   8.209  0.3692  0.2019 -0.1789
 1037YOPC   C1B14933  16.718   0.834   7.051 -0.1714 -0.2667  0.0126
 1037YOPC   C2B14934  16.884   0.703   7.496  0.0068  0.1683  0.2989
 1037YOPC   D3B14935  16.762   0.444   7.778 -0.2839 -0.1494  0.0904
 1037YOPC   C4B14936  16.794   0.100   7.980 -0.1924 -0.3404  0.0501
 1038YOPC   NC314937   7.424   7.511   6.046  0.0942 -0.2558 -0.0132
 1038YOPC   PO414938   7.424   7.070   6.132  0.1922 -0.0546  0.2076
 1038YOPC   GL114939   7.398   7.415   6.558  0.0163 -0.1814  0.0088
 1038YOPC   GL214940   7.608   7.291   6.612 -0.0631  0.2563 -0.0019
 1038YOPC   C1A14941   7.216   7.698   6.899  0.0149  0.1230  0.3185
 1038YOPC   D2A14942   7.063   7.995   7.151 -0.1193  0.0993  0.2517
 1038YOPC   C3A14943   7.049   7.794   7.604 -0.1791  0.0237 -0.1988
 1038YOPC   C4A14944   6.994   7.598   7.938  0.1708  0.2395  0.2100
 1038YOPC   C1B14945   7.702   7.450   7.015  0.3628 -0.1640 -0.1847
 1038YOPC   C2B14946   7.465   7.675   7.348  0.0327  0.2111  0.2613
 1038YOPC   D3B14947   7.605   7.851   7.644  0.3657  0.0450  0.1428
 1038YOPC   C4B14948   7.508   7.971   7.898 -0.0151 -0.0755  0.1076
 1039YOPC   NC314949   3.669   9.126   6.197 -0.3657 -0.2380  0.0976
 1039YOPC   PO414950   3.768   9.553   6.192  0.2208  0.0925 -0.0107
 1039YOPC   GL114951   3.456   9.607   6.486 -0.3048 -0.0491 -0.2319
 1039YOPC   GL214952   3.483   9.332   6.669  0.1680 -0.2195 -0.1587
 1039YOPC   C1A14953   3.383   9.910   6.766 -0.0424 -0.0277 -0.0290
 1039YOPC   D2A14954   3.477  10.288   6.914 -0.3671 -0.0431 -0.2110
 1039YOPC   C3A14955   3.453  10.256   7.318  0.2321 -0.2041  0.1157
 1039YOPC   C4A14956   3.494  10.393   7.736  0.0125  0.0618  0.2613
 1039YOPC   C1B14957   3.630   9.455   7.085  0.1684 -0.2029  0.0677
 1039YOPC   C2B14958   3.771   9.368   7.457  0.1082  0.3695 -0.0630
 1039YOPC   D3B14959   4.152   9.612   7.496  0.1889 -0.0790 -0.0651
 1039YOPC   C4B14960   4.483   9.911   7.613 -0.0786 -0.0037 -0.1162
 1040YOPC   NC314961   8.146   4.505   5.829  0.1574  0.0994  0.2197
 1040YOPC   PO414962   8.573   4.678   5.862 -0.2111  0.0452  0.1367
 1040YOPC   GL114963   8.537   4.581   6.279 -0.0347  0.2747 -0.0239
 1040YOPC   GL214964   8.403   4.403   6.547  0.2064 -0.2160  0.0540
 1040YOPC   C1A14965   8.642   4.857   6.620  0.1441  0.2978 -0.0085
 1040YOPC   D2A14966   8.641   4.740   7.070  0.2445 -0.2491  0.0140
 1040YOPC   C3A14967   8.425   4.756   7.427 -0.0658  0.0704  0.0201
 1040YOPC   C4A14968   8.295   4.960   7.723  0.0837 -0.1694  0.0147
 1040YOPC   C1B14969   8.379   4.381   6.931 -0.0518 -0.0589  0.2623
 1040YOPC   C2B14970   8.280   4.294   7.344  0.1486 -0.0371 -0.2419
 1040YOPC   D3B14971   8.395   4.388   7.778 -0.1258  0.0059 -0.1460
 1040YOPC   C4B14972   8.638   4.098   8.018  0.3378  0.1221 -0.0073
 1041YOPC   NC314973   3.801   9.982   5.923  0.0830 -0.0882  0.3276
 1041YOPC   PO414974   3.985  10.448   5.930 -0.1758 -0.0507 -0.2732
 1041YOPC   GL114975   3.898  10.365   6.335 -0.0434 -0.2001  0.1306
 1041YOPC   GL214976   3.671  10.106   6.405  0.3274  0.1236 -0.0756
 1041YOPC   C1A14977   3.862  10.543   6.685 -0.0658  0.0635 -0.1358
 1041YOPC   D2A14978   3.959  10.696   7.092 -0.1462  0.5527  0.1309
 1041YOPC   C3A14979   3.901  10.533   7.467 -0.3091 -0.0970  0.1096
 1041YOPC   C4A14980   3.951  10.123   7.648 -0.0691 -0.0416 -0.1564
 1041YOPC   C1B14981   3.430  10.527   6.474  0.1958 -0.3164  0.0175
 1041YOPC   C2B14982   3.100  10.746   6.529 -0.1189  0.4012 -0.1086
 1041YOPC   D3B14983   3.203  11.078   6.719  0.4031 -0.0388 -0.2827
 1041YOPC   C4B14984   3.216  11.124   7.158  0.0385  0.0507 -0.0457
 1042YOPC   NC314985   4.587   2.478   6.105  0.2007  0.0066  0.4074
 1042YOPC   PO414986   4.464   2.934   6.299  0.0495  0.0452 -0.0767
 1042YOPC   GL114987   4.185   2.732   6.524 -0.1465  0.2501  0.0411
 1042YOPC   GL214988   4.333   2.510   6.541  0.1143 -0.1342 -0.0781
 1042YOPC   C1A14989   3.970   2.657   6.803  0.4007 -0.0572  0.0368
 1042YOPC   D2A14990   4.023   2.372   7.073  0.0871 -0.0997 -0.0101
 1042YOPC   C3A14991   3.985   2.521   7.503  0.4161 -0.1171  0.1801
 1042YOPC   C4A14992   4.005   2.665   7.962 -0.1787  0.0573 -0.0369
 1042YOPC   C1B14993   4.526   2.496   7.040  0.1329  0.1256 -0.0636
 1042YOPC   C2B14994   4.584   2.579   7.513 -0.1466 -0.0265 -0.2434
 1042YOPC   D3B14995   4.391   2.439   7.826 -0.2869  0.2238 -0.1274
 1042YOPC   C4B14996   4.292   2.312   8.230  0.0443 -0.2521  0.0994
 1043YOPC   NC314997   1.632   0.535   5.732 -0.0381 -0.1029 -0.2383
 1043YOPC   PO414998   1.874   0.454   6.027  0.0725 -0.0256  0.1468
 1043YOPC   GL114999   1.989   0.464   6.374  0.0105  0.3839  0.0305
 1043YOPC   GL215000   2.003   0.793   6.499  0.0796  0.0320  0.2157
 1043YOPC   C1A15001   1.915   0.293   6.751  0.1830  0.0763 -0.0467
 1043YOPC   D2A15002   2.002   0.271   7.154 -0.1770 -0.0287  0.0444
 1043YOPC   C3A15003   1.973   0.210   7.544 -0.1771  0.2491 -0.0579
 1043YOPC   C4A15004   1.906  -0.234   7.731 -0.0140  0.0877  0.1188
 1043YOPC   C1B15005   2.045   0.826   6.870  0.4579 -0.1523  0.1667
 1043YOPC   C2B15006   2.117   0.799   7.364  0.3274  0.1052 -0.2198
 1043YOPC   D3B15007   2.315   1.077   7.720  0.0572  0.0266 -0.1664
 1043YOPC   C4B15008   2.438   1.379   8.051  0.2544 -0.0490 -0.2127
 1044YOPC   NC315009   0.375  17.501   6.625  0.1401  0.2074 -0.1458
 1044YOPC   PO415010   0.491  17.203   6.311 -0.0051  0.2838 -0.0110
 1044YOPC   GL115011   0.570  16.769   6.467  0.0202  0.3858 -0.0283
 1044YOPC   GL215012   0.949  16.758   6.371  0.1057  0.2038 -0.0427
 1044YOPC   C1A15013   0.525  16.636   6.917  0.0948  0.1901  0.1811
 1044YOPC   D2A15014   0.864  16.619   7.104 -0.3569 -0.0526  0.0248
 1044YOPC   C3A15015   0.818  16.389   7.409 -0.3522 -0.0304 -0.0382
 1044YOPC   C4A15016   1.171  16.225   7.719 -0.1735 -0.1745  0.2260
 1044YOPC   C1B15017   0.966  16.962   6.741 -0.1394  0.1649  0.3666
 1044YOPC   C2B15018   0.806  17.272   7.066  0.4049  0.3995  0.1376
 1044YOPC   D3B15019   0.853  17.020   7.442 -0.2661 -0.0626  0.0960
 1044YOPC   C4B15020   0.866  17.148   7.862 -0.3967  0.2672  0.2923
 1045YOPC   NC315021   3.028   5.221   6.347 -0.0369 -0.0457  0.1393
 1045YOPC   PO415022   3.357   5.447   6.303  0.0169 -0.0641  0.0933
 1045YOPC   GL115023   3.478   5.447   6.651  0.1829  0.0455  0.3306
 1045YOPC   GL215024   3.606   5.676   6.757 -0.0134  0.0849  0.1034
 1045YOPC   C1A15025   3.371   5.411   7.096  0.4915 -0.1896 -0.1107
 1045YOPC   D2A15026   3.157   5.208   7.396 -0.0708 -0.2067 -0.2254
 1045YOPC   C3A15027   3.212   5.240   7.806  0.0649  0.0027  0.2218
 1045YOPC   C4A15028   3.016   4.981   8.158 -0.0482 -0.1357 -0.2030
 1045YOPC   C1B15029   3.727   5.901   7.035  0.0901  0.1362  0.1014
 1045YOPC   C2B15030   3.912   5.875   7.418  0.3372  0.3772 -0.1315
 1045YOPC   D3B15031   4.198   5.549   7.510  0.1481  0.0825 -0.5024
 1045YOPC   C4B15032   4.153   5.121   7.706 -0.1159  0.1496  0.0266
 1046YOPC   NC315033   3.021   5.745   6.532  0.0937 -0.1102 -0.0066
 1046YOPC   PO415034   2.625   5.559   6.396 -0.1851 -0.2494  0.0116
 1046YOPC   GL115035   2.557   5.949   6.730 -0.3013  0.3188  0.1193
 1046YOPC   GL215036   2.291   6.126   6.805  0.0544  0.0312 -0.2024
 1046YOPC   C1A15037   2.776   6.164   7.092 -0.0256  0.1770  0.0755
 1046YOPC   D2A15038   2.774   6.335   7.488  0.0533  0.0375  0.1128
 1046YOPC   C3A15039   3.239   6.238   7.710 -0.0237  0.1207  0.0348
 1046YOPC   C4A15040   3.192   6.347   8.128 -0.0083 -0.1312  0.1503
 1046YOPC   C1B15041   2.285   6.207   7.284 -0.0087 -0.0930 -0.0776
 1046YOPC   C2B15042   2.362   6.211   7.715  0.1252  0.2068 -0.1548
 1046YOPC   D3B15043   2.168   6.518   7.902  0.0251 -0.0409 -0.1314
 1046YOPC   C4B15044   2.190   6.938   8.157 -0.0022  0.1221 -0.0538
 1047YOPC   NC315045   8.486  14.866   5.703  0.1506 -0.0692 -0.1598
 1047YOPC   PO415046   8.948  14.810   5.650  0.0441  0.2276  0.0556
 1047YOPC   GL115047   9.088  14.897   6.039  0.0749 -0.1408  0.0256
 1047YOPC   GL215048   9.402  14.674   6.150  0.2437 -0.0984  0.0950
 1047YOPC   C1A15049   8.923  15.151   6.424  0.0256  0.0362  0.1937
 1047YOPC   D2A15050   8.974  15.079   6.844  0.0288 -0.2866  0.0933
 1047YOPC   C3A15051   8.733  15.000   7.209 -0.2102 -0.1705  0.2536
 1047YOPC   C4A15052   8.637  14.828   7.578 -0.2172 -0.0960  0.2445
 1047YOPC   C1B15053   9.211  14.700   6.489 -0.2316 -0.1152  0.1554
 1047YOPC   C2B15054   8.933  14.534   6.765 -0.1583  0.1242  0.1277
 1047YOPC   D3B15055   8.961  14.559   7.235 -0.4095  0.2067 -0.0247
 1047YOPC   C4B15056   9.152  14.883   7.505 -0.1830 -0.0448 -0.2286
 1048YOPC   NC315057   6.748  12.371   5.798 -0.1886  0.0939 -0.3392
 1048YOPC   PO415058   6.430  12.617   5.930  0.3021 -0.2323 -0.1122
 1048YOPC   GL115059   6.557  12.645   6.310 -0.2470 -0.0556 -0.1510
 1048YOPC   GL215060   6.249  12.598   6.390  0.0032 -0.2910  0.1150
 1048YOPC   C1A15061   6.891  12.795   6.592 -0.2792  0.0631  0.1015
 1048YOPC   D2A15062   7.207  13.131   6.754 -0.2204  0.0773  0.0027
 1048YOPC   C3A15063   7.053  13.228   7.180  0.1126 -0.0848  0.2061
 1048YOPC   C4A15064   7.314  13.341   7.578 -0.0433  0.3604 -0.1478
 1048YOPC   C1B15065   6.017  12.437   6.786 -0.0607  0.1537  0.0786
 1048YOPC   C2B15066   5.819  12.397   7.161  0.1451  0.0608 -0.0218
 1048YOPC   D3B15067   5.913  12.013   7.459  0.3318 -0.2406 -0.0205
 1048YOPC   C4B15068   6.286  11.891   7.751  0.1478 -0.0613  0.2075
 1049YOPC   NC315069   7.788   1.218   4.896  0.2755 -0.4288  0.0101
 1049YOPC   PO415070   7.860   1.223   5.308 -0.0796  0.2446  0.2271
 1049YOPC   GL115071   7.853   1.181   5.818  0.0162 -0.1666 -0.0981
 1049YOPC   GL215072   7.881   1.606   5.839 -0.0189 -0.1336 -0.1062
 1049YOPC   C1A15073   7.812   1.025   6.206  0.0208 -0.1746 -0.1668
 1049YOPC   D2A15074   7.712   0.908   6.533  0.0923 -0.0086  0.0392
 1049YOPC   C3A15075   7.864   1.201   6.815  0.1910 -0.2068 -0.0550
 1049YOPC   C4A15076   7.836   1.572   6.773  0.2658 -0.2460  0.0799
 1049YOPC   C1B15077   7.546   1.484   6.066 -0.1024  0.1255 -0.3060
 1049YOPC   C2B15078   7.483   1.334   6.459  0.0082 -0.0931 -0.4955
 1049YOPC   D3B15079   7.053   1.290   6.622 -0.1094  0.2555  0.3080
 1049YOPC   C4B15080   6.861   1.423   6.956 -0.2226 -0.0587  0.1165
 1050YOPC   NC315081  15.364   0.315   6.297 -0.0259 -0.0783 -0.1382
 1050YOPC   PO415082  15.168   0.713   6.398  0.0565  0.2291  0.2328
 1050YOPC   GL115083  14.885   0.683   6.805  0.1166  0.3618 -0.1167
 1050YOPC   GL215084  14.687   0.648   7.064  0.0412 -0.0398 -0.0405
 1050YOPC   C1A15085  15.080   0.749   7.328 -0.1632 -0.0426  0.1783
 1050YOPC   D2A15086  14.898   0.669   7.732 -0.1444 -0.3508  0.0804
 1050YOPC   C3A15087  14.916   0.477   8.060 -0.2223 -0.3521  0.0935
 1050YOPC   C4A15088  15.072   0.291   8.460  0.0664  0.2196  0.0526
 1050YOPC   C1B15089  14.519   0.701   7.471  0.2992 -0.3097  0.2261
 1050YOPC   C2B15090  14.346   0.801   7.919 -0.1023 -0.3687  0.0538
 1050YOPC   D3B15091  14.490   1.106   8.147  0.2989  0.0140 -0.1597
 1050YOPC   C4B15092  14.627   1.310   8.527  0.0903 -0.0560  0.0790
 1051YOPC   NC315093  10.925  11.351   5.784 -0.3604  0.0711  0.2894
 1051YOPC   PO415094  10.737  11.072   6.112  0.1173  0.0304  0.0657
 1051YOPC   GL115095  10.605  11.275   6.518  0.1695  0.2443 -0.1614
 1051YOPC   GL215096  10.278  11.301   6.577  0.2521 -0.1694 -0.0319
 1051YOPC   C1A15097  10.711  11.478   6.905 -0.2341 -0.0482  0.0244
 1051YOPC   D2A15098  10.679  11.435   7.397 -0.1161  0.0427 -0.0593
 1051YOPC   C3A15099  10.636  11.203   7.707  0.1650 -0.0100  0.0731
 1051YOPC   C4A15100  10.331  11.211   8.040  0.1377 -0.0869  0.2283
 1051YOPC   C1B15101   9.871  11.368   6.814  0.0003  0.0518 -0.0080
 1051YOPC   C2B15102   9.637  11.447   7.200  0.2680 -0.0368  0.2876
 1051YOPC   D3B15103   9.834  11.557   7.493 -0.0325 -0.2806  0.1457
 1051YOPC   C4B15104   9.910  11.549   7.952 -0.3120  0.1350  0.0531
 1052YOPC   NC315105   4.456   4.618   6.280 -0.2370 -0.0832 -0.0665
 1052YOPC   PO415106   4.452   5.042   6.334  0.4018 -0.1816 -0.0208
 1052YOPC   GL115107   4.317   5.321   6.703 -0.0235 -0.1708  0.0847
 1052YOPC   GL215108   3.980   5.316   6.741  0.1691 -0.0481 -0.0347
 1052YOPC   C1A15109   4.444   5.469   7.082 -0.2290  0.4315  0.3390
 1052YOPC   D2A15110   4.533   5.835   7.299  0.3546  0.1647 -0.1014
 1052YOPC   C3A15111   4.511   5.886   7.739  0.0809 -0.0175 -0.1211
 1052YOPC   C4A15112   4.600   6.002   8.079 -0.0485  0.0513  0.0056
 1052YOPC   C1B15113   3.874   5.415   7.142 -0.0840 -0.1086 -0.0088
 1052YOPC   C2B15114   3.707   5.387   7.538  0.1385  0.0169  0.0164
 1052YOPC   D3B15115   3.727   5.187   7.919 -0.0443 -0.2556  0.1904
 1052YOPC   C4B15116   3.528   5.012   8.264  0.0748 -0.1794  0.0745
 1053YOPC   NC315117   8.187   6.864   6.121 -0.1685  0.1286  0.0694
 1053YOPC   PO415118   7.763   6.712   5.898  0.1651  0.3111 -0.5197
 1053YOPC   GL115119   7.789   6.754   6.413  0.0353  0.2118  0.2068
 1053YOPC   GL215120   7.582   6.416   6.588  0.1788  0.1114  0.1048
 1053YOPC   C1A15121   7.988   6.745   6.763 -0.1723 -0.0765  0.2218
 1053YOPC   D2A15122   8.151   6.665   7.139 -0.1478  0.2276 -0.1333
 1053YOPC   C3A15123   8.060   6.278   7.384 -0.1799  0.2094 -0.0899
 1053YOPC   C4A15124   7.866   6.172   7.746  0.3328 -0.1963  0.0541
 1053YOPC   C1B15125   7.482   6.807   6.862 -0.0968 -0.0209  0.1795
 1053YOPC   C2B15126   7.702   6.947   7.095  0.0525  0.0726 -0.2619
 1053YOPC   D3B15127   7.937   7.152   7.372  0.0112 -0.0413 -0.2177
 1053YOPC   C4B15128   7.894   7.410   7.743  0.3725  0.0160 -0.0015
 1054YOPC   NC315129   4.061  10.926   6.115  0.0329 -0.0866 -0.4196
 1054YOPC   PO415130   4.237  11.349   6.213 -0.3086 -0.0008  0.1382
 1054YOPC   GL115131   3.938  11.311   6.489  0.1311 -0.1127 -0.2312
 1054YOPC   GL215132   3.772  11.488   6.576 -0.1811 -0.3369 -0.1043
 1054YOPC   C1A15133   3.742  11.047   6.833 -0.1273  0.2436 -0.0034
 1054YOPC   D2A15134   3.806  11.160   7.279  0.3481  0.1316  0.2596
 1054YOPC   C3A15135   3.885  11.336   7.657 -0.1433 -0.2587 -0.0232
 1054YOPC   C4A15136   3.931  11.479   8.060  0.0611 -0.0956 -0.0418
 1054YOPC   C1B15137   3.477  11.456   6.944  0.0918 -0.3519  0.0852
 1054YOPC   C2B15138   3.487  11.590   7.395  0.0481 -0.3765  0.0929
 1054YOPC   D3B15139   3.378  11.255   7.687 -0.0180  0.1127  0.0003
 1054YOPC   C4B15140   3.629  10.928   7.863 -0.1044 -0.0965 -0.1406
 1055YOPC   NC315141  14.252  13.436   6.020 -0.2686  0.1359 -0.1151
 1055YOPC   PO415142  14.254  13.841   6.171  0.2790 -0.1805  0.3019
 1055YOPC   GL115143  14.420  13.682   6.514 -0.0515 -0.0550  0.0309
 1055YOPC   GL215144  14.541  14.030   6.669  0.0567 -0.1715 -0.2411
 1055YOPC   C1A15145  14.184  13.552   6.935  0.4433 -0.0591  0.0606
 1055YOPC   D2A15146  13.818  13.566   7.208 -0.0198  0.1192  0.3715
 1055YOPC   C3A15147  13.841  13.622   7.647 -0.0191 -0.1844 -0.1852
 1055YOPC   C4A15148  13.743  13.510   8.080  0.3773  0.0989  0.0629
 1055YOPC   C1B15149  14.352  14.068   7.058  0.0338 -0.0800  0.2664
 1055YOPC   C2B15150  14.124  13.915   7.383  0.0470 -0.3654  0.0184
 1055YOPC   D3B15151  14.107  14.161   7.668  0.0619  0.0423  0.0546
 1055YOPC   C4B15152  14.303  14.533   7.681  0.0527  0.2515  0.0176
 1056YOPC   NC315153   7.647   6.273   6.092 -0.1526  0.0565  0.0101
 1056YOPC   PO415154   7.153   6.395   6.229 -0.1781  0.0457  0.1831
 1056YOPC   GL115155   7.061   6.418   6.645 -0.2715  0.0226  0.1734
 1056YOPC   GL215156   6.853   6.532   6.787 -0.1764 -0.0036  0.2681
 1056YOPC   C1A15157   7.212   6.398   7.110 -0.1412  0.1950  0.3936
 1056YOPC   D2A15158   7.210   6.622   7.553  0.1679 -0.1311 -0.0737
 1056YOPC   C3A15159   7.010   6.923   7.927  0.0454 -0.2589  0.0170
 1056YOPC   C4A15160   7.221   7.116   8.240 -0.1178 -0.3186 -0.0567
 1056YOPC   C1B15161   6.905   6.802   7.176  0.0043  0.1289  0.2269
 1056YOPC   C2B15162   6.680   6.892   7.610  0.1672  0.1072 -0.4076
 1056YOPC   D3B15163   6.449   6.548   7.687 -0.1188  0.0793 -0.2629
 1056YOPC   C4B15164   6.261   6.173   7.592 -0.2535 -0.0041 -0.0426
 1057YOPC   NC315165   0.736  17.545   5.954  0.0098  0.0182  0.2588
 1057YOPC   PO415166   1.165  17.720   6.097  0.0174  0.0242  0.1691
 1057YOPC   GL115167   1.238  17.709   6.518 -0.1235  0.0954 -0.1361
 1057YOPC   GL215168   1.055  17.648   6.772  0.0800 -0.2095 -0.2533
 1057YOPC   C1A15169   1.481  17.919   6.897 -0.3886 -0.1758 -0.1506
 1057YOPC   D2A15170   1.523  17.920   7.354 -0.2497  0.1411  0.0695
 1057YOPC   C3A15171   1.466  17.899   7.734 -0.1201 -0.0789  0.0482
 1057YOPC   C4A15172   1.576  17.906   8.188  0.3930 -0.0293 -0.0972
 1057YOPC   C1B15173   1.131  17.647   7.271  0.1883 -0.1722 -0.1050
 1057YOPC   C2B15174   0.966  17.607   7.620 -0.1150  0.1406  0.0207
 1057YOPC   D3B15175   1.230  17.555   8.014  0.0567  0.0622 -0.1968
 1057YOPC   C4B15176   1.549  17.412   8.271  0.2140 -0.1500 -0.0654
 1058YOPC   NC315177  12.706  11.157   5.875  0.2417 -0.1742 -0.0205
 1058YOPC   PO415178  12.800  11.588   6.103 -0.1247 -0.1332  0.1014
 1058YOPC   GL115179  12.992  11.797   6.421 -0.0248  0.1434  0.0680
 1058YOPC   GL215180  12.663  11.885   6.514 -0.0844 -0.0307  0.0942
 1058YOPC   C1A15181  12.903  11.661   6.908  0.2948  0.0434 -0.1991
 1058YOPC   D2A15182  12.672  11.486   7.222 -0.1205  0.2358 -0.0968
 1058YOPC   C3A15183  12.698  11.773   7.565 -0.0316 -0.1006  0.2307
 1058YOPC   C4A15184  12.643  11.705   8.017  0.0521  0.2692  0.1634
 1058YOPC   C1B15185  12.383  11.750   6.881 -0.0924 -0.2550  0.0064
 1058YOPC   C2B15186  12.200  11.902   7.274 -0.2878  0.0905  0.0249
 1058YOPC   D3B15187  12.230  11.807   7.737  0.0186 -0.1129 -0.2155
 1058YOPC   C4B15188  12.114  11.960   8.148  0.1293  0.1576  0.0306
 1059YOPC   NC315189  14.089   8.079   5.862  0.0732 -0.0416 -0.0810
 1059YOPC   PO415190  14.576   8.045   5.911  0.0774  0.0095 -0.0743
 1059YOPC   GL115191  14.535   8.302   6.243 -0.0148 -0.0511 -0.0050
 1059YOPC   GL215192  14.274   8.184   6.327  0.0362  0.0315 -0.1606
 1059YOPC   C1A15193  14.322   8.532   6.606  0.3023 -0.0313 -0.2012
 1059YOPC   D2A15194  14.190   8.778   6.688  0.1478  0.0417 -0.2394
 1059YOPC   C3A15195  14.037   8.890   7.099  0.3058 -0.2641  0.0372
 1059YOPC   C4A15196  14.236   9.022   7.495  0.2691  0.0503  0.1478
 1059YOPC   C1B15197  14.533   8.007   6.659 -0.0258  0.0711  0.0134
 1059YOPC   C2B15198  14.857   7.647   6.742 -0.1927 -0.1351 -0.3329
 1059YOPC   D3B15199  14.897   7.600   7.085 -0.0874  0.0401  0.2549
 1059YOPC   C4B15200  14.968   7.551   7.408 -0.2137  0.1273 -0.0770
 1060YOPC   NC315201  15.755  16.995   6.079 -0.0436 -0.0493  0.0146
 1060YOPC   PO415202  16.216  17.110   6.159  0.0906 -0.3564 -0.0661
 1060YOPC   GL115203  16.002  16.860   6.463  0.0963  0.2474  0.3625
 1060YOPC   GL215204  15.693  17.004   6.598  0.4980 -0.0651 -0.1383
 1060YOPC   C1A15205  16.153  16.825   6.866 -0.1545  0.2667 -0.3398
 1060YOPC   D2A15206  16.372  17.054   7.166 -0.3328  0.2250  0.0525
 1060YOPC   C3A15207  16.363  16.977   7.634  0.0066 -0.2683 -0.0919
 1060YOPC   C4A15208  16.269  16.868   8.034 -0.2939 -0.1980  0.3608
 1060YOPC   C1B15209  15.659  16.895   6.998 -0.1212  0.2431 -0.2304
 1060YOPC   C2B15210  15.886  16.873   7.284 -0.4649  0.2492 -0.3072
 1060YOPC   D3B15211  15.868  16.888   7.663  0.1237 -0.0822  0.1123
 1060YOPC   C4B15212  15.742  16.844   8.016 -0.2638  0.0038  0.0105
 1061YOPC   NC315213   4.258   6.337   6.267 -0.1731 -0.0680  0.1980
 1061YOPC   PO415214   4.208   5.979   6.050 -0.0749 -0.1304 -0.1082
 1061YOPC   GL115215   4.352   5.805   6.515 -0.0267  0.3134 -0.3957
 1061YOPC   GL215216   4.135   5.771   6.766 -0.2103  0.3814  0.0846
 1061YOPC   C1A15217   4.686   5.887   6.819 -0.1807  0.0655 -0.0335
 1061YOPC   D2A15218   5.128   5.979   7.029  0.0377  0.2042 -0.1663
 1061YOPC   C3A15219   5.353   5.975   7.379 -0.0786 -0.0481  0.1380
 1061YOPC   C4A15220   5.696   5.983   7.628 -0.1769 -0.0637 -0.1013
 1061YOPC   C1B15221   4.142   6.144   7.036 -0.1077  0.2554  0.1364
 1061YOPC   C2B15222   4.186   6.217   7.496  0.0451  0.1431 -0.0558
 1061YOPC   D3B15223   4.047   6.031   7.864  0.0459 -0.0451  0.0649
 1061YOPC   C4B15224   4.115   5.961   8.242 -0.0883 -0.0745  0.0382
 1062YOPC   NC315225   7.129  10.480   6.260 -0.0353  0.0434 -0.1416
 1062YOPC   PO415226   7.360  10.080   6.327  0.1016  0.0900 -0.2161
 1062YOPC   GL115227   7.453  10.135   6.711 -0.0015 -0.0957  0.0457
 1062YOPC   GL215228   7.690   9.944   6.849  0.0529 -0.5984  0.0370
 1062YOPC   C1A15229   7.376  10.490   6.915  0.0138 -0.1196 -0.0933
 1062YOPC   D2A15230   7.534  10.684   7.281 -0.0740  0.1029 -0.2315
 1062YOPC   C3A15231   7.888  10.680   7.559  0.2356 -0.0049 -0.2774
 1062YOPC   C4A15232   8.294  10.935   7.609  0.2684  0.1803  0.1318
 1062YOPC   C1B15233   7.900   9.762   7.162 -0.1793 -0.0840  0.0229
 1062YOPC   C2B15234   7.972   9.622   7.462 -0.2415  0.4679  0.0666
 1062YOPC   D3B15235   7.887   9.292   7.844  0.2820  0.0442 -0.1177
 1062YOPC   C4B15236   7.956   8.957   8.015 -0.3530  0.1648 -0.0896
 1063YOPC   NC315237  10.755  10.559   6.058 -0.1201 -0.1764  0.3031
 1063YOPC   PO415238  10.318  10.758   6.079 -0.0879  0.2324  0.3156
 1063YOPC   GL115239  10.092  10.471   6.240  0.3758 -0.0233 -0.1250
 1063YOPC   GL215240  10.035  10.179   6.187 -0.0054 -0.1104 -0.0695
 1063YOPC   C1A15241   9.724  10.356   6.585  0.2324 -0.0611 -0.0329
 1063YOPC   D2A15242   9.554  10.253   6.989  0.3347 -0.3063 -0.0718
 1063YOPC   C3A15243   9.585  10.571   7.273  0.2720  0.2206  0.1592
 1063YOPC   C4A15244   9.987  10.614   7.495  0.0243  0.1995  0.3838
 1063YOPC   C1B15245   9.740   9.879   6.320 -0.2136 -0.2149 -0.0808
 1063YOPC   C2B15246   9.444   9.624   6.503  0.1125  0.2804  0.1401
 1063YOPC   D3B15247   9.261   9.816   6.831 -0.1388 -0.1386  0.1097
 1063YOPC   C4B15248   9.266   9.882   7.273  0.1109 -0.0170 -0.1988
 1064YOPC   NC315249  11.115   9.799   6.162  0.1199 -0.0116  0.0149
 1064YOPC   PO415250  11.489   9.587   6.146 -0.0431 -0.2111 -0.2684
 1064YOPC   GL115251  11.236   9.576   6.595  0.0510 -0.0504  0.1609
 1064YOPC   GL215252  10.758   9.669   6.484  0.2116 -0.0817 -0.1272
 1064YOPC   C1A15253  11.126   9.691   7.004  0.2294  0.0205 -0.2317
 1064YOPC   D2A15254  10.848   9.832   7.266  0.2526  0.1899  0.3510
 1064YOPC   C3A15255  10.672   9.493   7.631  0.0912  0.0375  0.1862
 1064YOPC   C4A15256  10.790   9.204   7.989  0.0483 -0.1635 -0.3049
 1064YOPC   C1B15257  10.716   9.909   6.717  0.0613 -0.2887 -0.2504
 1064YOPC   C2B15258  10.722  10.338   6.866 -0.0984  0.2679 -0.0630
 1064YOPC   D3B15259  10.807  10.394   7.342 -0.3580  0.1463  0.2829
 1064YOPC   C4B15260  10.677  10.051   7.642 -0.2821 -0.2885  0.4535
 1065YOPC   NC315261  11.751   4.089   6.076 -0.1710  0.3481  0.1934
 1065YOPC   PO415262  11.395   4.314   6.163  0.0997  0.0524 -0.1631
 1065YOPC   GL115263  11.151   4.295   6.554 -0.0074  0.1195  0.4047
 1065YOPC   GL215264  11.449   4.196   6.690 -0.0041  0.0976 -0.1437
 1065YOPC   C1A15265  10.826   4.451   6.716  0.2306  0.0219 -0.0519
 1065YOPC   D2A15266  10.521   4.486   7.055  0.0162 -0.0419  0.0427
 1065YOPC   C3A15267  10.512   4.621   7.416 -0.3285  0.3555  0.0786
 1065YOPC   C4A15268  10.356   4.600   7.795  0.0408 -0.1043 -0.0349
 1065YOPC   C1B15269  11.223   4.491   6.997 -0.1732 -0.1348 -0.1503
 1065YOPC   C2B15270  10.932   4.754   7.174  0.1754  0.1273  0.0558
 1065YOPC   D3B15271  10.971   4.549   7.574  0.2858 -0.1018 -0.2719
 1065YOPC   C4B15272  11.265   4.592   7.875  0.0938 -0.0665 -0.4524
 1066YOPC   NC315273  16.458  13.916   6.146 -0.0164  0.1486  0.1788
 1066YOPC   PO415274  16.394  13.732   6.600  0.3502 -0.0020 -0.3110
 1066YOPC   GL115275  16.444  13.809   7.047  0.0144  0.2243  0.0686
 1066YOPC   GL215276  16.327  13.453   7.106 -0.0208  0.2244 -0.0454
 1066YOPC   C1A15277  16.367  14.088   7.338  0.2444 -0.2293 -0.3068
 1066YOPC   D2A15278  16.220  14.562   7.481  0.0941  0.0541 -0.3837
 1066YOPC   C3A15279  16.283  14.755   7.831  0.0151  0.1049 -0.0746
 1066YOPC   C4A15280  16.241  14.652   8.317 -0.3343 -0.2502 -0.0251
 1066YOPC   C1B15281  16.473  13.568   7.524 -0.2024  0.2064  0.3617
 1066YOPC   C2B15282  16.457  13.471   7.949 -0.1232 -0.1103  0.0422
 1066YOPC   D3B15283  16.484  13.826   8.166 -0.2085 -0.0835 -0.0515
 1066YOPC   C4B15284  16.611  14.234   8.414  0.1718  0.2000  0.1345
 1067YOPC   NC315285  14.340   2.850   6.384  0.1924 -0.0648  0.0331
 1067YOPC   PO415286  14.682   3.124   6.388 -0.1141  0.2950  0.0285
 1067YOPC   GL115287  14.549   3.285   6.716  0.2363  0.0820  0.1194
 1067YOPC   GL215288  14.268   3.386   6.857  0.0903  0.0658 -0.1250
 1067YOPC   C1A15289  14.637   3.699   7.015 -0.2394  0.0101  0.0479
 1067YOPC   D2A15290  14.706   3.943   7.449 -0.2942  0.2049  0.1529
 1067YOPC   C3A15291  14.509   3.970   7.821 -0.0458 -0.0625  0.1656
 1067YOPC   C4A15292  14.310   3.922   8.171 -0.1010  0.1027  0.2556
 1067YOPC   C1B15293  14.391   3.320   7.341  0.0526 -0.2131  0.2287
 1067YOPC   C2B15294  14.432   3.512   7.619  0.0909 -0.2727  0.1046
 1067YOPC   D3B15295  14.494   3.451   8.010  0.1699 -0.2886 -0.0107
 1067YOPC   C4B15296  14.484   3.422   8.412  0.1083 -0.0613 -0.4360
 1068YOPC   NC315297   2.621   7.759   5.747  0.2130 -0.3451 -0.1400
 1068YOPC   PO415298   2.988   7.974   5.960 -0.0712  0.1048  0.4417
 1068YOPC   GL115299   3.027   7.968   6.440 -0.2442 -0.0175  0.2075
 1068YOPC   GL215300   3.024   8.174   6.664  0.1724 -0.0228  0.0564
 1068YOPC   C1A15301   2.956   7.742   6.876 -0.2789  0.0893 -0.1327
 1068YOPC   D2A15302   3.000   7.514   7.264 -0.1132 -0.0281 -0.0522
 1068YOPC   C3A15303   2.924   7.746   7.577 -0.3336 -0.0801  0.1044
 1068YOPC   C4A15304   3.122   8.002   7.917 -0.2993  0.0365  0.2523
 1068YOPC   C1B15305   2.930   8.157   7.130  0.2461 -0.1880  0.0026
 1068YOPC   C2B15306   2.880   8.242   7.539  0.1714 -0.2644  0.2294
 1068YOPC   D3B15307   2.581   8.175   7.827 -0.0863 -0.0657 -0.0598
 1068YOPC   C4B15308   2.176   8.359   8.031 -0.1862  0.2647 -0.1703
 1069YOPC   NC315309   3.719   0.958   5.807 -0.0989  0.0859  0.0929
 1069YOPC   PO415310   3.263   0.901   5.954 -0.0106  0.1144  0.0318
 1069YOPC   GL115311   3.356   0.824   6.339 -0.1889  0.0464  0.1484
 1069YOPC   GL215312   3.346   0.521   6.340 -0.1775  0.1762 -0.1902
 1069YOPC   C1A15313   3.590   0.687   6.735  0.0271  0.0127 -0.0012
 1069YOPC   D2A15314   3.751   1.076   7.013 -0.1269  0.0906  0.0344
 1069YOPC   C3A15315   3.489   1.282   7.228 -0.1030  0.1099  0.1149
 1069YOPC   C4A15316   3.356   1.622   6.988  0.3574  0.0992  0.0178
 1069YOPC   C1B15317   3.344   0.195   6.691  0.0480  0.1425  0.1566
 1069YOPC   C2B15318   3.343   0.236   7.119  0.0788 -0.1001  0.3548
 1069YOPC   D3B15319   3.233  -0.027   7.454 -0.0578 -0.0745 -0.2084
 1069YOPC   C4B15320   3.117  -0.037   8.007 -0.0243 -0.2089  0.1496
 1070YOPC   NC315321   8.827   0.576   5.757  0.1100 -0.0388 -0.0953
 1070YOPC   PO415322   8.488   0.535   5.648 -0.1362 -0.1421 -0.5599
 1070YOPC   GL115323   8.350   0.337   6.050 -0.1136  0.0547  0.0075
 1070YOPC   GL215324   8.103   0.092   6.152  0.1350 -0.1645 -0.0909
 1070YOPC   C1A15325   8.485   0.474   6.509  0.0817 -0.0921  0.0299
 1070YOPC   D2A15326   8.560   0.410   6.899  0.2847 -0.0385 -0.0799
 1070YOPC   C3A15327   8.595  -0.007   7.178  0.1955  0.1609 -0.1108
 1070YOPC   C4A15328   8.592  -0.304   7.558 -0.0190 -0.0490 -0.0245
 1070YOPC   C1B15329   7.981   0.306   6.536  0.1462  0.1313 -0.6196
 1070YOPC   C2B15330   7.984   0.389   6.911 -0.1902 -0.2755  0.0938
 1070YOPC   D3B15331   7.698   0.663   7.035 -0.1952 -0.1190  0.1256
 1070YOPC   C4B15332   7.702   1.040   7.302  0.2537 -0.1051 -0.0141
 1071YOPC   NC315333   8.604   2.413   5.917  0.0664  0.0400 -0.3623
 1071YOPC   PO415334   8.980   2.230   6.182 -0.0001  0.2049  0.1333
 1071YOPC   GL115335   8.898   2.024   6.550 -0.1616  0.2206 -0.1081
 1071YOPC   GL215336   8.745   1.724   6.508 -0.0918  0.0644 -0.0898
 1071YOPC   C1A15337   8.910   2.042   6.950 -0.1882 -0.0083  0.0041
 1071YOPC   D2A15338   9.060   1.849   7.332  0.0724  0.2784  0.2765
 1071YOPC   C3A15339   8.934   2.149   7.613  0.0930  0.0100  0.3976
 1071YOPC   C4A15340   8.886   2.362   7.975  0.1096  0.1789  0.0706
 1071YOPC   C1B15341   8.839   1.530   6.954 -0.0842 -0.1115  0.3391
 1071YOPC   C2B15342   8.803   1.438   7.413 -0.1283 -0.1293  0.1732
 1071YOPC   D3B15343   8.532   1.419   7.627 -0.1416  0.4643  0.0522
 1071YOPC   C4B15344   8.136   1.655   7.807 -0.1082  0.3846  0.0958
 1072YOPC   NC315345  10.977   6.284   6.488 -0.2479 -0.1611  0.0537
 1072YOPC   PO415346  10.558   6.105   6.394  0.2862 -0.1587 -0.3070
 1072YOPC   GL115347  10.277   5.878   6.693 -0.1141 -0.1652  0.2122
 1072YOPC   GL215348  10.052   6.181   6.724 -0.0186  0.2067  0.0029
 1072YOPC   C1A15349  10.147   5.678   7.021 -0.0569 -0.1232 -0.3930
 1072YOPC   D2A15350  10.051   5.515   7.477 -0.0333 -0.3026  0.0336
 1072YOPC   C3A15351  10.284   5.589   7.823 -0.0927  0.0501 -0.1110
 1072YOPC   C4A15352  10.401   5.647   8.203  0.1984 -0.1040 -0.1435
 1072YOPC   C1B15353   9.886   6.107   7.090  0.2253  0.2321 -0.2116
 1072YOPC   C2B15354   9.818   5.947   7.450 -0.0770 -0.0016 -0.1382
 1072YOPC   D3B15355   9.901   5.996   7.857 -0.1611 -0.0580 -0.1537
 1072YOPC   C4B15356  10.016   5.970   8.326 -0.0009 -0.0660  0.1036
 1073YOPC   NC315357   3.379  13.884   5.386 -0.2084 -0.1959 -0.1789
 1073YOPC   PO415358   3.525  13.554   5.624 -0.2890  0.0936  0.0669
 1073YOPC   GL115359   3.522  13.666   5.988 -0.4351  0.2475 -0.2377
 1073YOPC   GL215360   3.152  13.776   6.075 -0.0910 -0.1810  0.0314
 1073YOPC   C1A15361   3.555  14.000   6.220 -0.0826  0.1010  0.0729
 1073YOPC   D2A15362   3.571  14.149   6.655 -0.0035  0.0462 -0.0292
 1073YOPC   C3A15363   3.501  14.239   7.059  0.1689 -0.0216  0.1977
 1073YOPC   C4A15364   3.460  14.150   7.461 -0.0594 -0.1416  0.0875
 1073YOPC   C1B15365   3.191  13.862   6.544  0.1525  0.2411  0.0226
 1073YOPC   C2B15366   3.288  13.848   6.980 -0.0323 -0.0644  0.1941
 1073YOPC   D3B15367   3.173  13.585   7.185 -0.1622 -0.0199 -0.1542
 1073YOPC   C4B15368   3.257  13.495   7.628 -0.1150 -0.0289 -0.0248
 1074YOPC   NC315369  10.344   8.759   6.198 -0.2914  0.2532 -0.1100
 1074YOPC   PO415370  10.671   8.678   6.302 -0.1243 -0.1928 -0.1148
 1074YOPC   GL115371  10.902   8.710   6.618 -0.0639 -0.0384 -0.2315
 1074YOPC   GL215372  11.251   8.634   6.620  0.0940  0.2827 -0.0832
 1074YOPC   C1A15373  10.748   8.842   7.055 -0.1930  0.0945  0.2988
 1074YOPC   D2A15374  10.297   8.753   7.187 -0.2941  0.3033 -0.0510
 1074YOPC   C3A15375  10.308   8.614   7.569 -0.2518  0.0228  0.0510
 1074YOPC   C4A15376  10.601   8.618   7.934  0.0197  0.1048  0.0044
 1074YOPC   C1B15377  11.275   8.862   6.991  0.1599  0.3007  0.1410
 1074YOPC   C2B15378  11.366   8.967   7.498  0.1756 -0.0473 -0.0125
 1074YOPC   D3B15379  11.307   9.245   7.818  0.1614  0.2559 -0.0740
 1074YOPC   C4B15380  11.480   9.430   8.142 -0.0241  0.0418  0.2309
 1075YOPC   NC315381  16.520  12.712   6.547 -0.0057 -0.2431 -0.3638
 1075YOPC   PO415382  16.869  13.029   6.655  0.0296  0.2695  0.0174
 1075YOPC   GL115383  16.715  13.035   7.054  0.1742  0.2686 -0.0883
 1075YOPC   GL215384  16.395  12.876   7.048  0.0656  0.1473  0.1595
 1075YOPC   C1A15385  16.595  13.004   7.566  0.1034  0.1593  0.2805
 1075YOPC   D2A15386  16.522  12.997   8.042  0.0683  0.1810 -0.2462
 1075YOPC   C3A15387  16.087  12.889   8.113 -0.4437 -0.0767 -0.2963
 1075YOPC   C4A15388  15.804  13.137   8.429  0.0095  0.0811  0.0075
 1075YOPC   C1B15389  16.138  13.035   7.234  0.0961  0.1371 -0.1753
 1075YOPC   C2B15390  16.104  13.248   7.658 -0.0967  0.3918  0.0608
 1075YOPC   D3B15391  15.792  13.374   8.012 -0.1073 -0.0985 -0.1874
 1075YOPC   C4B15392  15.391  13.310   8.176  0.1272  0.1106  0.0452
 1076YOPC   NC315393  17.585  11.561   5.894  0.0716  0.3537 -0.0214
 1076YOPC   PO415394  17.916  11.396   6.057 -0.1329  0.1154 -0.0649
 1076YOPC   GL115395  17.933  11.502   6.502  0.3824  0.0281 -0.1776
 1076YOPC   GL215396  17.671  11.531   6.725 -0.2001 -0.1771  0.2381
 1076YOPC   C1A15397  18.150  11.500   6.902 -0.0547 -0.2384  0.0115
 1076YOPC   D2A15398  17.946  11.621   7.316 -0.1828 -0.1550 -0.0716
 1076YOPC   C3A15399  17.849  11.783   7.699  0.0536  0.2682 -0.0583
 1076YOPC   C4A15400  17.856  11.966   8.065 -0.0166  0.1715 -0.0058
 1076YOPC   C1B15401  17.644  11.281   7.071 -0.1355  0.3114 -0.0129
 1076YOPC   C2B15402  17.436  11.202   7.474 -0.0540 -0.0483 -0.0818
 1076YOPC   D3B15403  17.604  11.359   7.864 -0.0384  0.1134  0.4291
 1076YOPC   C4B15404  17.832  11.413   8.206 -0.0420  0.1939 -0.3015
 1077YOPC   NC315405   0.839  10.061   5.719  0.0408 -0.0882  0.1709
 1077YOPC   PO415406   0.788   9.678   5.969 -0.1139 -0.1693 -0.0307
 1077YOPC   GL115407   0.656   9.555   6.435  0.1997  0.1407 -0.1416
 1077YOPC   GL215408   0.470   9.705   6.542 -0.0981 -0.1273  0.2193
 1077YOPC   C1A15409   0.764   9.172   6.721  0.3876  0.3112  0.0847
 1077YOPC   D2A15410   0.919   9.165   7.109  0.0703 -0.0421  0.0950
 1077YOPC   C3A15411   0.615   9.198   7.343 -0.0834  0.1733  0.2365
 1077YOPC   C4A15412   0.571   8.957   7.778  0.2548 -0.1703 -0.2264
 1077YOPC   C1B15413   0.537   9.502   6.952 -0.1771  0.1929 -0.1130
 1077YOPC   C2B15414   0.548   9.722   7.414  0.0213  0.0832 -0.0933
 1077YOPC   D3B15415   0.786   9.447   7.785  0.3453  0.3314  0.2258
 1077YOPC   C4B15416   0.690   9.288   8.211  0.0805  0.0440  0.0490
 1078YOPC   NC315417  12.025   7.808   5.739  0.1055  0.3504  0.0747
 1078YOPC   PO415418  11.873   7.929   6.152 -0.1181 -0.1233 -0.1089
 1078YOPC   GL115419  11.874   7.830   6.535 -0.2678 -0.3120 -0.4929
 1078YOPC   GL215420  11.868   7.448   6.741  0.0201 -0.2407  0.1487
 1078YOPC   C1A15421  11.828   7.986   6.969 -0.2945  0.3380  0.2265
 1078YOPC   D2A15422  12.098   7.867   7.362  0.1049 -0.0442 -0.1982
 1078YOPC   C3A15423  12.077   7.497   7.681 -0.1766 -0.2603 -0.2440
 1078YOPC   C4A15424  11.975   7.332   8.115  0.1777 -0.2405 -0.2820
 1078YOPC   C1B15425  11.730   7.540   7.232 -0.1853  0.5229 -0.0873
 1078YOPC   C2B15426  11.232   7.573   7.444  0.0030 -0.0366  0.2569
 1078YOPC   D3B15427  11.218   8.006   7.662 -0.2570 -0.0813  0.0826
 1078YOPC   C4B15428  10.885   8.207   7.876 -0.3423  0.3172 -0.2298
 1079YOPC   NC315429   3.185  11.094   5.927 -0.0642  0.1508 -0.1120
 1079YOPC   PO415430   3.265  11.395   6.120  0.1577 -0.1292 -0.1255
 1079YOPC   GL115431   3.117  11.561   6.514  0.1762  0.1264 -0.2922
 1079YOPC   GL215432   2.826  11.653   6.540  0.1210 -0.3703  0.0897
 1079YOPC   C1A15433   2.974  11.606   6.959  0.0883 -0.0275 -0.1855
 1079YOPC   D2A15434   2.996  11.579   7.399  0.2804  0.1768  0.0196
 1079YOPC   C3A15435   2.555  11.569   7.570 -0.2064  0.1300 -0.0596
 1079YOPC   C4A15436   2.087  11.599   7.656 -0.1274 -0.2421  0.1318
 1079YOPC   C1B15437   2.677  11.300   6.715  0.0736  0.0607  0.0321
 1079YOPC   C2B15438   2.656  11.268   7.170  0.3051 -0.0944  0.0763
 1079YOPC   D3B15439   2.833  11.074   7.505  0.3128  0.1480  0.2607
 1079YOPC   C4B15440   2.961  10.677   7.550 -0.4573  0.2256 -0.1902
 1080YOPC   NC315441   9.460  14.866   5.708  0.3759  0.1052 -0.0837
 1080YOPC   PO415442   9.888  14.945   5.801 -0.0128 -0.1515 -0.1154
 1080YOPC   GL115443   9.849  14.996   6.238 -0.3055 -0.0924  0.0247
 1080YOPC   GL215444   9.619  15.219   6.214 -0.1056  0.1726 -0.1246
 1080YOPC   C1A15445   9.650  14.971   6.717 -0.1164  0.0964 -0.0116
 1080YOPC   D2A15446   9.366  14.862   6.962  0.1690  0.0696  0.2677
 1080YOPC   C3A15447   9.542  14.613   7.266  0.1530  0.0463 -0.0034
 1080YOPC   C4A15448   9.810  14.354   7.454 -0.0470 -0.0442 -0.2607
 1080YOPC   C1B15449   9.335  15.332   6.624  0.0013 -0.0572  0.0567
 1080YOPC   C2B15450   9.017  15.565   6.889 -0.0466  0.2630 -0.0451
 1080YOPC   D3B15451   8.567  15.536   7.213 -0.0605 -0.0383 -0.0822
 1080YOPC   C4B15452   8.296  15.797   7.349  0.2216  0.4776 -0.1193
 1081YOPC   NC315453   1.120   4.762   6.163 -0.0132 -0.0800  0.2351
 1081YOPC   PO415454   1.295   5.134   6.352  0.4923  0.0680  0.0159
 1081YOPC   GL115455   1.383   5.298   6.752 -0.2566  0.0512 -0.0010
 1081YOPC   GL215456   1.653   5.064   6.979 -0.0794 -0.1848  0.1615
 1081YOPC   C1A15457   1.419   5.625   7.041  0.0590 -0.1155  0.2123
 1081YOPC   D2A15458   1.210   5.797   7.375 -0.1219  0.0605  0.2394
 1081YOPC   C3A15459   1.168   5.934   7.788 -0.2509  0.1295 -0.0782
 1081YOPC   C4A15460   0.846   5.786   8.184  0.2174  0.1419  0.0083
 1081YOPC   C1B15461   1.913   4.928   7.236  0.0480 -0.1802  0.1096
 1081YOPC   C2B15462   1.824   4.847   7.751  0.0409  0.1198 -0.0072
 1081YOPC   D3B15463   2.092   4.575   8.035  0.0562 -0.1748  0.2099
 1081YOPC   C4B15464   2.374   4.231   8.235 -0.5568 -0.0081 -0.1120
 1082YOPC   NC315465   5.382  11.276   5.597  0.2574  0.1693 -0.0454
 1082YOPC   PO415466   5.167  11.187   5.951  0.2339  0.2071 -0.0041
 1082YOPC   GL115467   5.158  11.003   6.315 -0.0720 -0.2471 -0.0659
 1082YOPC   GL215468   5.498  10.981   6.405 -0.1458 -0.1734 -0.2190
 1082YOPC   C1A15469   5.097  10.806   6.769  0.0341  0.3558  0.2179
 1082YOPC   D2A15470   4.989  10.535   7.136  0.1721 -0.0696  0.0776
 1082YOPC   C3A15471   5.218  10.693   7.519 -0.2339  0.1739 -0.2207
 1082YOPC   C4A15472   5.184  10.957   7.890 -0.2229  0.2593 -0.1827
 1082YOPC   C1B15473   5.629  10.831   6.811  0.0300 -0.2581 -0.0810
 1082YOPC   C2B15474   5.432  10.891   7.142 -0.2476  0.0986  0.2526
 1082YOPC   D3B15475   5.316  11.223   7.477  0.0948 -0.0623  0.1234
 1082YOPC   C4B15476   5.365  11.454   7.887  0.1640  0.3345 -0.2359
 1083YOPC   NC315477   4.722  12.886   5.589 -0.0432 -0.1062  0.1519
 1083YOPC   PO415478   5.018  12.969   5.884 -0.0208 -0.1507 -0.0823
 1083YOPC   GL115479   5.205  13.230   6.161 -0.0879  0.2074  0.1376
 1083YOPC   GL215480   5.498  13.130   6.163  0.0610 -0.1116 -0.4098
 1083YOPC   C1A15481   5.211  13.516   6.491  0.0702  0.0192  0.0890
 1083YOPC   D2A15482   4.930  13.789   6.673 -0.0785 -0.0058  0.0906
 1083YOPC   C3A15483   4.905  13.878   7.109  0.0597  0.1244  0.0217
 1083YOPC   C4A15484   4.863  13.628   7.448 -0.2005  0.3931  0.0130
 1083YOPC   C1B15485   5.766  13.255   6.486 -0.0851 -0.0627 -0.1174
 1083YOPC   C2B15486   5.669  13.353   6.959 -0.2297 -0.1772  0.1930
 1083YOPC   D3B15487   5.611  13.334   7.358 -0.4299  0.2673  0.1108
 1083YOPC   C4B15488   5.231  13.333   7.547 -0.0935  0.3490 -0.1686
 1084YOPC   NC315489   9.432   2.667   5.929  0.1356 -0.0132  0.2537
 1084YOPC   PO415490   8.986   2.681   6.022 -0.0140 -0.1537 -0.0652
 1084YOPC   GL115491   8.858   2.612   6.467  0.0147  0.0350  0.3129
 1084YOPC   GL215492   8.536   2.393   6.453  0.2030  0.0916  0.0247
 1084YOPC   C1A15493   8.920   2.728   6.990 -0.1868  0.0667  0.1737
 1084YOPC   D2A15494   8.904   2.748   7.405 -0.2627  0.1705 -0.0695
 1084YOPC   C3A15495   9.127   2.777   7.709 -0.3429 -0.2165  0.1041
 1084YOPC   C4A15496   9.261   3.011   8.072  0.0142  0.0948 -0.2304
 1084YOPC   C1B15497   8.587   2.337   6.829 -0.0735  0.0730 -0.0141
 1084YOPC   C2B15498   8.694   2.348   7.232  0.3733  0.0902  0.2212
 1084YOPC   D3B15499   8.384   2.486   7.504  0.0321 -0.0196  0.0275
 1084YOPC   C4B15500   8.377   2.520   8.052 -0.3482 -0.2768 -0.0875
 1085YOPC   NC315501   3.870   1.324   6.595 -0.0355  0.1233 -0.0542
 1085YOPC   PO415502   4.062   1.684   6.329 -0.0454  0.2330 -0.0228
 1085YOPC   GL115503   4.294   1.624   6.660  0.1217  0.3973  0.1905
 1085YOPC   GL215504   4.547   1.580   6.609 -0.0275 -0.1757 -0.1603
 1085YOPC   C1A15505   4.333   1.338   7.014  0.0167  0.1655  0.0310
 1085YOPC   D2A15506   4.245   1.086   7.370 -0.0862 -0.1886 -0.2979
 1085YOPC   C3A15507   3.809   1.021   7.535  0.0307  0.1028  0.2471
 1085YOPC   C4A15508   3.421   1.205   7.776  0.0011 -0.1307 -0.2420
 1085YOPC   C1B15509   4.607   1.793   7.129  0.1381 -0.0174  0.3715
 1085YOPC   C2B15510   4.544   1.703   7.512  0.1238 -0.0254  0.0884
 1085YOPC   D3B15511   5.060   1.720   7.702 -0.0201  0.0997  0.1049
 1085YOPC   C4B15512   5.468   1.469   7.856 -0.1588 -0.0391  0.2802
 1086YOPC   NC315513   8.286   5.864   6.235  0.1076 -0.1609 -0.1928
 1086YOPC   PO415514   7.842   5.800   6.156  0.4455  0.3400 -0.1542
 1086YOPC   GL115515   7.887   6.042   6.498  0.0167  0.0864  0.1888
 1086YOPC   GL215516   8.040   6.242   6.474  0.0360  0.5507  0.1472
 1086YOPC   C1A15517   7.861   6.226   6.936  0.1475 -0.0998  0.1450
 1086YOPC   D2A15518   7.634   6.506   7.325 -0.1418 -0.2342  0.0791
 1086YOPC   C3A15519   7.889   6.738   7.694 -0.2598  0.0078 -0.0446
 1086YOPC   C4A15520   8.251   6.641   7.949 -0.0955  0.0476  0.0342
 1086YOPC   C1B15521   8.449   6.264   6.885  0.0196  0.0997  0.2827
 1086YOPC   C2B15522   8.553   6.001   7.355  0.0189  0.0168  0.0851
 1086YOPC   D3B15523   8.351   6.196   7.775 -0.2148 -0.2998  0.0086
 1086YOPC   C4B15524   8.177   6.229   8.226 -0.0054  0.1602 -0.1183
 1087YOPC   NC315525  11.660   5.785   6.234 -0.0292  0.4227 -0.1635
 1087YOPC   PO415526  11.684   5.303   6.140  0.0110  0.0480  0.0579
 1087YOPC   GL115527  11.492   5.191   6.567 -0.1567  0.0568 -0.1787
 1087YOPC   GL215528  11.276   5.429   6.616  0.4789  0.2977 -0.0290
 1087YOPC   C1A15529  11.148   4.883   6.689 -0.1195 -0.1411  0.1517
 1087YOPC   D2A15530  10.725   4.937   6.718 -0.0497  0.0502  0.1602
 1087YOPC   C3A15531  10.525   5.014   7.049  0.1969  0.1616 -0.1071
 1087YOPC   C4A15532  10.266   5.148   7.133 -0.3945  0.1912  0.1020
 1087YOPC   C1B15533  11.131   5.300   7.020 -0.1049  0.0766 -0.0888
 1087YOPC   C2B15534  10.960   5.203   7.425 -0.1490  0.0128  0.2589
 1087YOPC   D3B15535  10.554   5.208   7.580  0.2931 -0.0270  0.3441
 1087YOPC   C4B15536  10.357   5.080   7.988  0.1030 -0.0793  0.1539
 1088YOPC   NC315537  14.978   8.358   5.999  0.3224  0.1590  0.2693
 1088YOPC   PO415538  14.839   8.739   6.142 -0.0375  0.0205  0.0635
 1088YOPC   GL115539  15.019   8.621   6.510  0.0823  0.0072  0.3414
 1088YOPC   GL215540  14.801   8.495   6.647 -0.3440  0.2607  0.3301
 1088YOPC   C1A15541  15.198   8.703   6.861 -0.3769  0.1568 -0.0897
 1088YOPC   D2A15542  15.181   8.640   7.276  0.0392 -0.1537 -0.0285
 1088YOPC   C3A15543  15.467   8.460   7.587  0.1150  0.0787 -0.0882
 1088YOPC   C4A15544  15.577   8.403   7.997  0.2748 -0.0129 -0.0746
 1088YOPC   C1B15545  14.682   8.348   7.001  0.0790 -0.0473 -0.3929
 1088YOPC   C2B15546  14.513   8.292   7.413  0.1185 -0.0731  0.1549
 1088YOPC   D3B15547  14.209   8.112   7.645 -0.0209 -0.1031  0.1308
 1088YOPC   C4B15548  13.858   8.176   7.847  0.2293  0.0184 -0.2969
 1089YOPC   NC315549   0.694   5.779   5.821 -0.0092 -0.3773 -0.2467
 1089YOPC   PO415550   1.018   5.526   6.124 -0.0892 -0.0352 -0.0175
 1089YOPC   GL115551   0.911   5.419   6.559  0.0207 -0.3432 -0.0969
 1089YOPC   GL215552   0.565   5.359   6.711 -0.2187 -0.1352  0.1115
 1089YOPC   C1A15553   0.943   5.566   7.023  0.1385 -0.1157  0.0278
 1089YOPC   D2A15554   0.869   5.428   7.493  0.1775 -0.0959  0.2252
 1089YOPC   C3A15555   1.125   5.426   7.874  0.2543 -0.1130 -0.0190
 1089YOPC   C4A15556   1.433   5.178   8.070  0.4281  0.2033 -0.2995
 1089YOPC   C1B15557   0.427   5.488   7.107 -0.1062  0.1302 -0.1729
 1089YOPC   C2B15558   0.246   5.723   7.417 -0.0554  0.1308 -0.1391
 1089YOPC   D3B15559   0.394   5.614   7.764  0.1370  0.5293  0.2838
 1089YOPC   C4B15560   0.311   5.711   8.136 -0.0895 -0.1434  0.1944
 1090YOPC   NC315561   6.622  16.147   5.843 -0.2908  0.2657 -0.1557
 1090YOPC   PO415562   6.382  15.713   5.856 -0.0788 -0.0048  0.2238
 1090YOPC   GL115563   6.465  15.903   6.322 -0.3358 -0.0123 -0.1327
 1090YOPC   GL215564   6.276  15.720   6.571  0.3352  0.0225  0.1424
 1090YOPC   C1A15565   6.159  16.228   6.625 -0.3307  0.1139 -0.1822
 1090YOPC   D2A15566   6.088  16.247   7.065 -0.0167 -0.1216  0.1649
 1090YOPC   C3A15567   6.004  16.393   7.396  0.0409 -0.1832 -0.0329
 1090YOPC   C4A15568   5.843  16.654   7.699  0.4245 -0.1101  0.1703
 1090YOPC   C1B15569   6.301  15.808   7.038 -0.0592 -0.3622  0.1165
 1090YOPC   C2B15570   6.380  16.004   7.460  0.3324 -0.0762 -0.1941
 1090YOPC   D3B15571   6.408  15.737   7.890 -0.0426  0.3051  0.3282
 1090YOPC   C4B15572   6.448  15.420   8.183  0.0072  0.2259 -0.2692
 1091YOPC   NC315573  14.834  10.906   6.006 -0.1283  0.1575  0.1724
 1091YOPC   PO415574  14.811  11.184   6.360  0.3619  0.0392  0.0848
 1091YOPC   GL115575  14.862  10.898   6.675 -0.0006 -0.2243  0.2042
 1091YOPC   GL215576  15.102  11.068   6.886 -0.1780 -0.1486  0.2629
 1091YOPC   C1A15577  14.651  10.758   7.055 -0.0617 -0.1143  0.0682
 1091YOPC   D2A15578  14.245  10.578   7.224 -0.1486 -0.0976 -0.1569
 1091YOPC   C3A15579  14.288  10.580   7.664  0.2733  0.1253 -0.0144
 1091YOPC   C4A15580  14.358  10.840   8.063  0.0148  0.3805  0.0323
 1091YOPC   C1B15581  14.980  11.022   7.382 -0.0949 -0.0192  0.3188
 1091YOPC   C2B15582  14.691  10.947   7.714 -0.1623  0.1015 -0.0002
 1091YOPC   D3B15583  14.605  11.313   7.936 -0.0867  0.2706 -0.2271
 1091YOPC   C4B15584  14.448  11.222   8.336 -0.1507  0.1430  0.0905
 1092YOPC   NC315585   3.302   4.491   6.014  0.1810  0.1445 -0.3785
 1092YOPC   PO415586   3.338   4.803   6.239  0.1070  0.0363 -0.2848
 1092YOPC   GL115587   3.089   4.811   6.600  0.2379  0.1721  0.1391
 1092YOPC   GL215588   3.046   5.152   6.810 -0.0882  0.0647 -0.0332
 1092YOPC   C1A15589   2.886   4.461   6.851  0.1114  0.1637  0.6023
 1092YOPC   D2A15590   2.579   4.126   7.042 -0.1525 -0.1978 -0.2623
 1092YOPC   C3A15591   2.554   4.015   7.426  0.2902 -0.1217 -0.1067
 1092YOPC   C4A15592   2.472   4.324   7.795 -0.0864 -0.0930  0.1926
 1092YOPC   C1B15593   2.932   4.856   7.172 -0.0384  0.0435 -0.2032
 1092YOPC   C2B15594   2.722   4.520   7.346  0.1328  0.3320  0.0928
 1092YOPC   D3B15595   2.985   4.275   7.735 -0.1121  0.0216  0.0076
 1092YOPC   C4B15596   2.765   3.996   8.134 -0.1862 -0.1172  0.1293
 1093YOPC   NC315597   9.907   9.381   5.668  0.0940  0.2950 -0.0202
 1093YOPC   PO415598  10.011   9.039   5.939 -0.0913  0.0403 -0.2202
 1093YOPC   GL115599   9.971   9.098   6.411  0.1436  0.2536 -0.1247
 1093YOPC   GL215600   9.904   8.910   6.706  0.0942  0.1371 -0.3019
 1093YOPC   C1A15601   9.888   9.487   6.690 -0.1008  0.2620 -0.1431
 1093YOPC   D2A15602   9.826   9.853   6.845  0.2445  0.1191 -0.1815
 1093YOPC   C3A15603   9.910   9.950   7.251  0.0862 -0.0405 -0.0522
 1093YOPC   C4A15604   9.597  10.044   7.577 -0.1355 -0.3811  0.1395
 1093YOPC   C1B15605   9.981   9.205   7.202  0.3203  0.0877 -0.0690
 1093YOPC   C2B15606  10.268   9.255   7.520  0.4943 -0.0161  0.0779
 1093YOPC   D3B15607  10.283   8.992   7.885 -0.1377  0.0368 -0.0087
 1093YOPC   C4B15608  10.262   8.780   8.274  0.0686  0.0205  0.1966
 1094YOPC   NC315609   6.147   2.683   5.819 -0.2726 -0.0594 -0.0916
 1094YOPC   PO415610   6.223   2.967   6.117 -0.1024  0.1333  0.2303
 1094YOPC   GL115611   6.317   2.813   6.546  0.2782 -0.4034 -0.0293
 1094YOPC   GL215612   6.331   3.192   6.681 -0.0677  0.1849 -0.2447
 1094YOPC   C1A15613   6.268   2.346   6.658 -0.0160  0.3268 -0.3927
 1094YOPC   D2A15614   6.362   2.531   7.115 -0.0450 -0.3480 -0.0622
 1094YOPC   C3A15615   6.144   2.892   7.277 -0.2118 -0.2611  0.0449
 1094YOPC   C4A15616   5.888   2.873   7.577  0.3159  0.1249 -0.0338
 1094YOPC   C1B15617   6.028   3.260   6.960 -0.0650 -0.1254 -0.1229
 1094YOPC   C2B15618   5.772   3.334   7.282  0.1411  0.0775 -0.0327
 1094YOPC   D3B15619   5.764   3.399   7.840  0.2146 -0.2832 -0.1804
 1094YOPC   C4B15620   5.852   3.178   8.181  0.0327  0.1292  0.1649
 1095YOPC   NC315621   3.960  16.942   5.627  0.0502 -0.0097  0.0526
 1095YOPC   PO415622   3.889  17.312   5.808 -0.1629  0.0438  0.0097
 1095YOPC   GL115623   3.687  17.498   6.241  0.0147  0.0466  0.2813
 1095YOPC   GL215624   3.976  17.366   6.396 -0.1731 -0.1167 -0.1147
 1095YOPC   C1A15625   3.643  17.598   6.628 -0.0790  0.1920  0.1643
 1095YOPC   D2A15626   3.267  17.521   6.864 -0.1739 -0.5494 -0.0560
 1095YOPC   C3A15627   3.436  17.481   7.207 -0.3433 -0.0662 -0.0602
 1095YOPC   C4A15628   3.663  17.176   7.447  0.1344 -0.0590  0.1866
 1095YOPC   C1B15629   4.017  17.455   6.926 -0.0502  0.0505  0.3551
 1095YOPC   C2B15630   3.984  17.575   7.447 -0.0284 -0.0612 -0.0119
 1095YOPC   D3B15631   4.192  17.430   7.914  0.3030  0.1716  0.0705
 1095YOPC   C4B15632   3.985  17.194   8.256 -0.2385 -0.0192  0.2350
 1096YOPC   NC315633   1.841  11.129   5.921 -0.0762  0.2985 -0.0089
 1096YOPC   PO415634   1.901  10.681   5.982 -0.0491 -0.0623  0.0406
 1096YOPC   GL115635   1.915  10.854   6.327  0.1818 -0.1750  0.0748
 1096YOPC   GL215636   1.682  11.056   6.404  0.1459 -0.2267  0.0597
 1096YOPC   C1A15637   1.999  10.598   6.717 -0.3860  0.0589 -0.0595
 1096YOPC   D2A15638   2.041  10.462   7.071 -0.0496 -0.0630  0.0754
 1096YOPC   C3A15639   1.970  10.642   7.451  0.2143 -0.0517  0.0504
 1096YOPC   C4A15640   2.190  10.748   7.877 -0.0462  0.2123 -0.0747
 1096YOPC   C1B15641   1.683  10.985   6.764 -0.1626 -0.1034  0.0259
 1096YOPC   C2B15642   1.632  10.919   7.136 -0.0100 -0.2582  0.0428
 1096YOPC   D3B15643   1.814  11.119   7.504 -0.1544  0.0195 -0.1106
 1096YOPC   C4B15644   1.887  11.203   7.882  0.2062 -0.1151 -0.0620
 1097YOPC   NC315645   9.171  10.782   5.694 -0.0546  0.1730  0.3999
 1097YOPC   PO415646   8.893  11.178   5.751  0.1154 -0.0154  0.0378
 1097YOPC   GL115647   8.694  11.507   6.076 -0.2751  0.2804  0.2273
 1097YOPC   GL215648   8.499  11.791   5.967 -0.3315  0.0285 -0.0056
 1097YOPC   C1A15649   8.857  11.624   6.481  0.2571 -0.0783 -0.0315
 1097YOPC   D2A15650   8.783  11.706   6.875  0.0756 -0.1407 -0.0703
 1097YOPC   C3A15651   9.102  11.479   7.193  0.0690  0.0831  0.0487
 1097YOPC   C4A15652   9.293  11.638   7.546 -0.1057 -0.0551 -0.0237
 1097YOPC   C1B15653   8.126  11.968   6.225  0.0952  0.1835  0.2972
 1097YOPC   C2B15654   7.710  11.980   6.435  0.0335  0.3034 -0.1845
 1097YOPC   D3B15655   7.379  12.133   6.518  0.1562 -0.0229 -0.2101
 1097YOPC   C4B15656   6.951  12.252   6.712  0.1548  0.1077 -0.0321
 1098YOPC   NC315657  12.407  15.541   6.050 -0.2785 -0.1000  0.0046
 1098YOPC   PO415658  12.086  15.722   6.145 -0.4911 -0.0049  0.0838
 1098YOPC   GL115659  12.278  15.977   6.398 -0.1141  0.1618  0.1768
 1098YOPC   GL215660  12.420  16.302   6.450 -0.0295  0.3985 -0.2797
 1098YOPC   C1A15661  12.518  15.864   6.775  0.1107  0.0896  0.1788
 1098YOPC   D2A15662  12.461  15.822   7.167  0.1846 -0.0223  0.2229
 1098YOPC   C3A15663  12.545  15.894   7.551  0.0207  0.0014  0.1604
 1098YOPC   C4A15664  12.519  16.033   7.844  0.0722  0.2047 -0.0713
 1098YOPC   C1B15665  12.464  16.373   6.818  0.2684  0.0715 -0.1661
 1098YOPC   C2B15666  12.482  16.357   7.210 -0.1115  0.2515 -0.0171
 1098YOPC   D3B15667  12.669  16.549   7.540  0.0751 -0.3030 -0.0460
 1098YOPC   C4B15668  12.781  16.882   7.821 -0.0423  0.1516 -0.3663
 1099YOPC   NC315669  10.140   0.026   6.080 -0.0442  0.2499 -0.1455
 1099YOPC   PO415670  10.102  -0.362   6.104 -0.0241  0.0805 -0.2122
 1099YOPC   GL115671  10.412  -0.318   6.411  0.1346 -0.0478 -0.4167
 1099YOPC   GL215672  10.374  -0.707   6.615  0.1939  0.2589 -0.2810
 1099YOPC   C1A15673  10.354  -0.235   6.919 -0.0412  0.1314 -0.3053
 1099YOPC   D2A15674  10.540  -0.129   7.283  0.2291 -0.1602 -0.0331
 1099YOPC   C3A15675  10.451   0.110   7.623  0.1843  0.3192  0.1682
 1099YOPC   C4A15676  10.236   0.273   7.943  0.0147 -0.0290 -0.1601
 1099YOPC   C1B15677  10.677  -0.796   7.010  0.2518 -0.3500  0.3044
 1099YOPC   C2B15678  10.640  -0.591   7.385 -0.3102 -0.0763  0.1079
 1099YOPC   D3B15679  10.663  -0.317   7.804  0.2644 -0.0488 -0.1231
 1099YOPC   C4B15680  10.899  -0.048   8.010  0.2264  0.0787  0.1055
 1100YOPC   NC315681  13.502   2.695   6.540  0.0166 -0.0784 -0.0973
 1100YOPC   PO415682  13.431   2.930   6.083  0.2362  0.1003 -0.0662
 1100YOPC   GL115683  13.303   3.145   6.506  0.0319 -0.0780 -0.0596
 1100YOPC   GL215684  13.645   3.207   6.634  0.2094 -0.3045  0.2262
 1100YOPC   C1A15685  12.837   3.328   6.732 -0.0596 -0.0950 -0.2474
 1100YOPC   D2A15686  12.618   3.740   6.979  0.0339  0.0333 -0.2378
 1100YOPC   C3A15687  12.281   3.626   7.193 -0.0288  0.0045 -0.0815
 1100YOPC   C4A15688  12.195   3.406   7.597  0.0480  0.1599 -0.2882
 1100YOPC   C1B15689  13.520   3.180   7.036  0.0539 -0.0303 -0.0928
 1100YOPC   C2B15690  13.273   3.317   7.393  0.2862  0.4399  0.2229
 1100YOPC   D3B15691  12.985   3.538   7.243  0.0977 -0.1641 -0.1140
 1100YOPC   C4B15692  12.782   3.696   7.545 -0.2348  0.1122  0.2837
 1101YOPC   NC315693   6.658   1.728   5.686  0.0807  0.4148  0.0139
 1101YOPC   PO415694   6.437   1.349   5.673 -0.0284  0.0298  0.0615
 1101YOPC   GL115695   6.527   1.393   6.117  0.1420  0.0823  0.0165
 1101YOPC   GL215696   6.761   1.624   6.216  0.2574  0.0005  0.0376
 1101YOPC   C1A15697   6.459   1.385   6.537  0.0351  0.0226  0.0292
 1101YOPC   D2A15698   6.350   1.336   6.976  0.0699  0.2083  0.0447
 1101YOPC   C3A15699   6.165   1.122   7.435  0.2400  0.0588 -0.1823
 1101YOPC   C4A15700   6.258   1.060   7.831  0.2067 -0.1851 -0.0269
 1101YOPC   C1B15701   6.788   1.760   6.594  0.1559 -0.1323 -0.1858
 1101YOPC   C2B15702   6.716   2.057   6.998  0.1027 -0.0209 -0.2794
 1101YOPC   D3B15703   6.388   1.807   7.345  0.1427  0.2089  0.2778
 1101YOPC   C4B15704   6.258   1.579   7.684 -0.4328 -0.0936 -0.1678
 1102YOPC   NC315705   5.193   7.663   5.763  0.2366  0.0701  0.3452
 1102YOPC   PO415706   5.441   7.867   6.108  0.3223 -0.2138  0.3171
 1102YOPC   GL115707   5.685   7.965   6.444 -0.0143  0.0638  0.2315
 1102YOPC   GL215708   5.722   8.335   6.571  0.2906  0.1433 -0.4013
 1102YOPC   C1A15709   5.714   7.890   6.838  0.2604 -0.1490  0.0013
 1102YOPC   D2A15710   6.029   7.911   7.126  0.1123  0.1014 -0.1090
 1102YOPC   C3A15711   6.083   8.353   7.368  0.0972  0.0062 -0.2128
 1102YOPC   C4A15712   6.346   8.426   7.633 -0.2250 -0.1215  0.0398
 1102YOPC   C1B15713   6.064   8.343   6.883 -0.1425  0.2520 -0.1076
 1102YOPC   C2B15714   6.513   8.132   6.903  0.0008 -0.3061 -0.4475
 1102YOPC   D3B15715   6.963   8.243   6.709  0.1648  0.1356 -0.3196
 1102YOPC   C4B15716   7.391   8.255   6.712  0.0398  0.2090  0.0467
 1103YOPC   NC315717   4.026   1.295   6.013 -0.0209  0.1206  0.1281
 1103YOPC   PO415718   4.313   1.146   6.333  0.2482  0.1179 -0.2336
 1103YOPC   GL115719   4.514   0.951   6.688  0.1112 -0.0744  0.2723
 1103YOPC   GL215720   4.114   0.702   6.698 -0.1531  0.6683  0.0812
 1103YOPC   C1A15721   4.558   0.798   7.080  0.1101  0.0024  0.3466
 1103YOPC   D2A15722   4.447   0.616   7.518 -0.3247  0.2200  0.0529
 1103YOPC   C3A15723   4.160   0.909   7.881 -0.1118  0.1040 -0.0536
 1103YOPC   C4A15724   3.844   1.162   8.046 -0.0770  0.4427 -0.1649
 1103YOPC   C1B15725   4.069   0.635   7.169  0.3388  0.2134 -0.1245
 1103YOPC   C2B15726   3.960   0.528   7.650 -0.0193  0.1618  0.0434
 1103YOPC   D3B15727   3.624   0.754   7.946  0.2223  0.0425  0.1468
 1103YOPC   C4B15728   3.428   0.994   8.290 -0.0761  0.0156 -0.1274
 1104YOPC   NC315729   2.821  16.465   5.688 -0.1775 -0.1384  0.0501
 1104YOPC   PO415730   2.978  16.084   5.813 -0.1103 -0.2034 -0.2201
 1104YOPC   GL115731   2.796  16.265   6.159 -0.1240  0.4617 -0.0316
 1104YOPC   GL215732   3.045  16.127   6.411 -0.2728 -0.0478 -0.0895
 1104YOPC   C1A15733   2.576  16.298   6.502 -0.0958  0.3712  0.2096
 1104YOPC   D2A15734   2.208  16.173   6.708  0.0557 -0.1047 -0.0780
 1104YOPC   C3A15735   1.946  15.828   6.554 -0.2040 -0.1528  0.0936
 1104YOPC   C4A15736   1.824  15.486   6.678  0.0846  0.0912  0.0002
 1104YOPC   C1B15737   3.110  15.962   6.842  0.2478  0.0481  0.1510
 1104YOPC   C2B15738   2.891  15.849   7.143 -0.2253 -0.3183  0.0470
 1104YOPC   D3B15739   2.878  16.096   7.475 -0.1948  0.0429  0.2143
 1104YOPC   C4B15740   2.566  16.310   7.830  0.0087 -0.1851 -0.0212
 1105YOPC   NC315741   2.340   0.568   6.034 -0.2567 -0.2394  0.1664
 1105YOPC   PO415742   2.537   0.256   5.989  0.1886 -0.3354 -0.1772
 1105YOPC   GL115743   2.493   0.266   6.444 -0.1929 -0.0235 -0.0483
 1105YOPC   GL215744   2.254  -0.011   6.599 -0.1744 -0.0981  0.0794
 1105YOPC   C1A15745   2.453   0.431   6.859 -0.0515  0.0946 -0.0263
 1105YOPC   D2A15746   2.474   0.263   7.337  0.1149  0.0794  0.2426
 1105YOPC   C3A15747   2.888   0.391   7.502 -0.2364 -0.0287 -0.1379
 1105YOPC   C4A15748   3.116   0.693   7.727  0.1216 -0.1187 -0.2012
 1105YOPC   C1B15749   2.369  -0.117   7.034 -0.1378  0.1341 -0.1562
 1105YOPC   C2B15750   2.386  -0.151   7.490  0.1223  0.0742 -0.0364
 1105YOPC   D3B15751   2.713  -0.136   7.767 -0.0985 -0.2365 -0.0068
 1105YOPC   C4B15752   2.698  -0.210   8.173  0.2749 -0.1535  0.3812
 1106YOPC   NC315753  12.918   2.475   5.700 -0.1200  0.0549  0.1098
 1106YOPC   PO415754  13.118   2.575   6.209  0.2301 -0.1854 -0.0638
 1106YOPC   GL115755  13.071   2.603   6.705 -0.0285  0.1798 -0.1490
 1106YOPC   GL215756  13.001   2.335   6.892 -0.2821 -0.4808 -0.1553
 1106YOPC   C1A15757  13.041   2.880   7.106  0.2574  0.1044 -0.2446
 1106YOPC   D2A15758  13.177   2.862   7.598 -0.2699 -0.1553  0.2356
 1106YOPC   C3A15759  13.038   3.175   7.893 -0.0429 -0.2026 -0.0988
 1106YOPC   C4A15760  12.876   3.526   8.034 -0.1200 -0.1509  0.2931
 1106YOPC   C1B15761  13.066   2.407   7.243 -0.0865 -0.4200  0.0344
 1106YOPC   C2B15762  12.943   2.338   7.658 -0.3802 -0.1038  0.1983
 1106YOPC   D3B15763  12.853   2.636   8.043 -0.1287  0.0287 -0.1323
 1106YOPC   C4B15764  12.926   2.554   8.490 -0.0556  0.2117  0.3419
 1107YOPC   NC315765  15.075  13.820   5.784 -0.0492 -0.0040  0.1384
 1107YOPC   PO415766  15.249  13.706   6.229 -0.0928  0.1686 -0.1179
 1107YOPC   GL115767  15.417  13.659   6.698  0.2186  0.1241  0.1143
 1107YOPC   GL215768  15.407  13.952   6.895 -0.0419 -0.0056 -0.0090
 1107YOPC   C1A15769  15.342  13.516   7.145 -0.1029 -0.0915  0.4981
 1107YOPC   D2A15770  15.313  13.557   7.566 -0.0127  0.0546  0.2683
 1107YOPC   C3A15771  15.579  13.899   7.835 -0.0070  0.1314 -0.1210
 1107YOPC   C4A15772  15.576  14.109   8.194 -0.0923 -0.0861 -0.1020
 1107YOPC   C1B15773  15.281  14.049   7.353 -0.0094  0.0573  0.3301
 1107YOPC   C2B15774  15.077  14.084   7.730  0.0140 -0.0709  0.2137
 1107YOPC   D3B15775  15.144  13.813   8.062 -0.3877 -0.1717 -0.0703
 1107YOPC   C4B15776  14.906  13.464   8.381  0.2472  0.1238  0.0223
 1108YOPC   NC315777  14.269  15.671   5.886  0.3143  0.0661 -0.0800
 1108YOPC   PO415778  14.150  15.995   6.242 -0.1627  0.1951 -0.1835
 1108YOPC   GL115779  14.064  15.827   6.631 -0.1817 -0.4730 -0.3499
 1108YOPC   GL215780  14.294  15.753   6.862 -0.0697  0.2326 -0.0466
 1108YOPC   C1A15781  13.857  15.894   7.014  0.2871  0.1823  0.0591
 1108YOPC   D2A15782  13.423  15.830   7.306 -0.3430 -0.0235  0.1163
 1108YOPC   C3A15783  13.381  15.895   7.667  0.0717  0.0576 -0.0754
 1108YOPC   C4A15784  13.600  16.091   8.004 -0.1419 -0.3137  0.0860
 1108YOPC   C1B15785  14.210  15.789   7.349  0.1204 -0.1817  0.1643
 1108YOPC   C2B15786  13.946  15.976   7.567  0.0794  0.2035  0.0300
 1108YOPC   D3B15787  14.106  16.064   7.988  0.1205  0.3822 -0.2573
 1108YOPC   C4B15788  14.159  16.375   8.349 -0.0266 -0.0721  0.3319
 1109YOPC   NC315789  17.195   8.386   5.916  0.1374 -0.0360  0.2125
 1109YOPC   PO415790  17.183   8.803   5.837 -0.2375  0.0962 -0.1534
 1109YOPC   GL115791  17.207   8.845   6.272 -0.3161  0.1349 -0.1617
 1109YOPC   GL215792  17.328   8.543   6.426 -0.1557 -0.2762 -0.0063
 1109YOPC   C1A15793  17.149   9.008   6.723 -0.0395 -0.0791 -0.0697
 1109YOPC   D2A15794  17.119   9.019   7.190 -0.0033  0.5368 -0.0999
 1109YOPC   C3A15795  17.131   9.172   7.527  0.0248 -0.0209  0.1813
 1109YOPC   C4A15796  16.999   9.046   7.906 -0.0819  0.2936 -0.1633
 1109YOPC   C1B15797  17.304   8.544   6.937  0.0051 -0.1766  0.0577
 1109YOPC   C2B15798  17.269   8.263   7.105  0.0296  0.0733  0.3327
 1109YOPC   D3B15799  17.211   8.206   7.607  0.0046  0.1822  0.0827
 1109YOPC   C4B15800  17.450   8.136   7.956 -0.2101  0.1546 -0.0696
 1110YOPC   NC315801  12.302   3.072   6.241  0.0681 -0.3584 -0.0782
 1110YOPC   PO415802  12.368   3.552   6.346 -0.1310 -0.2932 -0.1514
 1110YOPC   GL115803  12.268   3.743   6.644 -0.0973 -0.0406  0.0334
 1110YOPC   GL215804  12.070   3.619   6.802  0.2137  0.0681 -0.0246
 1110YOPC   C1A15805  12.246   4.103   6.895  0.0890  0.1742  0.1742
 1110YOPC   D2A15806  12.497   4.108   7.261 -0.2422  0.1025 -0.2005
 1110YOPC   C3A15807  12.310   3.901   7.690 -0.0777 -0.3897 -0.2081
 1110YOPC   C4A15808  12.032   3.755   8.004  0.1234 -0.2374  0.1221
 1110YOPC   C1B15809  11.771   3.858   6.963 -0.0351 -0.1554 -0.3933
 1110YOPC   C2B15810  11.492   4.088   7.179  0.0290 -0.1617 -0.2703
 1110YOPC   D3B15811  11.411   4.200   7.542 -0.0834  0.1346  0.0514
 1110YOPC   C4B15812  11.599   3.994   7.879  0.1447  0.1753 -0.1356
 1111YOPC   NC315813  13.191   5.643   6.163  0.0621 -0.1529 -0.2115
 1111YOPC   PO415814  12.779   5.608   6.030  0.0079  0.2276 -0.1961
 1111YOPC   GL115815  12.661   5.486   6.460 -0.0474  0.1521 -0.2591
 1111YOPC   GL215816  13.009   5.486   6.601 -0.2964  0.3082 -0.2020
 1111YOPC   C1A15817  12.322   5.237   6.730  0.1557  0.2550  0.0580
 1111YOPC   D2A15818  12.028   5.074   6.996  0.1085  0.0584 -0.5206
 1111YOPC   C3A15819  12.040   4.991   7.371  0.1468  0.0126 -0.2813
 1111YOPC   C4A15820  12.160   5.109   7.710  0.3696  0.0019 -0.1649
 1111YOPC   C1B15821  12.711   5.525   6.965  0.0562  0.0420 -0.3958
 1111YOPC   C2B15822  12.936   5.490   7.321 -0.0918 -0.0062 -0.1137
 1111YOPC   D3B15823  12.665   5.302   7.688  0.1521 -0.0920  0.0713
 1111YOPC   C4B15824  12.669   4.872   7.722 -0.1886 -0.2236 -0.2253
 1112YOPC   NC315825   4.638  12.128   5.968  0.2040  0.0272  0.1344
 1112YOPC   PO415826   4.940  12.479   5.841 -0.2111  0.2332 -0.0241
 1112YOPC   GL115827   4.896  12.618   6.248 -0.1678  0.1229  0.0162
 1112YOPC   GL215828   5.194  12.702   6.335  0.0112  0.0200  0.0901
 1112YOPC   C1A15829   4.834  12.574   6.789 -0.2023 -0.3104  0.1533
 1112YOPC   D2A15830   5.066  12.646   7.135 -0.1869  0.0699 -0.0768
 1112YOPC   C3A15831   4.862  12.607   7.483  0.1513  0.2546  0.2115
 1112YOPC   C4A15832   4.612  12.414   7.710  0.0985  0.2348 -0.3575
 1112YOPC   C1B15833   5.231  12.937   6.643 -0.1836 -0.2223  0.0916
 1112YOPC   C2B15834   5.266  13.125   7.022  0.4495  0.1392 -0.1724
 1112YOPC   D3B15835   5.216  13.537   7.055  0.0050  0.1456 -0.2282
 1112YOPC   C4B15836   5.358  13.774   7.385  0.0176 -0.2284  0.0117
 1113YOPC   NC315837  16.659   2.258   6.608  0.1366 -0.0657 -0.1328
 1113YOPC   PO415838  16.564   1.879   6.569  0.0641  0.2171 -0.0890
 1113YOPC   GL115839  16.658   1.682   6.978  0.2939 -0.0475  0.2279
 1113YOPC   GL215840  16.517   1.358   6.984  0.0000 -0.3424 -0.0719
 1113YOPC   C1A15841  16.906   1.594   7.327  0.1907  0.0352  0.1163
 1113YOPC   D2A15842  16.936   1.621   7.719 -0.1482  0.1347 -0.1281
 1113YOPC   C3A15843  16.863   1.382   8.124 -0.1509 -0.4211  0.1140
 1113YOPC   C4A15844  17.023   1.315   8.475  0.1495  0.1313 -0.2164
 1113YOPC   C1B15845  16.584   1.176   7.321 -0.0983 -0.2267  0.0094
 1113YOPC   C2B15846  16.691   1.225   7.636  0.1300  0.4389 -0.1172
 1113YOPC   D3B15847  16.755   0.917   7.978  0.2795 -0.0841 -0.1170
 1113YOPC   C4B15848  16.927   0.586   8.211 -0.2429  0.0876 -0.0284
 1114YOPC   NC315849  13.517  10.258   5.543 -0.1533 -0.1893 -0.1621
 1114YOPC   PO415850  13.817  10.142   5.814 -0.0279 -0.0282 -0.1945
 1114YOPC   GL115851  13.492  10.026   6.068  0.0082 -0.0489  0.1242
 1114YOPC   GL215852  13.618   9.760   6.205  0.4715 -0.3389 -0.3082
 1114YOPC   C1A15853  13.644  10.125   6.514  0.3168  0.1137  0.0547
 1114YOPC   D2A15854  13.533   9.951   6.960  0.0716 -0.1087  0.0305
 1114YOPC   C3A15855  13.486  10.124   7.358  0.2497 -0.0148 -0.0137
 1114YOPC   C4A15856  13.310   9.999   7.723 -0.0815  0.0395  0.3032
 1114YOPC   C1B15857  13.632   9.461   6.501 -0.0658 -0.1172 -0.0300
 1114YOPC   C2B15858  13.544   9.466   6.973 -0.2411 -0.0154 -0.1929
 1114YOPC   D3B15859  13.538   9.052   7.146 -0.2679  0.2132 -0.2865
 1114YOPC   C4B15860  13.521   8.649   7.333  0.0619  0.0987  0.1328
 1115YOPC   NC315861  11.468  17.297   5.845  0.1100 -0.0893  0.3304
 1115YOPC   PO415862  11.282  17.257   6.224 -0.3133  0.1391 -0.0729
 1115YOPC   GL115863  11.281  17.114   6.614  0.0320 -0.2281 -0.0413
 1115YOPC   GL215864  10.914  17.074   6.618 -0.0653  0.0215 -0.2457
 1115YOPC   C1A15865  11.382  17.017   6.961 -0.1592  0.1138 -0.2914
 1115YOPC   D2A15866  11.719  17.166   7.225  0.1273  0.1056  0.0842
 1115YOPC   C3A15867  11.786  17.092   7.581 -0.0102 -0.1695  0.2101
 1115YOPC   C4A15868  11.486  16.976   7.913 -0.0287 -0.0072 -0.1900
 1115YOPC   C1B15869  10.737  16.700   6.669  0.1415 -0.2897 -0.2248
 1115YOPC   C2B15870  10.645  16.567   7.043  0.1675 -0.0606 -0.0980
 1115YOPC   D3B15871  10.563  16.200   7.129  0.1707 -0.4639  0.3592
 1115YOPC   C4B15872  10.574  15.835   7.278  0.0441  0.0556 -0.2568
 1116YOPC   NC315873  11.305  16.298   6.045  0.1053  0.2104 -0.4616
 1116YOPC   PO415874  11.599  15.981   5.925  0.1068 -0.3245  0.0401
 1116YOPC   GL115875  11.446  15.783   6.292 -0.1196 -0.0497 -0.1673
 1116YOPC   GL215876  11.785  15.904   6.514  0.0070  0.1545 -0.1618
 1116YOPC   C1A15877  11.374  15.700   6.753 -0.1880 -0.3042  0.0277
 1116YOPC   D2A15878  11.419  15.664   7.193  0.0853  0.2598  0.1104
 1116YOPC   C3A15879  11.819  15.749   7.289  0.0708  0.2370  0.3443
 1116YOPC   C4A15880  12.120  15.726   7.670  0.0263  0.3618  0.0974
 1116YOPC   C1B15881  12.055  16.052   6.850 -0.0905 -0.0212  0.1325
 1116YOPC   C2B15882  11.893  16.250   7.279  0.1646  0.0682  0.0298
 1116YOPC   D3B15883  12.129  16.238   7.564  0.0682 -0.2430 -0.2088
 1116YOPC   C4B15884  12.332  16.512   7.929 -0.0620  0.5097 -0.0742
 1117YOPC   NC315885   6.189  13.928   5.900 -0.0553 -0.1111  0.2080
 1117YOPC   PO415886   6.661  13.977   6.012  0.2094 -0.0568  0.0219
 1117YOPC   GL115887   6.382  14.178   6.305  0.1207 -0.0046  0.1409
 1117YOPC   GL215888   6.673  14.256   6.437 -0.3675  0.2696  0.0773
 1117YOPC   C1A15889   6.306  14.050   6.735 -0.1168  0.0754 -0.2668
 1117YOPC   D2A15890   6.270  14.179   7.237 -0.2510  0.0474  0.1989
 1117YOPC   C3A15891   5.920  14.353   7.216  0.1883 -0.2264 -0.2358
 1117YOPC   C4A15892   5.563  14.620   6.859 -0.1539  0.0351  0.1503
 1117YOPC   C1B15893   6.730  14.381   6.936 -0.1876 -0.1142 -0.1450
 1117YOPC   C2B15894   6.818  14.338   7.371  0.2346 -0.0197 -0.1262
 1117YOPC   D3B15895   6.922  14.824   7.426 -0.1372  0.1509  0.2412
 1117YOPC   C4B15896   7.107  14.817   7.821  0.0418 -0.3328 -0.0168
 1118YOPC   NC315897  13.406  12.745   5.993  0.1817 -0.1545  0.0718
 1118YOPC   PO415898  13.683  12.610   6.184 -0.1719 -0.1365  0.1415
 1118YOPC   GL115899  14.127  12.373   6.422  0.0770  0.0056  0.0134
 1118YOPC   GL215900  14.399  12.524   6.425 -0.4352 -0.0194 -0.0621
 1118YOPC   C1A15901  14.064  12.332   6.905 -0.1503 -0.3079  0.0833
 1118YOPC   D2A15902  14.273  12.230   7.223 -0.0761  0.0336  0.3628
 1118YOPC   C3A15903  14.203  12.354   7.668  0.0596  0.0631 -0.1189
 1118YOPC   C4A15904  14.069  12.119   7.972 -0.0366  0.2338  0.0627
 1118YOPC   C1B15905  14.112  12.780   6.639  0.0182  0.0275 -0.1234
 1118YOPC   C2B15906  13.874  13.084   6.858 -0.0359  0.1357  0.0282
 1118YOPC   D3B15907  13.741  13.032   7.405  0.0941 -0.2179 -0.0142
 1118YOPC   C4B15908  13.639  13.014   7.773  0.0613  0.3313  0.2326
 1119YOPC   NC315909   7.196   0.672   5.583 -0.1278  0.2238 -0.1731
 1119YOPC   PO415910   7.452   0.959   5.635 -0.2708 -0.1473 -0.1024
 1119YOPC   GL115911   7.343   1.058   6.054 -0.0803 -0.2013  0.1536
 1119YOPC   GL215912   6.964   1.101   6.110  0.0489 -0.2521  0.0225
 1119YOPC   C1A15913   7.235   0.839   6.430  0.1000 -0.2031  0.1467
 1119YOPC   D2A15914   7.371   1.025   6.846  0.0739  0.1527 -0.1526
 1119YOPC   C3A15915   7.214   1.117   7.238 -0.0372 -0.1285 -0.0229
 1119YOPC   C4A15916   7.318   1.148   7.614  0.3376  0.1550 -0.1464
 1119YOPC   C1B15917   6.637   0.976   6.366 -0.0324  0.0451  0.0082
 1119YOPC   C2B15918   6.386   0.826   6.606 -0.3400  0.0961 -0.0640
 1119YOPC   D3B15919   6.220   0.793   7.072 -0.5521  0.1889 -0.0859
 1119YOPC   C4B15920   6.410   0.684   7.409 -0.2341 -0.2876  0.0108
 1120YOPC   NC315921  16.560   9.849   6.272  0.0003  0.0327 -0.0123
 1120YOPC   PO415922  16.677   9.529   6.000  0.2193  0.0497  0.2004
 1120YOPC   GL115923  16.792   9.423   6.403 -0.0585  0.1272 -0.1244
 1120YOPC   GL215924  16.492   9.490   6.596 -0.2565 -0.0495  0.0814
 1120YOPC   C1A15925  16.896   9.459   6.848  0.1259  0.2764 -0.1568
 1120YOPC   D2A15926  16.859   9.574   7.219  0.1212  0.3334  0.1289
 1120YOPC   C3A15927  16.944   9.608   7.591  0.0097  0.0649  0.3837
 1120YOPC   C4A15928  17.217   9.943   7.765  0.0088 -0.0684  0.0664
 1120YOPC   C1B15929  16.390   9.349   6.951  0.2671 -0.1879 -0.1174
 1120YOPC   C2B15930  16.637   9.165   7.254 -0.0924 -0.0559  0.1221
 1120YOPC   D3B15931  16.585   9.277   7.727 -0.2020  0.0167 -0.0018
 1120YOPC   C4B15932  16.585   9.444   8.054 -0.2178 -0.1078 -0.1088
 1121YOPC   NC315933  11.027  14.744   5.529 -0.1425 -0.1028  0.0225
 1121YOPC   PO415934  10.774  14.531   5.879 -0.3477  0.1031 -0.0550
 1121YOPC   GL115935  10.652  14.619   6.278 -0.1150 -0.1205 -0.0081
 1121YOPC   GL215936  10.397  14.690   6.376 -0.0202 -0.2746  0.0432
 1121YOPC   C1A15937  10.700  14.470   6.686  0.3660 -0.1446 -0.0190
 1121YOPC   D2A15938  11.044  14.254   6.682 -0.0856 -0.0931  0.0776
 1121YOPC   C3A15939  11.504  14.384   6.878  0.1281 -0.0974 -0.0787
 1121YOPC   C4A15940  11.972  14.525   6.975 -0.0330  0.0627  0.2132
 1121YOPC   C1B15941  10.162  14.669   6.733 -0.2993 -0.0629  0.3756
 1121YOPC   C2B15942  10.125  14.459   7.120  0.0305  0.0358 -0.0681
 1121YOPC   D3B15943  10.306  14.232   7.527  0.0585  0.0374 -0.2318
 1121YOPC   C4B15944  10.512  14.027   7.813  0.1341 -0.1134 -0.1190
 1122YOPC   NC315945   2.843  14.946   5.923 -0.0925 -0.1845 -0.0209
 1122YOPC   PO415946   2.423  14.883   5.875 -0.0752  0.0855  0.1662
 1122YOPC   GL115947   2.393  14.908   6.289 -0.0535  0.1781  0.0068
 1122YOPC   GL215948   2.511  15.239   6.323 -0.1114  0.1210  0.1659
 1122YOPC   C1A15949   2.350  14.964   6.737  0.0147  0.2670 -0.1346
 1122YOPC   D2A15950   2.181  15.232   7.052  0.0389  0.5287  0.0731
 1122YOPC   C3A15951   2.112  15.027   7.496  0.0394  0.2056 -0.0105
 1122YOPC   C4A15952   1.982  15.057   7.950  0.1495  0.0388  0.0000
 1122YOPC   C1B15953   2.802  14.989   6.572 -0.4931  0.3083 -0.2749
 1122YOPC   C2B15954   2.954  14.747   6.949  0.0114  0.0059  0.0654
 1122YOPC   D3B15955   3.013  14.415   7.294  0.0446  0.0946  0.1835
 1122YOPC   C4B15956   3.059  14.408   7.634 -0.2468 -0.3375  0.0691
 1123YOPC   NC315957   0.263   8.814   6.201  0.2916 -0.0392  0.2195
 1123YOPC   PO415958  -0.143   9.066   6.182  0.0202 -0.2165  0.1298
 1123YOPC   GL115959  -0.262   9.022   6.532  0.1526  0.1388  0.0017
 1123YOPC   GL215960  -0.093   8.701   6.599 -0.1935  0.0845 -0.0976
 1123YOPC   C1A15961  -0.235   9.068   6.941  0.0399  0.1241 -0.0774
 1123YOPC   D2A15962  -0.278   8.994   7.369  0.2616 -0.0153  0.2042
 1123YOPC   C3A15963  -0.098   9.146   7.700  0.1859 -0.3140 -0.2009
 1123YOPC   C4A15964  -0.218   9.134   8.107  0.3344 -0.0169 -0.1067
 1123YOPC   C1B15965  -0.053   8.623   7.040  0.1213 -0.2742  0.0126
 1123YOPC   C2B15966  -0.221   8.460   7.354  0.2530 -0.0794  0.2007
 1123YOPC   D3B15967  -0.065   8.307   7.725  0.3578 -0.0151  0.3524
 1123YOPC   C4B15968   0.120   8.045   7.963  0.2810 -0.0808 -0.0394
 1124YOPC   NC315969   8.894   5.940   5.726 -0.1181  0.1683  0.1250
 1124YOPC   PO415970   8.646   6.172   5.984  0.2015 -0.0963  0.2195
 1124YOPC   GL115971   8.709   6.121   6.440 -0.0942 -0.1594  0.1124
 1124YOPC   GL215972   8.880   6.303   6.647  0.2193  0.1449 -0.2046
 1124YOPC   C1A15973   8.661   5.802   6.814 -0.0744 -0.1096  0.0972
 1124YOPC   D2A15974   8.704   5.379   6.773 -0.3139 -0.2508  0.0164
 1124YOPC   C3A15975   9.017   5.115   6.893  0.1958  0.1974  0.1444
 1124YOPC   C4A15976   9.310   5.083   7.198 -0.0581 -0.3010 -0.0859
 1124YOPC   C1B15977   8.945   6.112   7.126 -0.1882  0.3870 -0.0439
 1124YOPC   C2B15978   9.319   5.997   7.328 -0.0199 -0.1405  0.1967
 1124YOPC   D3B15979   9.359   6.077   7.719 -0.1396 -0.2342 -0.2002
 1124YOPC   C4B15980   9.113   6.022   8.085 -0.3388  0.0449 -0.1919
 1125YOPC   NC315981  15.862  14.678   5.594  0.2822 -0.2203  0.1208
 1125YOPC   PO415982  15.738  14.386   5.928  0.0133  0.0769 -0.0098
 1125YOPC   GL115983  15.794  14.565   6.446  0.0037 -0.1477  0.2686
 1125YOPC   GL215984  15.492  14.625   6.683 -0.0993  0.0988  0.0549
 1125YOPC   C1A15985  15.913  14.369   6.750 -0.2772 -0.0731  0.0549
 1125YOPC   D2A15986  16.264  14.451   7.040  0.1415  0.0687 -0.0223
 1125YOPC   C3A15987  16.366  14.879   7.096 -0.0237 -0.2078 -0.1010
 1125YOPC   C4A15988  16.287  15.077   7.456  0.3011  0.1315  0.2369
 1125YOPC   C1B15989  15.410  14.567   7.096 -0.1577  0.0115 -0.1459
 1125YOPC   C2B15990  15.506  14.487   7.520  0.0479  0.2281  0.3237
 1125YOPC   D3B15991  15.320  14.469   7.906  0.3583  0.2358  0.2970
 1125YOPC   C4B15992  15.037  14.368   8.170  0.0053 -0.0638 -0.2897
 1126YOPC   NC315993  12.137   1.984   6.205  0.0326  0.1443  0.0179
 1126YOPC   PO415994  11.777   2.280   6.051 -0.0038 -0.0980  0.1116
 1126YOPC   GL115995  11.730   2.390   6.438 -0.0521 -0.3363  0.0952
 1126YOPC   GL215996  11.952   2.187   6.604  0.1510 -0.0568 -0.1377
 1126YOPC   C1A15997  11.802   2.568   6.869  0.2692 -0.0203 -0.3753
 1126YOPC   D2A15998  11.609   2.485   7.305  0.1640  0.0531 -0.2682
 1126YOPC   C3A15999  11.871   2.412   7.642 -0.0781 -0.3276  0.3714
 1126YOPC   C4A16000  12.233   2.124   7.834  0.2497  0.0188 -0.1870
 1126YOPC   C1B16001  11.727   2.065   6.938  0.1942 -0.2147  0.0898
 1126YOPC   C2B16002  11.494   1.826   7.123  0.1769  0.0235  0.1495
 1126YOPC   D3B16003  11.496   1.370   7.200  0.0404 -0.0546 -0.3012
 1126YOPC   C4B16004  11.291   1.174   7.539 -0.3027  0.0267  0.0076
 1127YOPC   NC316005  15.769   4.249   6.146 -0.0982 -0.0003 -0.0047
 1127YOPC   PO416006  15.771   4.102   6.495  0.2107 -0.0167  0.0972
 1127YOPC   GL116007  15.558   4.129   6.869 -0.2706  0.0429  0.3291
 1127YOPC   GL216008  15.203   4.258   6.820 -0.2822  0.0605  0.1446
 1127YOPC   C1A16009  15.640   3.967   7.215 -0.0531 -0.0669 -0.1075
 1127YOPC   D2A16010  15.866   3.843   7.578  0.0521 -0.1769 -0.2820
 1127YOPC   C3A16011  15.682   3.551   7.875 -0.0912  0.2531 -0.0425
 1127YOPC   C4A16012  15.346   3.370   7.911  0.0928 -0.0238 -0.1390
 1127YOPC   C1B16013  15.173   4.169   7.303 -0.0293 -0.0239 -0.1125
 1127YOPC   C2B16014  14.993   4.126   7.791  0.0063 -0.3488 -0.0435
 1127YOPC   D3B16015  15.204   4.033   8.050 -0.0886 -0.0397  0.1729
 1127YOPC   C4B16016  15.641   3.976   8.129 -0.3172  0.1833  0.0718
 1128ERGO   ROH16017   6.197   3.735   6.717 -0.2290 -0.0627 -0.1658
 1128ERGO    R116018   6.176   3.860   6.970 -0.2687 -0.0692 -0.1657
 1128ERGO    R216019   6.038   3.747   7.181 -0.1928 -0.1364 -0.1516
 1128ERGO    R316020   6.273   3.781   7.312 -0.1978 -0.0158 -0.1732
 1128ERGO    R416021   6.091   3.673   7.514 -0.1776  0.0716 -0.1062
 1128ERGO    R516022   6.210   3.855   7.531 -0.2098  0.1038 -0.2158
 1128ERGO    C116023   6.343   3.662   7.831 -0.1735  0.3059 -0.1002
 1128ERGO    C216024   6.203   3.561   8.096  0.0168 -0.0485 -0.0219
 1129ERGO   ROH16025  15.315  13.275  10.703 -0.0488  0.0139 -0.0829
 1129ERGO    R116026  15.409  13.198  10.447 -0.0661  0.0946 -0.1140
 1129ERGO    R216027  15.254  13.053  10.268 -0.0428  0.0607 -0.1100
 1129ERGO    R316028  15.313  13.259  10.101 -0.1578  0.1148 -0.0845
 1129ERGO    R416029  15.244  13.038   9.923 -0.0067  0.0950 -0.1125
 1129ERGO    R516030  15.426  13.157   9.917 -0.0815  0.2070 -0.0872
 1129ERGO    C116031  15.293  13.222   9.566 -0.0938  0.1656 -0.0901
 1129ERGO    C216032  15.370  13.181   9.298  0.2226 -0.0147 -0.1005
 1130ERGO   ROH16033   3.904  15.503   6.637  0.1517 -0.1000 -0.0365
 1130ERGO    R116034   3.898  15.311   6.845 -0.0156 -0.1015 -0.0416
 1130ERGO    R216035   3.942  15.376   7.110  0.0437 -0.1473 -0.0400
 1130ERGO    R316036   3.702  15.254   7.146 -0.0648  0.0612 -0.0419
 1130ERGO    R416037   3.751  15.397   7.397  0.1270 -0.0950  0.0122
 1130ERGO    R516038   3.704  15.185   7.376 -0.0768 -0.0433 -0.0727
 1130ERGO    C116039   3.414  15.294   7.598  0.0736  0.1312  0.0408
 1130ERGO    C216040   3.431  15.355   7.883 -0.0009  0.1084 -0.1922
 1131ERGO   ROH16041   7.448   4.470   6.614  0.0438 -0.0749 -0.1283
 1131ERGO    R116042   7.330   4.500   6.869 -0.0166 -0.0711 -0.1568
 1131ERGO    R216043   7.069   4.424   6.923  0.0200 -0.2089 -0.1798
 1131ERGO    R316044   7.186   4.280   7.121  0.0700 -0.0835 -0.1169
 1131ERGO    R416045   6.963   4.417   7.251  0.0431 -0.0708 -0.1685
 1131ERGO    R516046   7.171   4.420   7.314  0.0489  0.0108 -0.1844
 1131ERGO    C116047   7.011   4.277   7.629  0.1035  0.1274 -0.1028
 1131ERGO    C216048   6.757   4.238   7.838  0.1157  0.0184 -0.1327
 1132ERGO   ROH16049  13.516  11.468   6.398 -0.2775 -0.0737 -0.1923
 1132ERGO    R116050  13.408  11.530   6.652 -0.1382  0.0473 -0.1602
 1132ERGO    R216051  13.271  11.345   6.805 -0.0606  0.1186  0.0056
 1132ERGO    R316052  13.454  11.415   6.994  0.0476  0.2050 -0.1313
 1132ERGO    R416053  13.200  11.401   7.139  0.1392  0.2519  0.0265
 1132ERGO    R516054  13.338  11.569   7.136  0.1276  0.2549 -0.1242
 1132ERGO    C116055  13.330  11.499   7.510  0.3569  0.4104 -0.0899
 1132ERGO    C216056  13.191  11.637   7.703 -0.1252 -0.1504 -0.1470
 1133ERGO   ROH16057   4.001   9.405   6.596 -0.0017  0.1768  0.1033
 1133ERGO    R116058   4.020   9.245   6.828 -0.0848  0.1341  0.0810
 1133ERGO    R216059   4.261   9.154   6.927 -0.1317 -0.0071  0.0668
 1133ERGO    R316060   4.175   9.271   7.156 -0.0679  0.0066  0.0839
 1133ERGO    R416061   4.401   9.103   7.239 -0.0772 -0.0291  0.0391
 1133ERGO    R516062   4.199   9.101   7.323 -0.0613  0.0025  0.0791
 1133ERGO    C116063   4.401   9.183   7.636  0.0144 -0.0290  0.0389
 1133ERGO    C216064   4.582   9.106   7.933  0.2653  0.2404 -0.4121
 1134ERGO   ROH16065  11.416   7.810  10.263 -0.0462 -0.1468 -0.0862
 1134ERGO    R116066  11.426   7.973  10.032 -0.0308 -0.1064 -0.0564
 1134ERGO    R216067  11.599   7.925   9.822  0.0733  0.0058  0.0050
 1134ERGO    R316068  11.371   7.931   9.675  0.1286 -0.0749 -0.0859
 1134ERGO    R416069  11.587   7.965   9.479  0.2067 -0.1924 -0.0247
 1134ERGO    R516070  11.414   8.095   9.505  0.1974 -0.1721 -0.1656
 1134ERGO    C116071  11.365   7.993   9.141  0.3363 -0.3835 -0.1273
 1134ERGO    C216072  11.385   8.141   8.734  0.0277  0.0766 -0.1298
 1135ERGO   ROH16073   6.309   5.038   6.730  0.0890 -0.3862  0.2803
 1135ERGO    R116074   6.411   5.069   6.992  0.0600 -0.1170  0.2632
 1135ERGO    R216075   6.351   5.287   7.151 -0.1598 -0.0743  0.1248
 1135ERGO    R316076   6.273   5.096   7.328  0.0323 -0.0427  0.2464
 1135ERGO    R416077   6.269   5.346   7.482 -0.0931  0.0372  0.1218
 1135ERGO    R516078   6.374   5.162   7.535  0.0554  0.1349  0.1817
 1135ERGO    C116079   6.149   5.200   7.840  0.1261  0.1316  0.2341
 1135ERGO    C216080   6.086   5.028   8.178 -0.0152  0.1554 -0.0075
 1136ERGO   ROH16081   7.258   7.377  10.123  0.1638  0.0928  0.1178
 1136ERGO    R116082   7.129   7.437   9.878  0.0592  0.0071  0.1518
 1136ERGO    R216083   7.267   7.510   9.650 -0.0427 -0.0143  0.0835
 1136ERGO    R316084   7.130   7.303   9.539 -0.0376 -0.0700  0.1806
 1136ERGO    R416085   7.232   7.455   9.311 -0.0165 -0.1837  0.1076
 1136ERGO    R516086   7.025   7.398   9.346 -0.0223 -0.1636  0.1235
 1136ERGO    C116087   7.083   7.229   9.009  0.0034 -0.3348  0.2127
 1136ERGO    C216088   7.133   7.278   8.689 -0.1822 -0.2538  0.1880
 1137ERGO   ROH16089   1.800   9.275   6.529  0.3219  0.0995  0.0653
 1137ERGO    R116090   1.695   9.155   6.763  0.1862  0.0527 -0.0187
 1137ERGO    R216091   1.757   8.896   6.838  0.1912  0.0605 -0.0028
 1137ERGO    R316092   1.829   9.016   7.071  0.0030  0.0507  0.0621
 1137ERGO    R416093   1.797   8.733   7.140  0.2994 -0.0206 -0.0604
 1137ERGO    R516094   1.701   8.901   7.239  0.0856 -0.1617 -0.0137
 1137ERGO    C116095   1.888   8.750   7.535  0.1859 -0.0770 -0.0330
 1137ERGO    C216096   1.984   8.811   7.849 -0.1706 -0.1454 -0.0992
 1138ERGO   ROH16097   0.764  16.314   6.530  0.0029 -0.1867  0.0407
 1138ERGO    R116098   0.614  16.144   6.700  0.0318 -0.1201  0.1327
 1138ERGO    R216099   0.661  16.126   6.972  0.0577  0.0100  0.1360
 1138ERGO    R316100   0.397  16.185   6.989  0.0537 -0.0044  0.1338
 1138ERGO    R416101   0.454  16.033   7.232  0.0693  0.0283  0.1523
 1138ERGO    R516102   0.298  15.991   7.087  0.0683 -0.0000  0.1599
 1138ERGO    C116103   0.085  16.035   7.400  0.0723  0.0252  0.1597
 1138ERGO    C216104  -0.132  16.099   7.664 -0.0133  0.4848  0.1840
 1139ERGO   ROH16105  16.492  12.201   6.825 -0.0826 -0.1945 -0.0473
 1139ERGO    R116106  16.531  12.290   7.091 -0.0430 -0.1077 -0.0813
 1139ERGO    R216107  16.344  12.248   7.290  0.0201 -0.1125 -0.0216
 1139ERGO    R316108  16.555  12.136   7.420  0.0898 -0.0088 -0.0440
 1139ERGO    R416109  16.356  12.188   7.630  0.2019  0.1537  0.0221
 1139ERGO    R516110  16.565  12.253   7.629  0.2011  0.1552 -0.1395
 1139ERGO    C116111  16.561  12.047   7.950  0.3733  0.4060  0.0265
 1139ERGO    C216112  16.540  12.028   8.230 -0.0807 -0.0023 -0.3709
 1140ERGO   ROH16113   3.769  17.004   6.691 -0.1478  0.0441  0.0481
 1140ERGO    R116114   3.538  17.100   6.823 -0.1470  0.0896  0.0165
 1140ERGO    R216115   3.284  17.007   6.763 -0.1412  0.0262  0.0908
 1140ERGO    R316116   3.274  16.959   7.031 -0.1109  0.1735  0.1197
 1140ERGO    R416117   2.994  16.964   6.946 -0.1122 -0.2759  0.0713
 1140ERGO    R516118   3.083  17.082   7.106 -0.2998 -0.0488  0.0157
 1140ERGO    C116119   2.816  16.894   7.303 -0.0667 -0.3134  0.0871
 1140ERGO    C216120   2.679  16.767   7.459 -0.2310 -0.0296 -0.0253
 1141ERGO   ROH16121   9.912  17.307   6.511 -0.0432  0.3721  0.0783
 1141ERGO    R116122   9.955  17.409   6.772  0.0463  0.2039  0.1312
 1141ERGO    R216123   9.806  17.329   6.990  0.0611  0.1291  0.1145
 1141ERGO    R316124  10.050  17.275   7.096  0.0636 -0.0222  0.0342
 1141ERGO    R416125   9.879  17.335   7.327  0.2438  0.3715  0.0731
 1141ERGO    R516126  10.070  17.429   7.279  0.3183  0.1316 -0.1176
 1141ERGO    C116127  10.151  17.288   7.624  0.3525  0.3704 -0.0264
 1141ERGO    C216128  10.001  17.231   7.976  0.1284  0.0044  0.1802
 1142ERGO   ROH16129   3.143  12.133   6.425 -0.1060 -0.2289 -0.0070
 1142ERGO    R116130   3.130  12.012   6.681 -0.1593 -0.0827  0.0609
 1142ERGO    R216131   3.354  11.971   6.838 -0.1703 -0.1336  0.0639
 1142ERGO    R316132   3.208  12.107   7.023 -0.0730  0.0568  0.0030
 1142ERGO    R416133   3.436  11.999   7.172 -0.1832 -0.0965  0.0639
 1142ERGO    R516134   3.225  11.974   7.221 -0.2127  0.1055  0.0493
 1142ERGO    C116135   3.348  12.142   7.541 -0.0993  0.1038  0.0069
 1142ERGO    C216136   3.489  12.277   7.838  0.0086  0.1151 -0.0466
 1143ERGO   ROH16137   8.262   1.955   6.558  0.2401 -0.1497 -0.0062
 1143ERGO    R116138   8.237   1.851   6.820  0.0530 -0.0494  0.0191
 1143ERGO    R216139   8.456   1.795   6.978 -0.0464 -0.2535  0.0944
 1143ERGO    R316140   8.328   1.957   7.156  0.0864 -0.0539  0.0105
 1143ERGO    R416141   8.540   1.826   7.312 -0.1332 -0.2795  0.1180
 1143ERGO    R516142   8.327   1.831   7.360 -0.1455 -0.0051  0.0389
 1143ERGO    C116143   8.468   1.996   7.673 -0.0591 -0.1073  0.0529
 1143ERGO    C216144   8.427   2.004   8.010  0.2695  0.2323 -0.2438
 1144ERGO   ROH16145   7.076   7.135   6.816  0.0774 -0.0589 -0.1764
 1144ERGO    R116146   7.234   7.220   7.034  0.1712 -0.0881 -0.2341
 1144ERGO    R216147   7.132   7.252   7.289  0.2415  0.0481 -0.2289
 1144ERGO    R316148   7.335   7.085   7.357  0.1579 -0.0499 -0.2118
 1144ERGO    R416149   7.270   7.227   7.605  0.3415  0.1494 -0.2630
 1144ERGO    R516150   7.467   7.211   7.512  0.3020 -0.0367 -0.3349
 1144ERGO    C116151   7.542   7.056   7.852  0.3211  0.1163 -0.2668
 1144ERGO    C216152   7.613   6.836   8.126  0.0599  0.0980  0.0510
 1145ERGO   ROH16153  12.327   4.539   6.575 -0.0458  0.1396 -0.0128
 1145ERGO    R116154  12.380   4.674   6.818 -0.0484  0.0914  0.0151
 1145ERGO    R216155  12.224   4.641   7.044 -0.1347  0.1531 -0.0331
 1145ERGO    R316156  12.462   4.581   7.160 -0.2006  0.0182  0.0323
 1145ERGO    R416157  12.263   4.540   7.372 -0.2925  0.0158 -0.0557
 1145ERGO    R516158  12.442   4.665   7.384 -0.2489 -0.0577  0.0559
 1145ERGO    C116159  12.510   4.424   7.672 -0.4460 -0.1908 -0.0074
 1145ERGO    C216160  12.700   4.188   7.864  0.1363  0.1613 -0.2534
 1146ERGO   ROH16161   2.284  12.640  10.054  0.0388 -0.0010 -0.1214
 1146ERGO    R116162   2.111  12.679   9.833 -0.1123 -0.1599 -0.0334
 1146ERGO    R216163   2.197  12.787   9.594 -0.3559  0.0229 -0.0416
 1146ERGO    R316164   2.088  12.560   9.490 -0.1100 -0.0904 -0.0580
 1146ERGO    R416165   2.084  12.752   9.269 -0.3307 -0.0707 -0.0406
 1146ERGO    R516166   1.915  12.638   9.345 -0.2040 -0.2670 -0.0439
 1146ERGO    C116167   1.917  12.519   8.983 -0.0850 -0.2315 -0.0554
 1146ERGO    C216168   2.022  12.561   8.763  0.0008  0.0192 -0.2612
 1147ERGO   ROH16169  12.492   7.211  10.201  0.3514 -0.0697 -0.1935
 1147ERGO    R116170  12.512   7.152   9.925 -0.0222 -0.2316 -0.1919
 1147ERGO    R216171  12.322   7.003   9.789 -0.4460  0.0750  0.0500
 1147ERGO    R316172  12.317   7.220   9.625 -0.1796  0.0192 -0.0378
 1147ERGO    R416173  12.295   6.990   9.445 -0.0218 -0.0479  0.0149
 1147ERGO    R516174  12.441   7.152   9.432  0.0461 -0.0917  0.1367
 1147ERGO    C116175  12.274   7.186   9.090  0.4753 -0.1718 -0.0880
 1147ERGO    C216176  12.317   7.056   8.799 -0.1045  0.2001  0.1269
 1148ERGO   ROH16177  16.168   1.772   7.010  0.1392 -0.0769  0.0016
 1148ERGO    R116178  16.218   1.790   7.288  0.0739 -0.1015  0.0150
 1148ERGO    R216179  16.318   1.579   7.436  0.2246 -0.0535 -0.0175
 1148ERGO    R316180  16.506   1.761   7.508  0.0601  0.0878  0.0600
 1148ERGO    R416181  16.406   1.655   7.761  0.0889 -0.0454  0.0177
 1148ERGO    R516182  16.418   1.865   7.704 -0.0699 -0.0231  0.0616
 1148ERGO    C116183  16.634   1.871   8.018 -0.1442  0.0921  0.1109
 1148ERGO    C216184  16.660   2.054   8.335 -0.4318 -0.1283  0.1035
 1149ERGO   ROH16185   8.216   5.560   6.676 -0.1464 -0.0457 -0.2038
 1149ERGO    R116186   8.155   5.566   6.952 -0.2111 -0.2609 -0.2128
 1149ERGO    R216187   8.118   5.802   7.092  0.3277 -0.3427  0.0838
 1149ERGO    R316188   7.881   5.687   7.160  0.0132  0.1406 -0.1381
 1149ERGO    R416189   7.975   5.815   7.406  0.3255 -0.4629  0.0892
 1149ERGO    R516190   7.916   5.607   7.383 -0.2055 -0.3005 -0.2467
 1149ERGO    C116191   7.669   5.715   7.653  0.0291 -0.0791 -0.1159
 1149ERGO    C216192   7.447   5.706   7.938 -0.0310 -0.0955 -0.2164
 1150ERGO   ROH16193  16.621  17.574  10.626  0.0117 -0.0883  0.0913
 1150ERGO    R116194  16.750  17.673  10.394  0.0929 -0.0669  0.1448
 1150ERGO    R216195  16.920  17.519  10.242  0.0375 -0.0969  0.1105
 1150ERGO    R316196  16.754  17.594  10.039  0.0995  0.0605  0.1166
 1150ERGO    R416197  16.971  17.445   9.908 -0.1017 -0.2341  0.1182
 1150ERGO    R516198  16.902  17.646   9.858  0.1380 -0.1609  0.0833
 1150ERGO    C116199  16.846  17.472   9.523 -0.1245 -0.1662  0.1284
 1150ERGO    C216200  16.873  17.452   9.156 -0.4361 -0.0262  0.2187
 1151ERGO   ROH16201  15.604   4.672   6.985  0.0049 -0.0460  0.0186
 1151ERGO    R116202  15.528   4.498   7.195 -0.1494  0.0527  0.0463
 1151ERGO    R216203  15.703   4.419   7.394 -0.1922 -0.1358  0.0121
 1151ERGO    R316204  15.507   4.514   7.558 -0.0499  0.1004  0.0503
 1151ERGO    R416205  15.707   4.397   7.739 -0.3178 -0.4787 -0.0050
 1151ERGO    R516206  15.493   4.351   7.733 -0.4171 -0.0499 -0.1077
 1151ERGO    C116207  15.525   4.473   8.094 -0.2573 -0.4568  0.0210
 1151ERGO    C216208  15.632   4.468   8.383  0.2337 -0.0860 -0.2485
 1152ERGO   ROH16209   6.794  13.273   6.478  0.0934 -0.2682  0.2338
 1152ERGO    R116210   6.811  13.482   6.669  0.0729 -0.1998  0.1608
 1152ERGO    R216211   6.591  13.628   6.750  0.0809 -0.1114  0.0173
 1152ERGO    R316212   6.671  13.552   6.998 -0.0383 -0.0351  0.0809
 1152ERGO    R416213   6.449  13.736   7.046  0.1032  0.1903 -0.0781
 1152ERGO    R516214   6.648  13.749   7.131  0.1000  0.0692 -0.0426
 1152ERGO    C116215   6.442  13.727   7.451  0.0043  0.4375 -0.0741
 1152ERGO    C216216   6.176  13.840   7.643  0.0386 -0.3821 -0.0642
 1153ERGO   ROH16217   8.062  10.697   6.370 -0.0166  0.1123  0.0275
 1153ERGO    R116218   8.104  10.527   6.593 -0.1166 -0.0065 -0.0422
 1153ERGO    R216219   8.076  10.615   6.853 -0.0253 -0.0857 -0.0039
 1153ERGO    R316220   7.906  10.404   6.872 -0.1799  0.0300 -0.0703
 1153ERGO    R416221   7.980  10.465   7.149  0.0566 -0.2546 -0.0620
 1153ERGO    R516222   7.995  10.271   7.050 -0.1604 -0.1896 -0.2373
 1153ERGO    C116223   7.764  10.179   7.339 -0.0409 -0.2443 -0.1580
 1153ERGO    C216224   7.753  10.230   7.697  0.0699  0.1310 -0.1569
 1154ERGO   ROH16225  13.833  15.436   6.787 -0.1670  0.3060 -0.0131
 1154ERGO    R116226  13.823  15.331   7.050 -0.0535  0.2177 -0.0437
 1154ERGO    R216227  13.843  15.490   7.275 -0.2165  0.1740 -0.0016
 1154ERGO    R316228  13.609  15.370   7.341 -0.0918 -0.0920 -0.0251
 1154ERGO    R416229  13.714  15.474   7.595 -0.3864  0.3394 -0.0598
 1154ERGO    R516230  13.652  15.269   7.554 -0.0699  0.1964  0.1164
 1154ERGO    C116231  13.418  15.353   7.844 -0.3684  0.1860 -0.1157
 1154ERGO    C216232  13.260  15.519   8.162  0.2390  0.0511  0.4553
 1155ERGO   ROH16233  14.881  15.520   6.727  0.1011 -0.0141 -0.0730
 1155ERGO    R116234  14.820  15.440   6.991 -0.0260  0.0243 -0.0909
 1155ERGO    R216235  15.015  15.397   7.183 -0.1161 -0.0290 -0.0185
 1155ERGO    R316236  14.867  15.574   7.326 -0.1082  0.0277 -0.0787
 1155ERGO    R416237  14.918  15.354   7.512  0.0070  0.1380  0.0420
 1155ERGO    R516238  14.724  15.438   7.460 -0.0349  0.0672  0.0512
 1155ERGO    C116239  14.722  15.495   7.837  0.0861  0.2884  0.0208
 1155ERGO    C216240  14.586  15.440   8.149  0.0127  0.1162 -0.0016
 1156ERGO   ROH16241   4.100   9.825   6.351  0.0391  0.1353 -0.0775
 1156ERGO    R116242   4.119   9.868   6.630  0.0649 -0.0167 -0.0577
 1156ERGO    R216243   3.947  10.036   6.767  0.2094  0.0498  0.0281
 1156ERGO    R316244   3.906   9.816   6.920  0.0259  0.0250 -0.0842
 1156ERGO    R416245   3.806  10.037   7.083 -0.0040 -0.0209 -0.0640
 1156ERGO    R516246   3.952   9.888   7.143 -0.1092 -0.0825 -0.0282
 1156ERGO    C116247   3.685   9.831   7.410 -0.3005 -0.0854 -0.2231
 1156ERGO    C216248   3.513   9.743   7.742  0.0893 -0.1195  0.0449
 1157ERGO   ROH16249   0.493   0.539   7.083 -0.1562 -0.0336  0.1618
 1157ERGO    R116250   0.436   0.303   7.229 -0.1325 -0.0870  0.0882
 1157ERGO    R216251   0.560   0.242   7.469 -0.1049 -0.1656  0.0615
 1157ERGO    R316252   0.305   0.222   7.559 -0.0962 -0.1999  0.0735
 1157ERGO    R416253   0.449   0.011   7.700 -0.0093  0.0050  0.2805
 1157ERGO    R516254   0.268  -0.013   7.582  0.0088 -0.1920  0.2997
 1157ERGO    C116255   0.144  -0.143   7.918  0.0545  0.0720  0.4192
 1157ERGO    C216256  -0.172  -0.094   8.152 -0.0296  0.0930  0.2739
 1158ERGO   ROH16257  15.922   0.213  10.204 -0.3962 -0.3026  0.0232
 1158ERGO    R116258  15.953   0.266   9.927 -0.1680 -0.2511  0.0556
 1158ERGO    R216259  16.060   0.081   9.752 -0.0793 -0.2445  0.0950
 1158ERGO    R316260  15.828   0.125   9.616  0.0337 -0.1534 -0.0697
 1158ERGO    R416261  16.027   0.066   9.408  0.1400 -0.2713  0.0745
 1158ERGO    R516262  15.897   0.241   9.418  0.2174 -0.2127 -0.0381
 1158ERGO    C116263  15.791   0.099   9.080  0.3737 -0.2014 -0.0919
 1158ERGO    C216264  15.631   0.176   8.712 -0.1959 -0.3146 -0.1183
 1159ERGO   ROH16265   6.485  11.144   6.535 -0.0260 -0.4232 -0.0010
 1159ERGO    R116266   6.423  11.033   6.788  0.1098 -0.3130  0.0818
 1159ERGO    R216267   6.584  11.070   7.010  0.1244 -0.0456  0.0290
 1159ERGO    R316268   6.353  11.160   7.122  0.0743 -0.1565  0.0161
 1159ERGO    R416269   6.539  11.136   7.347  0.0250 -0.2329  0.0535
 1159ERGO    R516270   6.340  11.047   7.333  0.0464 -0.2720 -0.0450
 1159ERGO    C116271   6.297  11.258   7.648 -0.0800 -0.4462  0.0557
 1159ERGO    C216272   6.140  11.461   7.950  0.1648  0.0076  0.0803
 1160ERGO   ROH16273   8.926   1.238   6.479  0.1672  0.0271 -0.0129
 1160ERGO    R116274   8.797   1.095   6.687  0.0574  0.0907 -0.0364
 1160ERGO    R216275   8.927   0.903   6.838 -0.0595  0.0433  0.0033
 1160ERGO    R316276   8.841   1.055   7.046 -0.0451  0.0886 -0.0236
 1160ERGO    R416277   8.828   0.780   7.146 -0.1158  0.1014  0.0086
 1160ERGO    R516278   8.666   0.926   7.147 -0.0841  0.1387 -0.0247
 1160ERGO    C116279   8.690   0.851   7.520 -0.1352  0.1778 -0.0135
 1160ERGO    C216280   8.763   0.581   7.735  0.0343 -0.2133  0.0036
 1161ERGO   ROH16281   4.048  12.388  10.069  0.1433  0.1016  0.0322
 1161ERGO    R116282   3.910  12.402   9.822 -0.0015 -0.0185  0.1051
 1161ERGO    R216283   4.014  12.530   9.601 -0.2043  0.0184  0.0301
 1161ERGO    R316284   3.969  12.291   9.480 -0.1185 -0.0268  0.0872
 1161ERGO    R416285   4.022  12.476   9.259 -0.1586 -0.0645  0.0441
 1161ERGO    R516286   3.848  12.346   9.281 -0.1198 -0.1146  0.0628
 1161ERGO    C116287   3.984  12.220   8.948 -0.0514 -0.1551  0.1060
 1161ERGO    C216288   4.007  12.153   8.585 -0.2192 -0.1416 -0.1511
 1162ERGO   ROH16289  10.817  17.682   6.722  0.1235  0.2571 -0.0312
 1162ERGO    R116290  10.865  17.571   6.978  0.0603  0.1632 -0.0596
 1162ERGO    R216291  11.092  17.426   7.037  0.0215  0.0978 -0.0710
 1162ERGO    R316292  11.117  17.606   7.239  0.0263  0.0269 -0.0075
 1162ERGO    R416293  11.212  17.354   7.353 -0.1401 -0.0524 -0.0424
 1162ERGO    R516294  11.058  17.484   7.436 -0.1119 -0.0034 -0.0669
 1162ERGO    C116295  11.304  17.482   7.727 -0.2299 -0.2063  0.0339
 1162ERGO    C216296  11.445  17.466   7.996  0.0956  0.0008  0.0397
 1163ERGO   ROH16297   8.748   8.852   6.423 -0.2391  0.0223 -0.1834
 1163ERGO    R116298   8.629   8.952   6.660 -0.1056  0.0535 -0.1290
 1163ERGO    R216299   8.620   8.806   6.894 -0.0057  0.0701 -0.1144
 1163ERGO    R316300   8.739   9.027   6.998  0.0771  0.0610 -0.1887
 1163ERGO    R416301   8.670   8.864   7.231  0.1033  0.1194 -0.1386
 1163ERGO    R516302   8.616   9.072   7.199  0.1440  0.1269 -0.1616
 1163ERGO    C116303   8.811   9.105   7.525  0.2445  0.1395 -0.2224
 1163ERGO    C216304   8.842   9.419   7.773  0.2112 -0.1712 -0.1368
 1164ERGO   ROH16305   3.905   2.055   6.691 -0.2873 -0.0421 -0.0054
 1164ERGO    R116306   3.848   1.930   6.939 -0.0907  0.0317  0.0784
 1164ERGO    R216307   3.893   1.661   6.984 -0.1600  0.0214  0.0856
 1164ERGO    R316308   4.037   1.753   7.195  0.0948  0.0030 -0.0758
 1164ERGO    R416309   3.936   1.491   7.282 -0.0781  0.1367  0.1402
 1164ERGO    R516310   3.913   1.681   7.387  0.1792  0.2157  0.0625
 1164ERGO    C116311   4.096   1.479   7.654  0.2087  0.1866  0.0203
 1164ERGO    C216312   4.214   1.457   7.847  0.2379  0.1653 -0.2187
 1165ERGO   ROH16313  14.857   1.253   6.948  0.2245  0.2204 -0.0340
 1165ERGO    R116314  14.829   1.163   7.215 -0.0356  0.1465 -0.0833
 1165ERGO    R216315  14.993   1.250   7.419  0.0230 -0.2069  0.0276
 1165ERGO    R316316  14.757   1.314   7.538  0.0695  0.1243 -0.0498
 1165ERGO    R416317  14.963   1.390   7.733  0.1176 -0.0521 -0.0316
 1165ERGO    R516318  14.791   1.261   7.769 -0.0503  0.1680 -0.0222
 1165ERGO    C116319  14.724   1.533   8.028  0.2163  0.3491 -0.1387
 1165ERGO    C216320  14.814   1.761   8.234  0.2498  0.1132 -0.2534
 1166ERGO   ROH16321   3.562   4.939   6.709 -0.0126  0.0867  0.1060
 1166ERGO    R116322   3.635   4.984   6.979  0.1230  0.0038  0.0851
 1166ERGO    R216323   3.465   4.930   7.191  0.1455  0.1396  0.1446
 1166ERGO    R316324   3.675   4.782   7.279  0.0472 -0.0557  0.0543
 1166ERGO    R416325   3.561   4.900   7.521  0.3056  0.1073  0.0949
 1166ERGO    R516326   3.769   4.911   7.457  0.2808 -0.1161 -0.0242
 1166ERGO    C116327   3.814   4.744   7.796  0.3067 -0.0949 -0.0188
 1166ERGO    C216328   3.868   4.680   8.080  0.0125 -0.0236  0.0960
 1167ERGO   ROH16329   1.934   1.810   6.586 -0.4218  0.0449 -0.0773
 1167ERGO    R116330   1.958   1.848   6.865 -0.3906  0.1054 -0.0878
 1167ERGO    R216331   2.194   1.803   7.002 -0.4471 -0.1339 -0.0624
 1167ERGO    R316332   2.156   2.058   7.088 -0.1485 -0.0566 -0.1471
 1167ERGO    R416333   2.301   1.927   7.306 -0.3528 -0.1687 -0.0810
 1167ERGO    R516334   2.113   2.036   7.322 -0.2221  0.0699 -0.1493
 1167ERGO    C116335   2.327   2.238   7.564 -0.0177 -0.1164 -0.1714
 1167ERGO    C216336   2.565   2.258   7.739 -0.0009  0.1457  0.2034
 1168ERGO   ROH16337  16.292  15.715   6.794 -0.0068  0.1884 -0.1358
 1168ERGO    R116338  16.346  15.906   6.996 -0.1747  0.0466  0.0470
 1168ERGO    R216339  16.224  15.900   7.244 -0.0679 -0.3799  0.0963
 1168ERGO    R316340  16.480  15.902   7.334 -0.0305 -0.1433 -0.0106
 1168ERGO    R416341  16.333  16.065   7.527 -0.1040 -0.2875  0.0564
 1168ERGO    R516342  16.512  16.124   7.418 -0.2025 -0.1151 -0.0165
 1168ERGO    C116343  16.637  16.164   7.776 -0.0898 -0.0117 -0.0671
 1168ERGO    C216344  16.751  16.153   8.046 -0.3375  0.0932 -0.1487
 1169ERGO   ROH16345   8.553   2.967   6.297 -0.0474 -0.2369  0.0193
 1169ERGO    R116346   8.400   3.002   6.533  0.0155 -0.1280  0.0436
 1169ERGO    R216347   8.375   2.806   6.725  0.0385 -0.0494  0.1220
 1169ERGO    R316348   8.462   3.002   6.891  0.1016  0.0018  0.0307
 1169ERGO    R416349   8.368   2.791   7.070 -0.0060  0.1224  0.1302
 1169ERGO    R516350   8.307   3.000   7.074  0.0764  0.1540  0.0174
 1169ERGO    C116351   8.447   2.966   7.427  0.0272  0.2703  0.0492
 1169ERGO    C216352   8.547   2.933   7.728 -0.1951 -0.2211  0.0855
 1170ERGO   ROH16353  10.575   6.370   6.836 -0.1589  0.1552  0.1062
 1170ERGO    R116354  10.421   6.335   7.071 -0.1319  0.0116  0.1031
 1170ERGO    R216355  10.415   6.097   7.210  0.0927  0.0069  0.1058
 1170ERGO    R316356  10.486   6.255   7.420 -0.0634  0.0784  0.1066
 1170ERGO    R416357  10.371   6.014   7.543  0.2718 -0.0891  0.1070
 1170ERGO    R516358  10.312   6.221   7.581  0.0122 -0.1654  0.1418
 1170ERGO    C116359  10.412   6.114   7.933  0.2295 -0.0780  0.1083
 1170ERGO    C216360  10.472   6.161   8.316 -0.0526 -0.1466 -0.1236
 1171ERGO   ROH16361   4.385   7.366   6.901  0.0134  0.1069  0.0727
 1171ERGO    R116362   4.247   7.377   7.148  0.0351  0.0619  0.0859
 1171ERGO    R216363   4.255   7.171   7.332  0.1308  0.0727  0.0875
 1171ERGO    R316364   4.335   7.368   7.501  0.0717  0.1048  0.0793
 1171ERGO    R416365   4.171   7.191   7.667  0.2374 -0.0245  0.1217
 1171ERGO    R516366   4.146   7.406   7.642  0.0939 -0.0316  0.1536
 1171ERGO    C116367   4.197   7.389   8.019  0.2440 -0.0510  0.1338
 1171ERGO    C216368   4.347   7.336   8.348 -0.2559  0.0732 -0.0248
 1172ERGO   ROH16369  15.523  13.102   6.951  0.1273 -0.1312 -0.2056
 1172ERGO    R116370  15.632  13.046   7.206  0.0140 -0.0072 -0.1294
 1172ERGO    R216371  15.521  13.144   7.440 -0.2122 -0.0653 -0.2127
 1172ERGO    R316372  15.521  12.881   7.511 -0.0416 -0.0569 -0.1755
 1172ERGO    R416373  15.518  13.028   7.765 -0.1323 -0.0172 -0.1941
 1172ERGO    R516374  15.660  12.873   7.706 -0.0307  0.0634 -0.1748
 1172ERGO    C116375  15.516  12.714   8.022  0.0745  0.0185 -0.1484
 1172ERGO    C216376  15.436  12.686   8.338  0.0527  0.0489 -0.2351
 1173ERGO   ROH16377  10.438  14.380   8.131  0.0269  0.0103 -0.0114
 1173ERGO    R116378  10.155  14.390   8.126  0.0305  0.1021 -0.1057
 1173ERGO    R216379  10.007  14.318   7.905  0.0715 -0.0322 -0.0954
 1173ERGO    R316380   9.882  14.154   8.082 -0.0318  0.1544  0.0063
 1173ERGO    R416381   9.682  14.205   7.874  0.1338 -0.1768 -0.2344
 1173ERGO    R516382   9.657  14.234   8.089 -0.0643  0.0903 -0.2934
 1173ERGO    C116383   9.375  13.986   8.023  0.0731 -0.0860 -0.2197
 1173ERGO    C216384   9.104  13.765   7.972  0.0867 -0.2159 -0.1790
 1174ERGO   ROH16385  13.419   7.690   6.378  0.2407 -0.0914 -0.0092
 1174ERGO    R116386  13.434   7.653   6.658  0.0346  0.1443  0.0330
 1174ERGO    R216387  13.670   7.597   6.789 -0.1422 -0.2039  0.1893
 1174ERGO    R316388  13.602   7.814   6.938  0.2228  0.0737 -0.0350
 1174ERGO    R416389  13.773   7.652   7.114 -0.4698 -0.3499  0.3240
 1174ERGO    R516390  13.573   7.727   7.159 -0.3632  0.2404 -0.0215
 1174ERGO    C116391  13.770   7.888   7.444 -0.3180 -0.1743  0.1917
 1174ERGO    C216392  14.000   7.691   7.725  0.2497  0.2330  0.0025
 1175ERGO   ROH16393  14.278   5.128   6.823  0.3025 -0.0586  0.0192
 1175ERGO    R116394  14.269   5.322   7.029  0.3218 -0.0832  0.0427
 1175ERGO    R216395  14.040   5.376   7.172  0.2420  0.1399 -0.1634
 1175ERGO    R316396  14.200   5.326   7.386 -0.0083 -0.0716 -0.0172
 1175ERGO    R416397  13.978   5.484   7.495  0.1199  0.2660 -0.2278
 1175ERGO    R516398  14.191   5.528   7.515  0.1723 -0.0389 -0.0508
 1175ERGO    C116399  14.092   5.501   7.883 -0.1860  0.1410 -0.1281
 1175ERGO    C216400  13.890   5.654   8.165 -0.2162  0.1839  0.3823
 1176ERGO   ROH16401  14.960   1.547  10.756 -0.0941 -0.1382  0.0690
 1176ERGO    R116402  14.842   1.523  10.500  0.0610 -0.0705 -0.0114
 1176ERGO    R216403  14.833   1.733  10.321  0.0849  0.0087  0.0732
 1176ERGO    R316404  14.951   1.553  10.155  0.2510  0.1255  0.0641
 1176ERGO    R416405  14.804   1.733   9.976  0.0839 -0.0073  0.0739
 1176ERGO    R516406  14.789   1.516   9.982  0.2867 -0.0195  0.0644
 1176ERGO    C116407  14.898   1.564   9.620  0.2392  0.0932  0.0659
 1176ERGO    C216408  14.829   1.552   9.228 -0.1892  0.0800 -0.0331
 1177ERGO   ROH16409   0.524  13.990   6.728  0.1404 -0.1419  0.1469
 1177ERGO    R116410   0.597  14.127   6.964  0.0906 -0.0941  0.1360
 1177ERGO    R216411   0.719  14.001   7.179  0.2082 -0.0182  0.1216
 1177ERGO    R316412   0.905  14.196   7.145  0.0768  0.1003  0.0840
 1177ERGO    R416413   0.879  14.169   7.434  0.1794  0.0710  0.0801
 1177ERGO    R516414   0.861  14.353   7.320  0.0338  0.0620  0.1007
 1177ERGO    C116415   1.147  14.451   7.552  0.0393  0.2344  0.0206
 1177ERGO    C216416   1.397  14.561   7.772  0.1397  0.0526  0.1608
 1178ERGO   ROH16417   8.435  14.350   9.659  0.4092  0.2170  0.0499
 1178ERGO    R116418   8.535  14.378   9.396  0.3722 -0.1800 -0.0143
 1178ERGO    R216419   8.522  14.175   9.209 -0.2248 -0.2689  0.0959
 1178ERGO    R316420   8.398  14.365   9.059  0.1786 -0.0267  0.0579
 1178ERGO    R416421   8.481  14.161   8.866 -0.3241 -0.2801  0.1088
 1178ERGO    R516422   8.526  14.374   8.856  0.1628 -0.3807  0.0319
 1178ERGO    C116423   8.341  14.331   8.525 -0.0033 -0.0591  0.0806
 1178ERGO    C216424   8.344  14.224   8.241  0.0613  0.0173 -0.1437
 1179ERGO   ROH16425  17.449   8.019   6.247  0.1409 -0.1493 -0.0694
 1179ERGO    R116426  17.613   7.982   6.475  0.0295 -0.1243  0.0152
 1179ERGO    R216427  17.660   8.184   6.658  0.2494  0.0174 -0.1919
 1179ERGO    R316428  17.571   7.998   6.836 -0.0526  0.3262 -0.0084
 1179ERGO    R416429  17.778   8.147   6.980  0.4480 -0.0813 -0.2742
 1179ERGO    R516430  17.768   7.931   6.954 -0.1007 -0.0847 -0.1460
 1179ERGO    C116431  17.764   7.952   7.335  0.2803  0.1513 -0.1498
 1179ERGO    C216432  17.804   7.749   7.674  0.2796 -0.3093  0.2970
 1180ERGO   ROH16433  12.583   8.562  10.283  0.2570 -0.4518  0.1097
 1180ERGO    R116434  12.717   8.481  10.048  0.0799 -0.4282 -0.0017
 1180ERGO    R216435  12.604   8.306   9.865 -0.1983 -0.1480 -0.1118
 1180ERGO    R316436  12.660   8.505   9.689 -0.0138 -0.0671  0.0350
 1180ERGO    R416437  12.607   8.271   9.522 -0.0633  0.0694 -0.1348
 1180ERGO    R516438  12.784   8.398   9.515  0.0057 -0.0206  0.0231
 1180ERGO    C116439  12.660   8.437   9.156  0.1885  0.2719 -0.0104
 1180ERGO    C216440  12.654   8.471   8.797  0.0863 -0.2453 -0.2586
 1181ERGO   ROH16441   4.509   5.690   8.477 -0.0737 -0.0648  0.1095
 1181ERGO    R116442   4.641   5.457   8.387  0.0608 -0.0453  0.2477
 1181ERGO    R216443   4.730   5.259   8.559 -0.2729 -0.1331  0.3337
 1181ERGO    R316444   4.581   5.098   8.398 -0.0151 -0.0416 -0.0054
 1181ERGO    R416445   4.805   4.930   8.482 -0.0015 -0.0017  0.0183
 1181ERGO    R516446   4.741   4.968   8.278  0.1817  0.1952 -0.0012
 1181ERGO    C116447   4.708   4.588   8.285  0.3985  0.1606 -0.4837
 1181ERGO    C216448   4.832   4.244   8.430 -0.0157  0.0131 -0.1235
 1182ERGO   ROH16449  11.008  17.599  10.202 -0.0593 -0.1512  0.0086
 1182ERGO    R116450  10.929  17.766   9.987 -0.1787 -0.0682  0.1163
 1182ERGO    R216451  11.003  17.717   9.726 -0.0892  0.1889  0.0944
 1182ERGO    R316452  10.735  17.729   9.682 -0.0954 -0.0263  0.0567
 1182ERGO    R416453  10.855  17.747   9.415 -0.0633  0.0656  0.0690
 1182ERGO    R516454  10.711  17.886   9.502 -0.1906 -0.0442  0.0490
 1182ERGO    C116455  10.517  17.776   9.193 -0.0541 -0.2084  0.0189
 1182ERGO    C216456  10.354  17.616   8.969  0.0568  0.0236  0.0219
 1183ERGO   ROH16457  15.095  10.044   6.519  0.0821 -0.2149 -0.1019
 1183ERGO    R116458  15.136   9.903   6.761  0.1133 -0.0529 -0.0110
 1183ERGO    R216459  15.140  10.028   7.007 -0.0270  0.0902 -0.0787
 1183ERGO    R316460  14.950   9.844   7.068  0.0747  0.0018 -0.0239
 1183ERGO    R416461  15.068   9.916   7.326 -0.0362  0.2226 -0.0338
 1183ERGO    R516462  15.046   9.715   7.245  0.1124  0.1619  0.0733
 1183ERGO    C116463  14.847   9.678   7.569  0.0538  0.2166  0.0438
 1183ERGO    C216464  14.831   9.705   7.849 -0.0142 -0.1464 -0.0898
 1184ERGO   ROH16465  10.755  15.147   6.371  0.1002 -0.0436 -0.0183
 1184ERGO    R116466  10.742  14.986   6.603  0.0335 -0.0670 -0.0357
 1184ERGO    R216467  10.781  15.088   6.857  0.3831 -0.1626 -0.0350
 1184ERGO    R316468  10.539  14.974   6.906  0.2373  0.1976  0.1121
 1184ERGO    R416469  10.685  14.950   7.159  0.3894 -0.1359 -0.0222
 1184ERGO    R516470  10.589  14.788   7.049  0.0480  0.0627 -0.0064
 1184ERGO    C116471  10.403  14.763   7.381  0.2562  0.2176  0.1232
 1184ERGO    C216472  10.377  14.675   7.753 -0.3704  0.2222 -0.1275
 1185ERGO   ROH16473   2.872   0.657   6.228 -0.0916  0.0155 -0.0759
 1185ERGO    R116474   2.883   0.750   6.495 -0.1124 -0.1018 -0.0334
 1185ERGO    R216475   2.916   0.580   6.711  0.1032 -0.1765 -0.1221
 1185ERGO    R316476   3.125   0.745   6.767 -0.0369 -0.0046 -0.0983
 1185ERGO    R416477   3.073   0.603   7.018  0.0677 -0.0668 -0.1118
 1185ERGO    R516478   3.084   0.819   6.991 -0.1116 -0.0546 -0.0953
 1185ERGO    C116479   3.360   0.771   7.250 -0.0844  0.1584 -0.0835
 1185ERGO    C216480   3.631   0.613   7.255  0.1033 -0.1003  0.2271
 1186ERGO   ROH16481   8.979  17.014   6.726  0.0286  0.0110  0.0342
 1186ERGO    R116482   8.826  16.957   6.958  0.1209 -0.0951  0.0691
 1186ERGO    R216483   8.941  16.882   7.197  0.2393  0.1432  0.0863
 1186ERGO    R316484   8.796  17.091   7.295 -0.0200 -0.0014  0.0211
 1186ERGO    R416485   8.858  16.926   7.530  0.4996  0.3212  0.1318
 1186ERGO    R516486   8.660  16.993   7.466  0.3123 -0.0747  0.2558
 1186ERGO    C116487   8.673  17.147   7.815  0.4077  0.2890  0.0970
 1186ERGO    C216488   8.480  17.136   8.079  0.2448 -0.1408 -0.0341
 1187ERGO   ROH16489  10.926   7.370   6.602 -0.0213  0.1869  0.1651
 1187ERGO    R116490  10.970   7.311   6.875 -0.0370 -0.0900  0.1089
 1187ERGO    R216491  10.859   7.460   7.080  0.1904 -0.1182  0.2459
 1187ERGO    R316492  10.766   7.218   7.162 -0.0918 -0.0735  0.0779
 1187ERGO    R416493  10.745   7.388   7.398  0.1319 -0.2018  0.2083
 1187ERGO    R516494  10.845   7.196   7.386 -0.0918 -0.3231  0.0628
 1187ERGO    C116495  10.591   7.120   7.660 -0.1670 -0.2086  0.0286
 1187ERGO    C216496  10.288   7.157   7.832  0.0957  0.1171 -0.0890
 1188ERGO   ROH16497  11.908   5.498   6.626  0.0713  0.1082  0.1063
 1188ERGO    R116498  11.774   5.566   6.866 -0.0973 -0.0658  0.0648
 1188ERGO    R216499  11.682   5.376   7.044  0.2020 -0.1920  0.0977
 1188ERGO    R316500  11.829   5.519   7.223 -0.0741  0.1190  0.0851
 1188ERGO    R416501  11.670   5.336   7.387  0.4359 -0.3287  0.0916
 1188ERGO    R516502  11.681   5.552   7.408 -0.0886 -0.3000  0.1534
 1188ERGO    C116503  11.801   5.446   7.754  0.3129 -0.1164  0.0762
 1188ERGO    C216504  11.721   5.322   8.090 -0.0214  0.0551  0.1773
 1189ERGO   ROH16505   3.352  13.125   9.934  0.5050 -0.0209 -0.0531
 1189ERGO    R116506   3.177  13.050   9.725  0.3222  0.0848  0.0587
 1189ERGO    R216507   3.206  13.141   9.467  0.2189  0.0558  0.0305
 1189ERGO    R316508   3.203  12.876   9.407  0.0108  0.0541  0.0483
 1189ERGO    R416509   3.128  13.010   9.157  0.0554  0.0849  0.0598
 1189ERGO    R516510   3.017  12.851   9.258 -0.0369  0.1758  0.0923
 1189ERGO    C116511   3.079  12.684   8.920 -0.2351  0.1002  0.0935
 1189ERGO    C216512   3.024  12.698   8.569  0.0357  0.2565  0.1503
 1190ERGO   ROH16513   2.510  15.930   5.982 -0.1689 -0.0326 -0.0895
 1190ERGO    R116514   2.542  15.756   6.203 -0.1748 -0.1162 -0.1537
 1190ERGO    R216515   2.655  15.839   6.442  0.0552 -0.2726 -0.2039
 1190ERGO    R316516   2.424  15.742   6.547  0.0365 -0.0960 -0.0796
 1190ERGO    R416517   2.560  15.866   6.773  0.1759 -0.0674 -0.1843
 1190ERGO    R516518   2.485  15.662   6.764  0.0610 -0.0279 -0.0638
 1190ERGO    C116519   2.288  15.791   7.064  0.2286  0.2180 -0.0562
 1190ERGO    C216520   2.170  16.041   7.272  0.0448 -0.0387 -0.0186
 1191ERGO   ROH16521  10.825  13.315  10.047 -0.0199  0.1943  0.0007
 1191ERGO    R116522  10.861  13.202   9.790  0.0879  0.2362 -0.0034
 1191ERGO    R216523  10.655  13.183   9.605  0.0466 -0.1426  0.0717
 1191ERGO    R316524  10.831  13.315   9.445 -0.2402  0.1629 -0.0022
 1191ERGO    R416525  10.681  13.141   9.263  0.1510 -0.2990  0.0978
 1191ERGO    R516526  10.898  13.152   9.283  0.1360  0.2049  0.1019
 1191ERGO    C116527  10.861  13.241   8.914 -0.0576 -0.1032  0.0435
 1191ERGO    C216528  10.977  13.320   8.561 -0.2645  0.0349  0.1448
 1192ERGO   ROH16529   4.681  16.069   6.782  0.1132 -0.2111  0.1495
 1192ERGO    R116530   4.567  16.165   7.023 -0.0209 -0.1978  0.0812
 1192ERGO    R216531   4.403  16.011   7.182 -0.0526 -0.2122  0.0346
 1192ERGO    R316532   4.581  16.079   7.376 -0.1574 -0.1309  0.1037
 1192ERGO    R416533   4.332  16.018   7.520 -0.2353 -0.0676 -0.0048
 1192ERGO    R516534   4.450  16.201   7.536 -0.2435 -0.0620 -0.0183
 1192ERGO    C116535   4.458  16.086   7.899 -0.4402  0.0927  0.0371
 1192ERGO    C216536   4.459  16.010   8.243 -0.4850  0.0016  0.4412
 1193ERGO   ROH16537  17.316   9.461   6.545 -0.0943  0.0490  0.0021
 1193ERGO    R116538  17.434   9.516   6.796 -0.1159  0.2403 -0.0286
 1193ERGO    R216539  17.327   9.699   6.974 -0.4128  0.0176  0.0292
 1193ERGO    R316540  17.336   9.488   7.146  0.0437  0.0028 -0.0006
 1193ERGO    R416541  17.424   9.718   7.305 -0.4711  0.1823  0.0382
 1193ERGO    R516542  17.530   9.529   7.280 -0.0469  0.4130  0.0164
 1193ERGO    C116543  17.490   9.532   7.659 -0.0762  0.2643  0.0154
 1193ERGO    C216544  17.542   9.609   7.997  0.0201 -0.1682 -0.0303
 1194ERGO   ROH16545  15.245  17.323   8.668  0.1175 -0.1121  0.1797
 1194ERGO    R116546  14.974  17.381   8.727  0.1232 -0.0449  0.1414
 1194ERGO    R216547  14.818  17.545   8.567  0.1529 -0.1009  0.0547
 1194ERGO    R316548  14.652  17.329   8.565  0.1220 -0.0791  0.1540
 1194ERGO    R416549  14.494  17.545   8.447  0.1732 -0.1229 -0.0001
 1194ERGO    R516550  14.436  17.419   8.614  0.1265 -0.0167  0.0655
 1194ERGO    C116551  14.150  17.343   8.374  0.1561 -0.1152  0.0611
 1194ERGO    C216552  13.943  17.123   8.130  0.2424 -0.5816  0.0818
 1195ERGO   ROH16553  13.971   8.287   8.360 -0.0894  0.0042 -0.1729
 1195ERGO    R116554  14.220   8.385   8.268 -0.0147  0.0589  0.0804
 1195ERGO    R216555  14.268   8.444   8.002  0.2872 -0.0684  0.1026
 1195ERGO    R316556  14.342   8.686   8.102  0.0595  0.0197  0.0640
 1195ERGO    R416557  14.446   8.683   7.828  0.0939  0.0620  0.0808
 1195ERGO    R516558  14.559   8.724   8.009  0.0364  0.1997  0.0844
 1195ERGO    C116559  14.618   9.050   7.819 -0.2323  0.2208  0.0317
 1195ERGO    C216560  14.555   9.250   7.753 -0.2978 -0.2451 -0.1952
 1196ERGO   ROH16561  11.273   2.428   6.718 -0.0199  0.0655 -0.2130
 1196ERGO    R116562  11.268   2.631   6.915 -0.0049  0.0000 -0.1443
 1196ERGO    R216563  11.088   2.841   6.909 -0.0298 -0.0149 -0.0414
 1196ERGO    R316564  11.030   2.757   7.161  0.0266 -0.1078 -0.0592
 1196ERGO    R416565  10.948   3.038   7.156 -0.1623 -0.1668  0.0057
 1196ERGO    R516566  11.082   2.944   7.300 -0.1013 -0.1063 -0.0169
 1196ERGO    C116567  10.811   3.073   7.536 -0.1865 -0.3425  0.0164
 1196ERGO    C216568  10.655   3.198   7.792 -0.0610  0.1349  0.1591
 1197ERGO   ROH16569  16.761   2.175   7.136  0.0971 -0.2156 -0.1754
 1197ERGO    R116570  16.873   2.238   7.388  0.0130 -0.0618 -0.1753
 1197ERGO    R216571  16.867   2.062   7.601 -0.1508  0.1079 -0.0371
 1197ERGO    R316572  17.136   2.104   7.601 -0.1326 -0.0021  0.0458
 1197ERGO    R416573  17.059   2.109   7.884 -0.2657  0.3034  0.0102
 1197ERGO    R516574  17.171   2.263   7.777 -0.1523  0.1562 -0.0896
 1197ERGO    C116575  17.423   2.176   8.050 -0.3154  0.3140  0.1155
 1197ERGO    C216576  17.557   2.016   8.381  0.0598 -0.0302 -0.0151
 1198ERGO   ROH16577   7.898  12.989   6.199 -0.2326 -0.0677 -0.0523
 1198ERGO    R116578   7.920  13.040   6.477 -0.1284 -0.1354 -0.0458
 1198ERGO    R216579   7.720  13.165   6.621  0.0159  0.0380  0.0192
 1198ERGO    R316580   7.739  12.944   6.778 -0.1669 -0.0129 -0.0311
 1198ERGO    R416581   7.689  13.164   6.966  0.1864  0.0093  0.0335
 1198ERGO    R516582   7.853  13.020   6.975  0.0200 -0.1848 -0.0738
 1198ERGO    C116583   7.689  12.956   7.313  0.1141 -0.0554 -0.0053
 1198ERGO    C216584   7.663  12.980   7.660 -0.0791  0.1791  0.0017
 1199ERGO   ROH16585  15.054   3.267   6.693  0.0337 -0.1782  0.0120
 1199ERGO    R116586  14.954   3.278   6.958  0.0000 -0.2598  0.0046
 1199ERGO    R216587  15.111   3.217   7.178  0.0141 -0.1987  0.0206
 1199ERGO    R316588  15.032   3.464   7.261 -0.1282 -0.2483  0.0281
 1199ERGO    R416589  15.027   3.300   7.503  0.1795 -0.1914  0.0613
 1199ERGO    R516590  14.863   3.421   7.425  0.0288 -0.3448  0.1575
 1199ERGO    C116591  14.903   3.580   7.770  0.1423 -0.2338  0.0921
 1199ERGO    C216592  15.000   3.649   8.188 -0.1603  0.1075  0.2077
 1200ERGO   ROH16593  12.439  10.115   6.528 -0.1195 -0.1118  0.0144
 1200ERGO    R116594  12.688  10.092   6.660 -0.1046 -0.0808 -0.0075
 1200ERGO    R216595  12.716  10.124   6.933 -0.0695  0.0114 -0.0195
 1200ERGO    R316596  12.833   9.880   6.917 -0.0873 -0.0011  0.0482
 1200ERGO    R416597  12.919   9.987   7.177 -0.0098  0.0980 -0.0203
 1200ERGO    R516598  13.048   9.910   7.019 -0.0585  0.0272 -0.0238
 1200ERGO    C116599  13.147   9.677   7.304  0.0082  0.1368  0.0429
 1200ERGO    C216600  13.398   9.542   7.466 -0.1737  0.2246 -0.1451
 1201ERGO   ROH16601  12.957   2.294  10.485  0.1029 -0.2721 -0.0091
 1201ERGO    R116602  12.982   2.414  10.230  0.0334 -0.2270  0.0049
 1201ERGO    R216603  13.169   2.330  10.043  0.1247 -0.0582  0.0162
 1201ERGO    R316604  12.950   2.308   9.883  0.1587 -0.2227 -0.0081
 1201ERGO    R416605  13.169   2.369   9.700  0.1442 -0.1354  0.0075
 1201ERGO    R516606  12.981   2.475   9.716  0.0801 -0.2433 -0.0418
 1201ERGO    C116607  12.965   2.369   9.350  0.1874 -0.3348 -0.0203
 1201ERGO    C216608  12.961   2.457   8.981  0.1498 -0.1613 -0.0741
 1202ERGO   ROH16609  15.242   0.277   6.768 -0.0089  0.0287  0.0365
 1202ERGO    R116610  15.144   0.337   7.027  0.2688 -0.0456  0.1610
 1202ERGO    R216611  14.915   0.222   7.130  0.0334  0.3838  0.1255
 1202ERGO    R316612  15.080   0.153   7.335 -0.0217 -0.2762 -0.0303
 1202ERGO    R416613  14.811   0.144   7.450 -0.0096  0.3258  0.0980
 1202ERGO    R516614  14.981   0.255   7.528  0.3471 -0.2002  0.1311
 1202ERGO    C116615  14.905   0.033   7.828 -0.0863 -0.3274 -0.0642
 1202ERGO    C216616  14.807  -0.031   8.159 -0.0562 -0.0327  0.0897
 1203ERGO   ROH16617   7.585   9.385   6.687  0.1980 -0.0124 -0.0687
 1203ERGO    R116618   7.719   9.276   6.912  0.0858  0.0521  0.0296
 1203ERGO    R216619   7.629   9.311   7.171 -0.2399 -0.1680 -0.0538
 1203ERGO    R316620   7.642   9.040   7.177  0.0805 -0.1597 -0.1564
 1203ERGO    R416621   7.729   9.123   7.443 -0.2167 -0.1521 -0.0503
 1203ERGO    R516622   7.837   8.992   7.307  0.0472  0.0262 -0.0285
 1203ERGO    C116623   7.800   8.759   7.607  0.0975 -0.1349 -0.1445
 1203ERGO    C216624   7.654   8.481   7.865  0.3816 -0.1198 -0.0722
 1204ERGO   ROH16625   6.721   0.309   6.458 -0.0897  0.0055 -0.0790
 1204ERGO    R116626   6.818   0.427   6.697 -0.0600 -0.0436 -0.0660
 1204ERGO    R216627   6.883   0.695   6.715  0.0491 -0.0675 -0.0492
 1204ERGO    R316628   6.710   0.689   6.925  0.0277 -0.0088 -0.0660
 1204ERGO    R416629   6.839   0.952   6.942  0.0824 -0.0422 -0.0719
 1204ERGO    R516630   6.826   0.803   7.100  0.0321 -0.0231 -0.0637
 1204ERGO    C116631   6.650   1.096   7.270  0.0817  0.0276 -0.1008
 1204ERGO    C216632   6.682   1.418   7.478  0.0908  0.4228  0.0502
 1205ERGO   ROH16633   3.585   3.951   6.678 -0.1489 -0.4213 -0.0999
 1205ERGO    R116634   3.586   3.837   6.937 -0.2318 -0.3899 -0.0841
 1205ERGO    R216635   3.700   3.963   7.155 -0.0286 -0.4937 -0.1212
 1205ERGO    R316636   3.454   3.923   7.265 -0.0590 -0.1813 -0.0684
 1205ERGO    R416637   3.639   3.921   7.493 -0.0382 -0.2665 -0.0940
 1205ERGO    R516638   3.493   3.767   7.442 -0.2066 -0.1361  0.0014
 1205ERGO    C116639   3.374   3.859   7.792 -0.0724  0.1590 -0.0285
 1205ERGO    C216640   3.231   3.980   8.037 -0.0040 -0.0308 -0.2333
 1206ERGO   ROH16641   3.505   7.806   6.613 -0.0062 -0.0975 -0.1963
 1206ERGO    R116642   3.416   7.930   6.851 -0.0572 -0.1925 -0.1674
 1206ERGO    R216643   3.359   7.788   7.081  0.1063 -0.2595 -0.1776
 1206ERGO    R316644   3.536   7.962   7.193 -0.0138 -0.1257 -0.1859
 1206ERGO    R416645   3.383   7.854   7.419  0.1424 -0.3352 -0.1635
 1206ERGO    R516646   3.413   8.064   7.372 -0.0633 -0.2856 -0.1184
 1206ERGO    C116647   3.564   8.054   7.722  0.0507 -0.2538 -0.1630
 1206ERGO    C216648   3.620   7.997   8.104  0.1765 -0.2709 -0.2081
 1207ERGO   ROH16649   2.943   8.617   6.551 -0.0045  0.3929 -0.1047
 1207ERGO    R116650   3.078   8.708   6.782  0.0025  0.2526 -0.0533
 1207ERGO    R216651   2.966   8.695   7.034 -0.0172  0.1657 -0.0699
 1207ERGO    R316652   3.195   8.562   7.094 -0.0547  0.0814 -0.1092
 1207ERGO    R416653   3.080   8.633   7.354  0.1137  0.3130 -0.0858
 1207ERGO    R516654   3.282   8.677   7.286  0.1063  0.1636 -0.2246
 1207ERGO    C116655   3.361   8.471   7.597  0.1547  0.3194 -0.1320
 1207ERGO    C216656   3.473   8.494   7.975 -0.0128  0.2658 -0.2223
 1208ERGO   ROH16657   5.343   2.582   8.637  0.4265 -0.0430  0.0609
 1208ERGO    R116658   5.440   2.683   8.883  0.1626  0.1739  0.0825
 1208ERGO    R216659   5.280   2.821   9.061 -0.1415 -0.0337 -0.0154
 1208ERGO    R316660   5.368   2.632   9.236  0.0867  0.1401  0.0612
 1208ERGO    R416661   5.284   2.856   9.405 -0.1023  0.1351 -0.0329
 1208ERGO    R516662   5.478   2.757   9.408 -0.0026  0.3332 -0.0224
 1208ERGO    C116663   5.369   2.699   9.769  0.1347  0.3965  0.0287
 1208ERGO    C216664   5.402   2.612  10.132  0.0728 -0.0263 -0.2557
 1209ERGO   ROH16665  14.621  11.555  10.194  0.0022 -0.1300 -0.1580
 1209ERGO    R116666  14.711  11.555   9.925 -0.0638 -0.2041 -0.1810
 1209ERGO    R216667  14.606  11.387   9.733 -0.2735 -0.0987 -0.1650
 1209ERGO    R316668  14.566  11.619   9.598 -0.0876 -0.0517 -0.1408
 1209ERGO    R416669  14.625  11.421   9.389 -0.1365 -0.0486 -0.1526
 1209ERGO    R516670  14.726  11.612   9.419 -0.0323 -0.1154 -0.0872
 1209ERGO    C116671  14.599  11.660   9.063  0.1180  0.0248 -0.1227
 1209ERGO    C216672  14.571  11.572   8.676 -0.1359 -0.0513 -0.0149
 1210ERGO   ROH16673  15.391   1.266   7.205  0.1760 -0.2999 -0.0265
 1210ERGO    R116674  15.410   1.089   7.424  0.2349  0.0338  0.2486
 1210ERGO    R216675  15.450   1.176   7.683 -0.0590  0.4615  0.1685
 1210ERGO    R316676  15.226   1.029   7.733  0.0780  0.2624  0.1984
 1210ERGO    R416677  15.316   1.119   7.997 -0.1016  0.5147  0.1592
 1210ERGO    R516678  15.275   0.914   7.937  0.1286  0.4409  0.2806
 1210ERGO    C116679  15.029   0.948   8.226  0.0022  0.3589  0.1818
 1210ERGO    C216680  14.989   0.980   8.518 -0.1246  0.0616 -0.1235
 1211ERGO   ROH16681   2.207  11.305   6.320  0.2659  0.2220  0.0737
 1211ERGO    R116682   2.110  11.227   6.574  0.2185  0.0585  0.0069
 1211ERGO    R216683   2.201  11.002   6.706  0.2773  0.0367 -0.0690
 1211ERGO    R316684   2.248  11.179   6.907  0.1331 -0.0350  0.0293
 1211ERGO    R416685   2.244  10.916   7.038  0.2889 -0.1075 -0.1074
 1211ERGO    R516686   2.125  11.091   7.093  0.1653 -0.2134 -0.0320
 1211ERGO    C116687   2.313  11.032   7.420  0.1603 -0.2590 -0.0375
 1211ERGO    C216688   2.424  11.189   7.799  0.0921 -0.1088 -0.4571
 1212ERGO   ROH16689   8.777  15.230   9.620 -0.1025  0.0276  0.0051
 1212ERGO    R116690   8.891  15.230   9.361 -0.1188  0.1569 -0.0017
 1212ERGO    R216691   8.853  15.023   9.182  0.0251  0.1607 -0.0302
 1212ERGO    R316692   8.769  15.223   9.019 -0.1337  0.1238  0.0028
 1212ERGO    R416693   8.787  14.989   8.844  0.1323  0.1740 -0.0536
 1212ERGO    R516694   8.881  15.182   8.811 -0.0438  0.2789  0.0148
 1212ERGO    C116695   8.670  15.156   8.495  0.0458  0.1469 -0.0365
 1212ERGO    C216696   8.687  15.210   8.149 -0.1848  0.1044 -0.0619
 1213ERGO   ROH16697   9.770  11.106   8.068 -0.0093 -0.2148 -0.0168
 1213ERGO    R116698   9.596  11.176   7.855 -0.1448 -0.1101  0.1276
 1213ERGO    R216699   9.558  11.014   7.635 -0.0977  0.1076 -0.0392
 1213ERGO    R316700   9.296  11.039   7.703 -0.0959 -0.1747  0.0860
 1213ERGO    R416701   9.292  10.933   7.430 -0.1028  0.0712 -0.0191
 1213ERGO    R516702   9.188  11.111   7.502 -0.2295 -0.0757  0.1868
 1213ERGO    C116703   8.891  10.908   7.375 -0.1042 -0.2153  0.1102
 1213ERGO    C216704   8.763  10.811   7.062  0.1222 -0.1932 -0.3052
 1214ERGO   ROH16705  10.001   1.130   6.606  0.1764 -0.2107 -0.0302
 1214ERGO    R116706   9.976   1.091   6.885  0.2319 -0.0656 -0.0045
 1214ERGO    R216707  10.033   1.289   7.069  0.0033  0.1201 -0.1315
 1214ERGO    R316708   9.781   1.237   7.156  0.0657 -0.1246 -0.0892
 1214ERGO    R416709   9.913   1.365   7.384 -0.0676  0.1917 -0.1752
 1214ERGO    R516710   9.809   1.173   7.385  0.1578  0.0606 -0.0441
 1214ERGO    C116711   9.606   1.360   7.649 -0.0502  0.0036 -0.1610
 1214ERGO    C216712   9.367   1.560   7.747 -0.0373 -0.3843  0.1247
 1215ERGO   ROH16713   1.547  10.529   6.600 -0.1362  0.0440  0.0430
 1215ERGO    R116714   1.421  10.488   6.849 -0.0996 -0.0175  0.0510
 1215ERGO    R216715   1.384  10.237   6.957  0.0398 -0.0338  0.0574
 1215ERGO    R316716   1.512  10.345   7.171 -0.0055  0.0374  0.0497
 1215ERGO    R416717   1.345  10.131   7.284 -0.0405  0.0796  0.0856
 1215ERGO    R516718   1.349  10.340   7.347 -0.0483  0.1035  0.0139
 1215ERGO    C116719   1.443  10.171   7.675 -0.1297  0.2124  0.0948
 1215ERGO    C216720   1.449  10.133   7.946  0.7832 -0.1857  0.2062
 1216ERGO   ROH16721   0.558   6.372   6.809  0.1913  0.0495 -0.0621
 1216ERGO    R116722   0.449   6.431   7.064  0.1173  0.0813 -0.1009
 1216ERGO    R216723   0.185   6.378   7.129  0.0677  0.1989 -0.2091
 1216ERGO    R316724   0.297   6.242   7.335 -0.0785  0.1319 -0.1722
 1216ERGO    R416725   0.010   6.237   7.391 -0.1088  0.2685 -0.2879
 1216ERGO    R516726   0.167   6.305   7.526 -0.1267  0.1857 -0.2203
 1216ERGO    C116727   0.013   6.028   7.739 -0.3489  0.2461 -0.2992
 1216ERGO    C216728  -0.183   5.726   7.983 -0.4549  0.0139  0.3486
 1217ERGO   ROH16729  11.398   1.065   6.830  0.1530 -0.0447 -0.1026
 1217ERGO    R116730  11.535   0.877   6.991  0.0731 -0.0439 -0.0339
 1217ERGO    R216731  11.765   0.940   7.132  0.0852 -0.0825 -0.0370
 1217ERGO    R316732  11.622   0.844   7.343  0.0349  0.0338 -0.0170
 1217ERGO    R416733  11.896   0.756   7.394 -0.0415 -0.2503 -0.0891
 1217ERGO    R516734  11.718   0.630   7.389 -0.1706 -0.0716 -0.0658
 1217ERGO    C116735  11.838   0.559   7.744 -0.1623 -0.2389 -0.1008
 1217ERGO    C216736  11.727   0.451   7.963 -0.1175  0.0355 -0.0316
 1218ERGO   ROH16737   1.860   5.920   6.779  0.2357  0.0614 -0.0072
 1218ERGO    R116738   1.862   6.050   7.030  0.2817  0.0514 -0.0017
 1218ERGO    R216739   1.658   6.022   7.214  0.2120  0.2066 -0.0465
 1218ERGO    R316740   1.861   5.950   7.380  0.1207  0.0353 -0.0081
 1218ERGO    R416741   1.658   6.069   7.556  0.1060 -0.0083 -0.0154
 1218ERGO    R516742   1.869   6.125   7.543  0.1243 -0.0745  0.1038
 1218ERGO    C116743   1.848   6.029   7.912 -0.0414 -0.2943  0.0387
 1218ERGO    C216744   1.782   5.819   8.210  0.1853  0.1084 -0.1307
 1219ERGO   ROH16745   5.316   7.714   6.591 -0.0199  0.2846 -0.0465
 1219ERGO    R116746   5.240   7.831   6.838 -0.0479  0.1347  0.0176
 1219ERGO    R216747   5.100   7.693   7.031 -0.0562  0.0107 -0.0743
 1219ERGO    R316748   5.306   7.771   7.191 -0.0738 -0.0709 -0.0118
 1219ERGO    R416749   5.078   7.740   7.373 -0.1319 -0.0180 -0.0754
 1219ERGO    R516750   5.204   7.916   7.352 -0.0705 -0.0559 -0.0238
 1219ERGO    C116751   5.259   7.840   7.722 -0.1925 -0.1112 -0.0173
 1219ERGO    C216752   5.158   7.853   8.008  0.2917  0.2038 -0.0464
 1220ERGO   ROH16753   5.410   9.302   6.437 -0.0959 -0.2251 -0.0331
 1220ERGO    R116754   5.466   9.375   6.705  0.1104 -0.1208 -0.1026
 1220ERGO    R216755   5.283   9.346   6.909  0.1510  0.2494 -0.0011
 1220ERGO    R316756   5.485   9.207   7.027  0.0240  0.0619 -0.0015
 1220ERGO    R416757   5.302   9.273   7.247  0.1109  0.2664  0.0045
 1220ERGO    R516758   5.516   9.315   7.239  0.1505  0.0532 -0.0176
 1220ERGO    C116759   5.503   9.100   7.553 -0.0318  0.1004  0.0073
 1220ERGO    C216760   5.384   8.826   7.790 -0.1531 -0.0050 -0.3110
 1221ERGO   ROH16761   9.352   2.521   6.438  0.0702 -0.1327 -0.0969
 1221ERGO    R116762   9.233   2.453   6.685 -0.0242  0.2845 -0.0218
 1221ERGO    R216763   9.334   2.255   6.850 -0.4504  0.1218  0.0400
 1221ERGO    R316764   9.332   2.453   7.036  0.0864  0.2287 -0.0490
 1221ERGO    R416765   9.375   2.207   7.189 -0.3770  0.1688  0.0392
 1221ERGO    R516766   9.220   2.356   7.224 -0.0443  0.5464  0.0553
 1221ERGO    C116767   9.397   2.365   7.562  0.1695  0.2965 -0.0448
 1221ERGO    C216768   9.394   2.144   7.823 -0.1221 -0.1007 -0.1175
 1222ERGO   ROH16769   9.474   8.258  10.345 -0.0636 -0.0929 -0.0383
 1222ERGO    R116770   9.340   8.303  10.100 -0.0395  0.0316 -0.0295
 1222ERGO    R216771   9.436   8.476   9.907  0.0845 -0.0214 -0.0165
 1222ERGO    R316772   9.414   8.259   9.746 -0.0854  0.0096 -0.0365
 1222ERGO    R416773   9.501   8.475   9.568  0.0034 -0.0199 -0.0319
 1222ERGO    R516774   9.327   8.346   9.540 -0.0824  0.0870 -0.0059
 1222ERGO    C116775   9.518   8.269   9.219 -0.2034  0.0100 -0.0596
 1222ERGO    C216776   9.408   8.400   8.974  0.1971 -0.0698  0.3680
 1223ERGO   ROH16777  13.389  12.182  10.410  0.0933 -0.2065 -0.0159
 1223ERGO    R116778  13.414  12.372  10.201 -0.0146 -0.2003 -0.0227
 1223ERGO    R216779  13.649  12.407  10.059 -0.0249 -0.0461  0.0047
 1223ERGO    R316780  13.488  12.365   9.845  0.0307 -0.1665 -0.0154
 1223ERGO    R416781  13.705  12.532   9.742 -0.1378  0.1047  0.0421
 1223ERGO    R516782  13.492  12.572   9.725 -0.1873 -0.1233  0.0422
 1223ERGO    C116783  13.586  12.564   9.356 -0.1512  0.0794  0.0449
 1223ERGO    C216784  13.564  12.458   8.997  0.0877 -0.2188  0.4177
 1224ERGO   ROH16785  16.751  11.164   6.547 -0.0067  0.0793  0.1718
 1224ERGO    R116786  16.706  11.311   6.784 -0.0066  0.0786  0.1724
 1224ERGO    R216787  16.467  11.300   6.922 -0.0169  0.1011  0.1567
 1224ERGO    R316788  16.628  11.235   7.132 -0.0376  0.0788  0.1656
 1224ERGO    R416789  16.357  11.235   7.243 -0.0514  0.0491  0.1343
 1224ERGO    R516790  16.529  11.346   7.320 -0.0653  0.0469  0.1701
 1224ERGO    C116791  16.444  11.136   7.627 -0.0909 -0.0021  0.1295
 1224ERGO    C216792  16.481  11.126   7.918 -0.1168 -0.0209  0.0073
 1225ERGO   ROH16793   8.817  13.470   6.193  0.1538 -0.1193  0.1072
 1225ERGO    R116794   8.860  13.429   6.470  0.1986  0.1086  0.1355
 1225ERGO    R216795   8.883  13.638   6.649 -0.2558  0.2548  0.0339
 1225ERGO    R316796   8.684  13.506   6.779 -0.0108 -0.0919  0.0697
 1225ERGO    R416797   8.768  13.717   6.966 -0.5306  0.2586 -0.0649
 1225ERGO    R516798   8.755  13.503   7.008 -0.0683  0.2489  0.0986
 1225ERGO    C116799   8.514  13.638   7.272 -0.4606 -0.0646 -0.0888
 1225ERGO    C216800   8.241  13.590   7.516 -0.0510 -0.1350 -0.1658
 1226ERGO   ROH16801  10.235  15.632  10.039  0.3356  0.0415  0.0405
 1226ERGO    R116802  10.124  15.643   9.779  0.2141 -0.0792  0.0863
 1226ERGO    R216803  10.240  15.787   9.573 -0.0731  0.1254  0.0610
 1226ERGO    R316804  10.227  15.549   9.443  0.2218  0.1211  0.0307
 1226ERGO    R416805  10.227  15.750   9.230 -0.2507  0.1656  0.0625
 1226ERGO    R516806  10.081  15.591   9.258  0.0218 -0.0794  0.1378
 1226ERGO    C116807  10.206  15.505   8.908 -0.0773  0.1850  0.0350
 1226ERGO    C216808  10.342  15.560   8.567 -0.0832  0.0146 -0.2525
 1227ERGO   ROH16809   7.410   2.861   6.370  0.3099  0.1002  0.0735
 1227ERGO    R116810   7.326   2.702   6.589  0.2853 -0.0309 -0.0279
 1227ERGO    R216811   7.496   2.523   6.717  0.3701  0.1250  0.0904
 1227ERGO    R316812   7.422   2.663   6.938  0.0223  0.0121  0.0503
 1227ERGO    R416813   7.550   2.422   7.043  0.0700  0.0730  0.1258
 1227ERGO    R516814   7.352   2.496   7.094 -0.0403 -0.0787 -0.0759
 1227ERGO    C116815   7.513   2.495   7.440 -0.4313 -0.0634  0.1088
 1227ERGO    C216816   7.623   2.465   7.829  0.1650  0.0100  0.0193
 1228ERGO   ROH16817   5.477  15.251   6.492  0.0586 -0.0436 -0.0722
 1228ERGO    R116818   5.332  15.241   6.735 -0.0879  0.3021 -0.1386
 1228ERGO    R216819   5.426  15.111   6.959 -0.6080 -0.1689 -0.1692
 1228ERGO    R316820   5.382  15.351   7.079  0.1590 -0.0632 -0.0530
 1228ERGO    R416821   5.309  15.151   7.282 -0.5635  0.0498 -0.1797
 1228ERGO    R516822   5.184  15.316   7.210 -0.0093  0.5205 -0.1255
 1228ERGO    C116823   5.200  15.400   7.582  0.1823  0.2763 -0.0767
 1228ERGO    C216824   5.040  15.536   7.956 -0.0439 -0.1932 -0.2618
 1229ERGO   ROH16825  12.335   8.093   6.575  0.0384 -0.1825 -0.2136
 1229ERGO    R116826  12.386   8.006   6.839 -0.1314 -0.0718 -0.1440
 1229ERGO    R216827  12.297   7.764   6.935  0.0631 -0.1599 -0.1999
 1229ERGO    R316828  12.559   7.728   6.998  0.0467  0.1655  0.0902
 1229ERGO    R416829  12.416   7.527   7.158  0.1308 -0.3751 -0.4576
 1229ERGO    R516830  12.558   7.677   7.232 -0.2039 -0.2574  0.0107
 1229ERGO    C116831  12.732   7.357   7.346  0.1548 -0.1950 -0.3353
 1229ERGO    C216832  12.762   7.170   7.658 -0.0794  0.1755 -0.3087
 1230ERGO   ROH16833  14.772  16.830   6.458 -0.3540  0.0569  0.0971
 1230ERGO    R116834  14.609  16.801   6.688 -0.2374 -0.1551  0.1554
 1230ERGO    R216835  14.657  16.610   6.881  0.0346 -0.1431  0.1002
 1230ERGO    R316836  14.654  16.825   7.048 -0.1239 -0.1776  0.1434
 1230ERGO    R416837  14.483  16.626   7.179 -0.1829 -0.2398 -0.0183
 1230ERGO    R516838  14.430  16.832   7.132 -0.1878 -0.2388 -0.0142
 1230ERGO    C116839  14.379  16.837   7.510 -0.4584 -0.3289 -0.0468
 1230ERGO    C216840  14.224  16.800   7.848  0.1549 -0.0327  0.2368
 1231ERGO   ROH16841   9.590   6.188   6.452  0.0424  0.0674  0.0295
 1231ERGO    R116842   9.583   6.381   6.659  0.1301  0.0218  0.0753
 1231ERGO    R216843   9.349   6.502   6.742  0.1879  0.1231  0.0900
 1231ERGO    R316844   9.427   6.412   6.987  0.1267  0.0246  0.0736
 1231ERGO    R416845   9.169   6.541   7.035  0.1553  0.0860  0.0749
 1231ERGO    R516846   9.356   6.582   7.139  0.1534 -0.0002  0.1153
 1231ERGO    C116847   9.137   6.479   7.434  0.0789 -0.0282  0.0507
 1231ERGO    C216848   8.915   6.263   7.630  0.0271 -0.2179 -0.0965
 1232ERGO   ROH16849  14.131   4.209   6.724 -0.2803 -0.0457  0.0676
 1232ERGO    R116850  14.028   4.022   6.909 -0.0023 -0.1278  0.1445
 1232ERGO    R216851  14.175   3.929   7.124  0.1264  0.2140  0.2147
 1232ERGO    R316852  13.960   4.014   7.267 -0.0374 -0.0610  0.1387
 1232ERGO    R416853  14.108   3.842   7.452  0.1340  0.1563  0.2006
 1232ERGO    R516854  13.898   3.825   7.400  0.1728 -0.1325  0.1355
 1232ERGO    C116855  13.868   3.872   7.777 -0.0153 -0.1355  0.1211
 1232ERGO    C216856  13.790   3.754   8.042  0.1865  0.1101  0.0665
 1233ERGO   ROH16857  12.480   2.222   6.551  0.0814 -0.0540  0.0572
 1233ERGO    R116858  12.458   2.192   6.832 -0.0364 -0.0052  0.0538
 1233ERGO    R216859  12.250   2.300   6.978 -0.1677 -0.0914 -0.0700
 1233ERGO    R316860  12.220   2.044   7.064 -0.0654 -0.0893 -0.0274
 1233ERGO    R416861  12.053   2.204   7.245 -0.1868 -0.1252 -0.0965
 1233ERGO    R516862  12.209   2.063   7.303 -0.1299 -0.0421 -0.0313
 1233ERGO    C116863  11.911   1.908   7.482 -0.1019 -0.1429 -0.0719
 1233ERGO    C216864  11.693   1.662   7.575 -0.2181 -0.2895 -0.0679
 1234ERGO   ROH16865   7.207   5.515   6.709  0.1633  0.2187  0.1240
 1234ERGO    R116866   7.316   5.357   6.917  0.3067  0.1572  0.0045
 1234ERGO    R216867   7.447   5.467   7.135  0.2574  0.1083  0.0637
 1234ERGO    R316868   7.266   5.321   7.276  0.3786 -0.1177 -0.0120
 1234ERGO    R416869   7.460   5.411   7.476  0.1045  0.2452  0.0930
 1234ERGO    R516870   7.397   5.206   7.440  0.4398  0.1357  0.1186
 1234ERGO    C116871   7.298   5.241   7.806  0.1293  0.1126  0.0390
 1234ERGO    C216872   7.082   5.207   8.060  0.1934  0.0426 -0.2584
 1235ERGO   ROH16873  12.872  15.071   6.603 -0.4827  0.0832  0.1085
 1235ERGO    R116874  12.851  14.856   6.786 -0.2592  0.0060  0.0463
 1235ERGO    R216875  13.070  14.713   6.874 -0.1117  0.2005 -0.0070
 1235ERGO    R316876  12.973  14.779   7.120 -0.1680  0.0292  0.0190
 1235ERGO    R416877  13.139  14.542   7.166 -0.0140  0.1108 -0.0813
 1235ERGO    R516878  12.931  14.569   7.225 -0.0377 -0.0496 -0.0783
 1235ERGO    C116879  13.088  14.503   7.567 -0.0100 -0.1023 -0.1001
 1235ERGO    C216880  13.195  14.277   7.643  0.3240  0.0233 -0.0733
 1236ERGO   ROH16881   1.498  17.171   6.689 -0.1188 -0.2777  0.0093
 1236ERGO    R116882   1.451  17.324   6.923 -0.0131 -0.1283 -0.0667
 1236ERGO    R216883   1.324  17.221   7.146 -0.1074  0.0784 -0.0249
 1236ERGO    R316884   1.548  17.308   7.273 -0.0472 -0.0347 -0.0521
 1236ERGO    R416885   1.388  17.179   7.483 -0.2565  0.3516  0.0407
 1236ERGO    R516886   1.470  17.381   7.487 -0.0345  0.2735 -0.1461
 1236ERGO    C116887   1.636  17.235   7.799 -0.2868  0.4045  0.0535
 1236ERGO    C216888   1.889  17.136   8.047 -0.2107  0.1599 -0.0174
 1237ERGO   ROH16889  17.607   4.616   6.525  0.0980 -0.0345 -0.1375
 1237ERGO    R116890  17.764   4.710   6.741  0.1782 -0.1402 -0.1505
 1237ERGO    R216891  17.656   4.847   6.955  0.2956 -0.0227 -0.1714
 1237ERGO    R316892  17.779   4.654   7.100  0.1339 -0.1069 -0.1420
 1237ERGO    R416893  17.721   4.867   7.294  0.3221 -0.0130 -0.1762
 1237ERGO    R516894  17.915   4.775   7.256  0.2461 -0.1908 -0.1683
 1237ERGO    C116895  17.875   4.697   7.628  0.1856 -0.0866 -0.1514
 1237ERGO    C216896  17.692   4.678   7.993 -0.1974  0.2852 -0.0403
 1238ERGO   ROH16897  13.409   6.499   6.707 -0.1218  0.4407 -0.2183
 1238ERGO    R116898  13.546   6.550   6.949  0.0406  0.2278 -0.2608
 1238ERGO    R216899  13.648   6.799   7.013 -0.0230  0.2096 -0.0544
 1238ERGO    R316900  13.500   6.766   7.238  0.1579 -0.1170  0.0205
 1238ERGO    R416901  13.738   6.912   7.327 -0.1201  0.4210 -0.1024
 1238ERGO    R516902  13.662   6.726   7.410  0.3354  0.2476 -0.0577
 1238ERGO    C116903  13.652   6.947   7.721 -0.0068  0.2375 -0.0599
 1238ERGO    C216904  13.482   7.154   7.916  0.2055 -0.1420  0.1114
 1239ERGO   ROH16905   8.121   7.195   6.493 -0.1647 -0.0672  0.1349
 1239ERGO    R116906   8.136   7.216   6.775  0.0313 -0.1385  0.1310
 1239ERGO    R216907   8.321   7.075   6.925  0.2811 -0.0093 -0.0518
 1239ERGO    R316908   8.383   7.322   7.020  0.1194  0.0228 -0.0256
 1239ERGO    R416909   8.518   7.136   7.202  0.2746  0.0887 -0.0681
 1239ERGO    R516910   8.382   7.297   7.258  0.1671 -0.0135 -0.0278
 1239ERGO    C116911   8.692   7.404   7.452  0.1189  0.1759 -0.0529
 1239ERGO    C216912   8.801   7.623   7.643  0.0838  0.0089  0.0308
 1240ERGO   ROH16913   1.864   4.581   6.867  0.0232 -0.1193  0.0380
 1240ERGO    R116914   1.766   4.433   7.088 -0.1187 -0.0302  0.0363
 1240ERGO    R216915   1.897   4.424   7.331 -0.1146 -0.1751  0.0299
 1240ERGO    R316916   1.657   4.505   7.428 -0.0290  0.0684  0.0446
 1240ERGO    R416917   1.798   4.396   7.661 -0.0903  0.0107  0.0539
 1240ERGO    R516918   1.599   4.339   7.591 -0.1529  0.1667  0.1024
 1240ERGO    C116919   1.514   4.456   7.944  0.0042  0.3475  0.0818
 1240ERGO    C216920   1.549   4.705   8.194 -0.0698  0.2268  0.1082
 1241ERGO   ROH16921   9.687  12.110   6.324  0.0584 -0.0032 -0.0630
 1241ERGO    R116922   9.648  12.104   6.604  0.0469  0.1433 -0.0621
 1241ERGO    R216923   9.719  11.886   6.760 -0.1907  0.1261  0.0150
 1241ERGO    R316924   9.858  12.074   6.900  0.0096  0.0274 -0.0445
 1241ERGO    R416925   9.879  11.830   7.061 -0.2247  0.0349  0.0178
 1241ERGO    R516926   9.809  12.025   7.129 -0.0274  0.1299 -0.0251
 1241ERGO    C116927  10.102  11.973   7.368 -0.0564 -0.1110 -0.0365
 1241ERGO    C216928  10.197  12.016   7.669  0.1715  0.0713 -0.1496
 1242ERGO   ROH16929  10.079  16.641   9.957  0.0060  0.0400 -0.0206
 1242ERGO    R116930   9.977  16.607   9.695 -0.0331 -0.1780  0.0222
 1242ERGO    R216931  10.000  16.801   9.500 -0.2530 -0.2567 -0.0751
 1242ERGO    R316932  10.113  16.599   9.357 -0.1174 -0.2275 -0.0137
 1242ERGO    R416933  10.019  16.790   9.155 -0.3105 -0.3626 -0.0762
 1242ERGO    R516934   9.973  16.577   9.164 -0.1447 -0.4067  0.0164
 1242ERGO    C116935  10.136  16.594   8.820 -0.2165 -0.3971 -0.0190
 1242ERGO    C216936  10.341  16.586   8.478 -0.0094 -0.1470  0.0488
 1243ERGO   ROH16937   4.645  11.153   6.429  0.3404 -0.0125 -0.0157
 1243ERGO    R116938   4.787  11.137   6.673  0.1488  0.0190  0.0993
 1243ERGO    R216939   4.697  11.257   6.906 -0.0132  0.0819  0.0007
 1243ERGO    R316940   4.726  11.006   7.007 -0.1275  0.1016  0.0852
 1243ERGO    R416941   4.719  11.181   7.242  0.0961  0.2137  0.0241
 1243ERGO    R516942   4.873  11.034   7.194 -0.0164  0.0902  0.0066
 1243ERGO    C116943   4.759  10.902   7.533  0.0524  0.3089  0.1170
 1243ERGO    C216944   4.702  10.890   7.762 -0.0960 -0.1898  0.1052
 1244ERGO   ROH16945  12.498   7.868   7.645 -0.0293  0.1583  0.0817
 1244ERGO    R116946  12.583   7.682   7.840 -0.0342  0.0896  0.0159
 1244ERGO    R216947  12.457   7.653   8.085  0.0194  0.0680  0.0300
 1244ERGO    R316948  12.441   7.393   8.009 -0.0674  0.0837 -0.0154
 1244ERGO    R416949  12.476   7.383   8.299  0.0513  0.0334 -0.0139
 1244ERGO    R516950  12.597   7.279   8.151 -0.0244  0.0304 -0.0908
 1244ERGO    C116951  12.473   6.981   8.353 -0.0116  0.0280 -0.0823
 1244ERGO    C216952  12.290   6.645   8.316 -0.1071  0.2332  0.1304
 1245ERGO   ROH16953   0.402   8.540  10.240 -0.0502 -0.0262  0.0725
 1245ERGO    R116954   0.266   8.503   9.995  0.0333 -0.1652  0.0453
 1245ERGO    R216955   0.264   8.695   9.796 -0.2020 -0.1238  0.0841
 1245ERGO    R316956   0.355   8.490   9.642  0.1049  0.0295  0.0545
 1245ERGO    R416957   0.219   8.670   9.454 -0.2237 -0.1683  0.0906
 1245ERGO    R516958   0.182   8.457   9.480  0.1247 -0.2373  0.0826
 1245ERGO    C116959   0.278   8.464   9.111  0.0518 -0.0504  0.0665
 1245ERGO    C216960   0.343   8.458   8.780  0.1214  0.1111  0.1752
 1246ERGO   ROH16961  16.867  10.756   6.632 -0.1759  0.0987 -0.0591
 1246ERGO    R116962  16.771  10.850   6.881 -0.0710  0.1121 -0.0216
 1246ERGO    R216963  16.531  10.764   6.990 -0.0510  0.1487  0.0673
 1246ERGO    R316964  16.688  10.704   7.204  0.0225  0.1187  0.0036
 1246ERGO    R416965  16.414  10.685   7.305  0.0633 -0.1009  0.0484
 1246ERGO    R516966  16.575  10.804   7.390  0.0046 -0.0576  0.0828
 1246ERGO    C116967  16.492  10.582   7.690  0.1990 -0.2744 -0.0225
 1246ERGO    C216968  16.323  10.332   7.755  0.0604  0.2636  0.1968
 1247ERGO   ROH16969  14.858   2.208   7.047  0.3023 -0.0084  0.4066
 1247ERGO    R116970  14.806   2.365   7.277  0.0608 -0.0179  0.3618
 1247ERGO    R216971  14.559   2.478   7.327 -0.0273 -0.1134  0.1669
 1247ERGO    R316972  14.583   2.347   7.564 -0.1567 -0.0947  0.1907
 1247ERGO    R416973  14.395   2.566   7.619  0.1307  0.1584  0.1768
 1247ERGO    R516974  14.578   2.521   7.729  0.0924 -0.0520  0.1552
 1247ERGO    C116975  14.322   2.494   8.011  0.1012  0.3344  0.2048
 1247ERGO    C216976  14.009   2.357   8.203  0.0982 -0.0936  0.0487
 1248ERGO   ROH16977   5.787  16.481   6.341 -0.0739  0.1748 -0.0635
 1248ERGO    R116978   5.753  16.658   6.559 -0.0832 -0.1169  0.1791
 1248ERGO    R216979   5.743  16.571   6.822  0.4426 -0.4253  0.1102
 1248ERGO    R316980   5.943  16.753   6.854  0.1750 -0.1042  0.0130
 1248ERGO    R416981   5.817  16.734   7.118  0.3178 -0.2966  0.0718
 1248ERGO    R516982   5.851  16.916   7.004 -0.0201 -0.2399  0.0469
 1248ERGO    C116983   6.047  16.999   7.321 -0.0061  0.0799 -0.0418
 1248ERGO    C216984   6.031  17.184   7.581 -0.2780  0.1376 -0.0124
 1249ERGO   ROH16985   3.997   0.331   6.328 -0.3075  0.0861 -0.0058
 1249ERGO    R116986   3.905   0.170   6.542 -0.1488  0.0508  0.0386
 1249ERGO    R216987   4.059   0.117   6.766 -0.0244  0.1117 -0.0239
 1249ERGO    R316988   3.841   0.213   6.898 -0.0043  0.0326  0.0656
 1249ERGO    R416989   3.983   0.052   7.097  0.0736  0.0101 -0.0216
 1249ERGO    R516990   3.773   0.033   7.040  0.0672 -0.0130  0.0348
 1249ERGO    C116991   3.734   0.105   7.413  0.1497 -0.1234  0.0637
 1249ERGO    C216992   3.547   0.220   7.818 -0.2563 -0.1916 -0.0662
 1250ERGO   ROH16993  17.426  14.272   7.002  0.3556  0.0292  0.0584
 1250ERGO    R116994  17.274  14.417   7.191  0.2756 -0.0464  0.0527
 1250ERGO    R216995  17.220  14.320   7.445  0.3141 -0.0735  0.0495
 1250ERGO    R316996  17.329  14.557   7.522  0.1927 -0.0185  0.0552
 1250ERGO    R416997  17.155  14.480   7.744  0.2692 -0.1396  0.0756
 1250ERGO    R516998  17.153  14.670   7.638  0.1455 -0.1294  0.0937
 1250ERGO    C116999  17.220  14.796   7.991  0.1292 -0.1264  0.0961
 1250ERGO    C217000  17.216  14.731   8.357 -0.1744 -0.1025 -0.0650
 1251ERGO   ROH17001  14.653   8.996   6.589  0.1627  0.0672 -0.1330
 1251ERGO    R117002  14.636   9.053   6.866  0.1220  0.0352 -0.1292
 1251ERGO    R217003  14.549   8.867   7.051  0.1424 -0.0012 -0.1591
 1251ERGO    R317004  14.785   8.923   7.172  0.1171  0.0362 -0.1257
 1251ERGO    R417005  14.642   8.755   7.364  0.0695  0.0996 -0.1003
 1251ERGO    R517006  14.729   8.951   7.403  0.0639  0.1136 -0.1458
 1251ERGO    C117007  14.919   8.743   7.660  0.0032  0.1934 -0.0348
 1251ERGO    C217008  14.887   8.430   7.743  0.0172  0.1743  0.0763
 1252ERGO   ROH17009  14.750  11.386   6.838 -0.0035  0.0665  0.1719
 1252ERGO    R117010  14.644  11.230   7.049 -0.0970 -0.0469  0.0442
 1252ERGO    R217011  14.522  11.341   7.270  0.1667 -0.1402  0.2518
 1252ERGO    R317012  14.317  11.176   7.200 -0.0907  0.2137  0.1497
 1252ERGO    R417013  14.311  11.182   7.493  0.3655 -0.5043  0.1868
 1252ERGO    R517014  14.319  11.005   7.367  0.0140 -0.2090 -0.2718
 1252ERGO    C117015  13.996  10.936   7.558  0.2396 -0.3842  0.0533
 1252ERGO    C217016  13.885  10.847   7.856  0.2559  0.1130  0.1862
 1253ERGO   ROH17017  13.991  17.354   6.384  0.0696  0.1971 -0.1951
 1253ERGO    R117018  13.800  17.374   6.592  0.1076 -0.1592 -0.1207
 1253ERGO    R217019  13.799  17.203   6.809  0.6462 -0.0399 -0.0104
 1253ERGO    R317020  13.806  17.435   6.950  0.1244  0.0798 -0.1594
 1253ERGO    R417021  13.672  17.244   7.128  0.5280 -0.1134 -0.0471
 1253ERGO    R517022  13.597  17.439   7.068  0.0952 -0.3062 -0.1814
 1253ERGO    C117023  13.605  17.485   7.446 -0.0307 -0.0437 -0.2083
 1253ERGO    C217024  13.565  17.515   7.764  0.2747  0.1475  0.0302
 1254ERGO   ROH17025   2.768   5.534   6.947 -0.3101 -0.2259 -0.0638
 1254ERGO    R117026   2.893   5.635   7.180 -0.1120 -0.1731 -0.1904
 1254ERGO    R217027   2.756   5.779   7.372  0.0535 -0.1214 -0.1132
 1254ERGO    R317028   2.857   5.590   7.540  0.1848 -0.0812 -0.1454
 1254ERGO    R417029   2.919   5.846   7.669 -0.0834 -0.0512 -0.0526
 1254ERGO    R517030   3.061   5.687   7.622  0.0791  0.0879 -0.0673
 1254ERGO    C117031   3.110   5.708   7.999 -0.0399  0.0274 -0.0476
 1254ERGO    C217032   3.176   5.875   8.361  0.1122 -0.1442  0.2165
 1255ERGO   ROH17033   0.032   1.328   6.690 -0.2942 -0.0447  0.1588
 1255ERGO    R117034   0.044   1.216   6.949 -0.0620 -0.0268  0.1575
 1255ERGO    R217035   0.249   1.050   7.031  0.0591  0.0519  0.0157
 1255ERGO    R317036   0.272   1.230   7.233  0.1434  0.0706 -0.0097
 1255ERGO    R417037   0.408   0.990   7.332  0.0858  0.0414 -0.0002
 1255ERGO    R517038   0.248   1.099   7.432  0.1332  0.1022  0.0101
 1255ERGO    C117039   0.522   1.125   7.697  0.1805  0.0529 -0.0334
 1255ERGO    C217040   0.461   1.135   7.957 -0.0908 -0.2659  0.0309
 1256ERGO   ROH17041   9.660   7.320  10.137  0.0105  0.2615  0.0276
 1256ERGO    R117042   9.621   7.200   9.883 -0.1259  0.2709  0.0447
 1256ERGO    R217043   9.464   7.316   9.687  0.0326  0.4379  0.0215
 1256ERGO    R317044   9.689   7.286   9.536  0.0049  0.1289  0.0324
 1256ERGO    R417045   9.468   7.286   9.342 -0.0175  0.1425  0.0433
 1256ERGO    R517046   9.624   7.134   9.363 -0.1333  0.0277  0.1637
 1256ERGO    C117047   9.681   7.241   9.001 -0.0727 -0.3197  0.0665
 1256ERGO    C217048   9.652   7.387   8.716  0.1053 -0.1549  0.0342
 1257ERGO   ROH17049   2.937   7.153   6.388 -0.0546  0.2428 -0.0455
 1257ERGO    R117050   2.760   7.245   6.589 -0.0282  0.1296  0.0304
 1257ERGO    R217051   2.654   7.079   6.781  0.0879  0.0435  0.0186
 1257ERGO    R317052   2.759   7.263   6.952  0.0720  0.0370  0.0361
 1257ERGO    R417053   2.553   7.124   7.109  0.0077  0.0748 -0.0097
 1257ERGO    R517054   2.571   7.339   7.080  0.0484  0.0722 -0.0172
 1257ERGO    C117055   2.593   7.322   7.460 -0.0539  0.0870 -0.0098
 1257ERGO    C217056   2.465   7.221   7.816 -0.0130  0.1710 -0.0817
 1258ERGO   ROH17057  15.967  14.940   6.766  0.0055  0.0021 -0.1454
 1258ERGO    R117058  15.789  14.921   6.985  0.0822 -0.1954 -0.0976
 1258ERGO    R217059  15.856  14.794   7.221  0.3223 -0.0412 -0.0773
 1258ERGO    R317060  15.783  15.031   7.332  0.0109 -0.1101 -0.1263
 1258ERGO    R417061  15.865  14.865   7.559  0.3205  0.0775 -0.1019
 1258ERGO    R517062  15.676  14.970   7.537  0.1598 -0.2033 -0.0769
 1258ERGO    C117063  15.802  15.130   7.860  0.0271  0.0818 -0.1624
 1258ERGO    C217064  15.957  15.084   8.204 -0.1377 -0.0806  0.0280
 1259ERGO   ROH17065  16.953   0.823  10.603 -0.0670 -0.0019  0.0361
 1259ERGO    R117066  16.811   0.719  10.381 -0.0532 -0.0217  0.0361
 1259ERGO    R217067  16.712   0.880  10.180 -0.0862 -0.0333  0.0405
 1259ERGO    R317068  16.853   0.712  10.020 -0.0578 -0.0046  0.0358
 1259ERGO    R417069  16.647   0.826   9.845 -0.1518 -0.1310  0.0687
 1259ERGO    R517070  16.688   0.614   9.876 -0.0525 -0.1053  0.1002
 1259ERGO    C117071  16.742   0.636   9.499 -0.1636 -0.1610  0.0808
 1259ERGO    C217072  16.786   0.734   9.120  0.0319 -0.0780 -0.0135
 1260ERGO   ROH17073  10.418  12.688   6.370 -0.2716  0.1025  0.0210
 1260ERGO    R117074  10.396  12.657   6.650 -0.4334  0.2297  0.0257
 1260ERGO    R217075  10.615  12.604   6.811 -0.6126 -0.4419  0.0885
 1260ERGO    R317076  10.529  12.824   6.945  0.0538 -0.1119  0.0083
 1260ERGO    R417077  10.584  12.627   7.155 -0.7354 -0.2823  0.0669
 1260ERGO    R517078  10.399  12.737   7.126 -0.3574  0.3556 -0.0509
 1260ERGO    C117079  10.486  12.847   7.481 -0.1813  0.1205 -0.0211
 1260ERGO    C217080  10.422  12.854   7.824 -0.1007 -0.0500 -0.1529
 1261ERGO   ROH17081   4.752  13.076   6.304  0.1363 -0.1005 -0.1227
 1261ERGO    R117082   4.810  13.074   6.581  0.0507  0.0370 -0.1039
 1261ERGO    R217083   4.755  13.289   6.746 -0.1224  0.0647 -0.2047
 1261ERGO    R317084   4.622  13.103   6.891 -0.0601  0.0462 -0.1692
 1261ERGO    R417085   4.710  13.301   7.088  0.3069 -0.1257 -0.1345
 1261ERGO    R517086   4.746  13.086   7.096  0.1892 -0.1619 -0.3252
 1261ERGO    C117087   4.559  13.133   7.424  0.6153 -0.2540 -0.0602
 1261ERGO    C217088   4.314  13.333   7.745  0.0530  0.1598 -0.2159
 1262ERGO   ROH17089  14.946   5.882   6.641  0.3059 -0.0758 -0.1237
 1262ERGO    R117090  14.957   5.780   6.905  0.0811 -0.0796 -0.1142
 1262ERGO    R217091  15.194   5.710   7.028 -0.0319 -0.1820  0.0495
 1262ERGO    R317092  15.107   5.880   7.221 -0.0913 -0.1430 -0.0113
 1262ERGO    R417093  15.349   5.759   7.333 -0.0670 -0.0426  0.0458
 1262ERGO    R517094  15.152   5.765   7.426 -0.0756 -0.0650  0.0292
 1262ERGO    C117095  15.357   5.947   7.692 -0.1433  0.0752 -0.0135
 1262ERGO    C217096  15.589   6.125   7.912  0.4715 -0.4788 -0.1624
 1263ERGO   ROH17097  10.644   3.950   6.398 -0.2196 -0.1557 -0.0620
 1263ERGO    R117098  10.620   3.978   6.679 -0.1315 -0.0350 -0.0655
 1263ERGO    R217099  10.396   4.085   6.799 -0.1487 -0.1048 -0.0345
 1263ERGO    R317100  10.399   3.852   6.939  0.0354 -0.0372  0.0768
 1263ERGO    R417101  10.222   4.028   7.092 -0.1372 -0.1169 -0.0300
 1263ERGO    R517102  10.395   3.920   7.169 -0.0527  0.0687  0.0441
 1263ERGO    C117103  10.123   3.776   7.394  0.0423 -0.0604  0.0770
 1263ERGO    C217104  10.084   3.732   7.719 -0.1047  0.1009  0.1934
 1264ERGO   ROH17105  11.629  10.833   6.498 -0.3030  0.0727  0.1006
 1264ERGO    R117106  11.698  10.923   6.757 -0.1916  0.0308  0.0860
 1264ERGO    R217107  11.558  11.123   6.887 -0.0412  0.1174  0.1162
 1264ERGO    R317108  11.538  10.936   7.084 -0.1141  0.1294  0.1203
 1264ERGO    R417109  11.577  11.189   7.226  0.0384  0.1092  0.1138
 1264ERGO    R517110  11.694  11.007   7.251 -0.0545  0.0475  0.0994
 1264ERGO    C117111  11.568  11.052   7.608  0.0164  0.1158  0.1162
 1264ERGO    C217112  11.477  11.095   7.896 -0.0825  0.2255  0.3442
 1265ERGO   ROH17113   9.945  14.483   6.069  0.0547 -0.0230  0.0719
 1265ERGO    R117114   9.927  14.462   6.351  0.0359 -0.0146  0.0718
 1265ERGO    R217115   9.700  14.532   6.492 -0.0238 -0.1453  0.0419
 1265ERGO    R317116   9.723  14.279   6.590  0.1208 -0.1250  0.0614
 1265ERGO    R417117   9.573  14.426   6.795  0.0785 -0.1767  0.0735
 1265ERGO    R517118   9.755  14.310   6.825  0.1445 -0.0831  0.0541
 1265ERGO    C117119   9.521  14.128   7.064  0.2739 -0.1759  0.1102
 1265ERGO    C217120   9.317  14.183   7.449  0.0082 -0.0658 -0.2142
 1266ERGO   ROH17121  16.001   2.805   6.958 -0.1499  0.2744 -0.0305
 1266ERGO    R117122  16.088   2.730   7.216 -0.1358  0.0425 -0.1001
 1266ERGO    R217123  16.307   2.844   7.339 -0.0081 -0.2097 -0.0880
 1266ERGO    R317124  16.130   2.893   7.539  0.0875 -0.1912 -0.0067
 1266ERGO    R417125  16.389   2.870   7.674  0.1604 -0.1435 -0.1331
 1266ERGO    R517126  16.207   2.759   7.722  0.1933 -0.1528 -0.0218
 1266ERGO    C117127  16.270   2.931   8.056  0.3481 -0.0877 -0.0831
 1266ERGO    C217128  16.363   3.023   8.396  0.1421  0.0633  0.1098
 1267ERGO   ROH17129  17.324  16.018   6.424  0.2480 -0.0667  0.0843
 1267ERGO    R117130  17.341  15.931   6.693 -0.0978 -0.0736  0.1074
 1267ERGO    R217131  17.518  16.042   6.874  0.0557 -0.4427  0.1889
 1267ERGO    R317132  17.293  16.080   7.022  0.0461  0.0833  0.0597
 1267ERGO    R417133  17.510  16.178   7.192  0.2045 -0.4745  0.2069
 1267ERGO    R517134  17.360  16.030   7.246 -0.2011 -0.1264  0.0941
 1267ERGO    C117135  17.295  16.293   7.515  0.2818  0.0007  0.0962
 1267ERGO    C217136  17.111  16.395   7.746  0.1096 -0.0886  0.0299
 1268ERGO   ROH17137  13.179   0.916   6.937 -0.0817 -0.1377 -0.0482
 1268ERGO    R117138  13.160   0.826   7.205 -0.1435 -0.1929 -0.0709
 1268ERGO    R217139  13.241   0.980   7.419  0.1525 -0.3774 -0.0449
 1268ERGO    R317140  12.989   0.932   7.508  0.0980 -0.0217  0.0095
 1268ERGO    R417141  13.149   0.967   7.752  0.2999 -0.6549 -0.0118
 1268ERGO    R517142  13.020   0.797   7.704 -0.0508 -0.3553 -0.1861
 1268ERGO    C117143  12.858   0.914   8.029  0.3346 -0.4824  0.0585
 1268ERGO    C217144  12.614   0.905   8.229  0.1328 -0.0924  0.0135
 1269ERGO   ROH17145   1.524   0.530   6.797 -0.2306 -0.1201  0.1519
 1269ERGO    R117146   1.560   0.638   7.056  0.0732 -0.0584  0.0888
 1269ERGO    R217147   1.410   0.557   7.274  0.0190  0.3024  0.2007
 1269ERGO    R317148   1.654   0.511   7.384 -0.0026 -0.0760  0.1011
 1269ERGO    R417149   1.467   0.496   7.609  0.0638  0.0380  0.1460
 1269ERGO    R517150   1.645   0.620   7.597  0.2164 -0.1883  0.1636
 1269ERGO    C117151   1.729   0.416   7.908  0.0696 -0.4711  0.0206
 1269ERGO    C217152   2.003   0.409   8.168 -0.0610  0.1595 -0.0530
 1270ERGO   ROH17153  11.659   9.793   6.608 -0.0692 -0.1528 -0.0268
 1270ERGO    R117154  11.593   9.867   6.873 -0.0669 -0.0970 -0.0408
 1270ERGO    R217155  11.698   9.739   7.094 -0.0597 -0.0529 -0.0144
 1270ERGO    R317156  11.773   9.990   7.165 -0.0598 -0.0327 -0.0712
 1270ERGO    R417157  11.854   9.822   7.391 -0.1542  0.0321  0.0112
 1270ERGO    R517158  11.730  10.001   7.401 -0.1415  0.0495 -0.0892
 1270ERGO    C117159  12.015  10.107   7.631 -0.2093  0.1007 -0.0272
 1270ERGO    C217160  12.018  10.154   7.911 -0.1712  0.1558 -0.0471
 1271ERGO   ROH17161  16.210  17.823   6.822 -0.0171 -0.1749 -0.0097
 1271ERGO    R117162  16.072  17.751   7.058 -0.0326 -0.0772  0.0115
 1271ERGO    R217163  16.029  17.487   7.131 -0.1153 -0.0472  0.0721
 1271ERGO    R317164  16.148  17.566   7.363 -0.0820 -0.0333  0.0506
 1271ERGO    R417165  15.972  17.345   7.441 -0.1039  0.0008  0.0965
 1271ERGO    R517166  15.976  17.545   7.528 -0.0686  0.0112  0.0704
 1271ERGO    C117167  16.050  17.336   7.838 -0.0659  0.0416  0.0904
 1271ERGO    C217168  15.996  17.259   8.219 -0.0669 -0.0349 -0.0667
 1272ERGO   ROH17169   9.530   8.544   6.712 -0.0197  0.0002 -0.0569
 1272ERGO    R117170   9.562   8.554   6.993 -0.0046  0.0090 -0.0591
 1272ERGO    R217171   9.798   8.631   7.113  0.0151 -0.0280 -0.0746
 1272ERGO    R317172   9.636   8.808   7.242  0.0535  0.0081 -0.0757
 1272ERGO    R417173   9.870   8.779   7.417  0.0590 -0.0215 -0.0880
 1272ERGO    R517174   9.661   8.753   7.474  0.0579  0.0184 -0.0736
 1272ERGO    C117175   9.761   9.031   7.715  0.1208  0.0163 -0.0969
 1272ERGO    C217176   9.926   9.343   7.867  0.1420  0.0329 -0.0147
 1273ERGO   ROH17177   8.111  16.472   6.667 -0.0517  0.2493 -0.1551
 1273ERGO    R117178   7.849  16.521   6.762 -0.0590  0.1085 -0.1035
 1273ERGO    R217179   7.733  16.370   6.962  0.0848  0.0839 -0.0436
 1273ERGO    R317180   7.695  16.613   7.079 -0.0429  0.0870 -0.0880
 1273ERGO    R417181   7.564  16.422   7.259  0.1516  0.0299  0.0053
 1273ERGO    R517182   7.474  16.601   7.171 -0.0061 -0.0492 -0.0077
 1273ERGO    C117183   7.429  16.681   7.541  0.0707  0.0015 -0.0080
 1273ERGO    C217184   7.337  16.688   7.872  0.1022  0.0984 -0.0137
 1274ERGO   ROH17185  12.048  13.030   6.427 -0.1888 -0.0950  0.0590
 1274ERGO    R117186  12.017  13.115   6.695 -0.0212 -0.0054  0.0518
 1274ERGO    R217187  12.173  13.314   6.808 -0.0525  0.1434 -0.1568
 1274ERGO    R317188  11.932  13.424   6.866 -0.0775  0.0108 -0.0070
 1274ERGO    R417189  12.121  13.562   7.042 -0.0618  0.0506 -0.0608
 1274ERGO    R517190  11.939  13.460   7.103  0.0181 -0.0534 -0.0012
 1274ERGO    C117191  11.864  13.810   7.234 -0.0907 -0.1279  0.1357
 1274ERGO    C217192  11.732  14.124   7.252 -0.0093  0.0908 -0.1324
 1275ERGO   ROH17193   9.344   6.947  10.222  0.0021  0.0107 -0.0135
 1275ERGO    R117194   9.290   6.822   9.974  0.0487  0.0424 -0.0400
 1275ERGO    R217195   9.075   6.892   9.815  0.0697  0.0516 -0.0637
 1275ERGO    R317196   9.266   6.923   9.625  0.0974  0.0901 -0.0295
 1275ERGO    R417197   9.015   6.900   9.475  0.1611 -0.2717 -0.0899
 1275ERGO    R517198   9.196   6.781   9.446  0.2882 -0.1208  0.0581
 1275ERGO    C117199   9.161   6.933   9.098  0.2402 -0.4239 -0.0733
 1275ERGO    C217200   9.282   6.993   8.817 -0.1603 -0.0923 -0.1429
 1276ERGO   ROH17201   1.000   1.963   6.819  0.0398 -0.0488 -0.0438
 1276ERGO    R117202   1.140   1.893   7.055 -0.0088 -0.1006 -0.0308
 1276ERGO    R217203   1.168   2.066   7.268  0.0167 -0.1200 -0.0224
 1276ERGO    R317204   1.062   1.859   7.408 -0.0588 -0.0945 -0.0402
 1276ERGO    R417205   1.129   2.060   7.611  0.0828 -0.1575 -0.0150
 1276ERGO    R517206   1.191   1.851   7.610 -0.0192 -0.1924 -0.0657
 1276ERGO    C117207   1.007   1.862   7.943  0.0505 -0.1555 -0.0273
 1276ERGO    C217208   0.790   1.697   8.126  0.0777  0.0182  0.0040
 1277ERGO   ROH17209  16.178   8.350   6.462  0.1698 -0.1297 -0.0606
 1277ERGO    R117210  16.152   8.431   6.732  0.2069 -0.0512 -0.0805
 1277ERGO    R217211  16.148   8.251   6.941  0.0253 -0.0061 -0.0459
 1277ERGO    R317212  16.350   8.406   7.037  0.1497 -0.1610 -0.0507
 1277ERGO    R417213  16.287   8.222   7.256 -0.1512  0.0331  0.0372
 1277ERGO    R517214  16.295   8.440   7.268  0.0755  0.0375 -0.0934
 1277ERGO    C117215  16.558   8.351   7.529 -0.1371 -0.0896  0.0811
 1277ERGO    C217216  16.560   8.243   7.795 -0.2073 -0.3979  0.0242
 1278ERGO   ROH17217   8.422   8.285   9.971 -0.1020 -0.0718 -0.1087
 1278ERGO    R117218   8.491   8.347   9.703 -0.1539  0.0146 -0.1017
 1278ERGO    R217219   8.653   8.184   9.550 -0.0769  0.1334 -0.1398
 1278ERGO    R317220   8.444   8.194   9.377 -0.0911  0.0500 -0.1290
 1278ERGO    R417221   8.681   8.163   9.206 -0.0868  0.0409 -0.1358
 1278ERGO    R517222   8.528   8.317   9.189 -0.1174  0.0146 -0.1693
 1278ERGO    C117223   8.501   8.159   8.843 -0.1059 -0.0913 -0.1232
 1278ERGO    C217224   8.454   8.222   8.560  0.0543  0.2701  0.1656
 1279ERGO   ROH17225   3.408  14.371  10.242  0.0632  0.1093  0.0668
 1279ERGO    R117226   3.295  14.442   9.992 -0.0212 -0.0902  0.0455
 1279ERGO    R217227   3.380  14.663   9.848 -0.3567  0.0455  0.0429
 1279ERGO    R317228   3.413  14.479   9.650 -0.0279  0.0785  0.0608
 1279ERGO    R417229   3.300  14.713   9.516  0.0688  0.0507 -0.0642
 1279ERGO    R517230   3.223  14.510   9.508  0.1492  0.0256 -0.1917
 1279ERGO    C117231   3.285  14.571   9.136  0.6252  0.0846 -0.1096
 1279ERGO    C217232   3.248  14.669   8.852  0.1636 -0.2476 -0.3051
 1280ERGO   ROH17233   1.678  12.448   6.429  0.1101  0.0544  0.0194
 1280ERGO    R117234   1.625  12.514   6.699  0.2469  0.0055  0.0586
 1280ERGO    R217235   1.422  12.395   6.844  0.1039  0.2178  0.0358
 1280ERGO    R317236   1.623  12.338   7.018  0.0604 -0.1414 -0.0212
 1280ERGO    R417237   1.379  12.244   7.152 -0.0865  0.3491  0.0757
 1280ERGO    R517238   1.528  12.382   7.234  0.2109  0.0818  0.0039
 1280ERGO    C117239   1.543  12.104   7.496 -0.2383  0.0882  0.0454
 1280ERGO    C217240   1.591  12.023   7.808  0.1292 -0.0717  0.0521
 1281ERGO   ROH17241   4.414  12.765   6.508 -0.0571 -0.0069 -0.1159
 1281ERGO    R117242   4.276  12.711   6.750 -0.1550  0.0499 -0.1576
 1281ERGO    R217243   4.396  12.585   6.964 -0.3452 -0.2409 -0.2127
 1281ERGO    R317244   4.310  12.804   7.100 -0.0503 -0.1893 -0.1033
 1281ERGO    R417245   4.355  12.601   7.307 -0.1240 -0.2810 -0.1834
 1281ERGO    R517246   4.172  12.715   7.275 -0.0318 -0.0947 -0.0431
 1281ERGO    C117247   4.250  12.816   7.634  0.2818 -0.2559 -0.0635
 1281ERGO    C217248   4.360  12.887   7.993 -0.2004 -0.1545  0.2991
 1282ERGO   ROH17249  15.634  11.705   6.708  0.2346  0.0542 -0.0952
 1282ERGO    R117250  15.546  11.690   6.977  0.1385  0.0206 -0.1274
 1282ERGO    R217251  15.425  11.464   7.081  0.2811 -0.0705 -0.1411
 1282ERGO    R317252  15.621  11.486   7.269  0.1945  0.1236 -0.0717
 1282ERGO    R417253  15.445  11.275   7.370  0.3059  0.0515 -0.0629
 1282ERGO    R517254  15.508  11.454   7.477  0.1451  0.1253 -0.1045
 1282ERGO    C117255  15.640  11.186   7.714  0.2389  0.3047  0.0478
 1282ERGO    C217256  15.956  11.131   8.031  0.0059 -0.1379 -0.2253
 1283ERGO   ROH17257  11.542   3.451   6.893  0.0686  0.1453 -0.0639
 1283ERGO    R117258  11.332   3.544   7.058  0.0700  0.1796 -0.0818
 1283ERGO    R217259  11.270   3.427   7.300 -0.1106  0.0496 -0.1890
 1283ERGO    R317260  11.300   3.681   7.393  0.0360 -0.0359  0.0049
 1283ERGO    R417261  11.120   3.552   7.586 -0.1001 -0.0606 -0.1347
 1283ERGO    R517262  11.084   3.739   7.479  0.0510  0.0444 -0.0087
 1283ERGO    C117263  11.061   3.863   7.840  0.0435 -0.2050  0.0790
 1283ERGO    C217264  11.131   4.094   8.118  0.1480  0.1541 -0.3557
 1284ERGO   ROH17265   9.069  11.920  10.021 -0.1581 -0.1043  0.0688
 1284ERGO    R117266   8.950  11.928   9.765 -0.1402 -0.1661  0.0580
 1284ERGO    R217267   9.034  12.101   9.567 -0.2607 -0.0686  0.0880
 1284ERGO    R317268   9.058  11.872   9.422 -0.0598 -0.0320  0.0615
 1284ERGO    R417269   9.083  12.088   9.225 -0.3549  0.0124  0.0715
 1284ERGO    R517270   8.945  11.920   9.216 -0.1771 -0.1370  0.1018
 1284ERGO    C117271   9.135  11.866   8.890 -0.2212  0.0938  0.0370
 1284ERGO    C217272   9.258  11.973   8.477 -0.1152  0.0475 -0.0686
 1285ERGO   ROH17273  12.358   3.191   6.767 -0.2417 -0.1000  0.0512
 1285ERGO    R117274  12.467   3.055   6.990 -0.2503 -0.1925 -0.0004
 1285ERGO    R217275  12.633   3.178   7.173 -0.0405 -0.3367 -0.0880
 1285ERGO    R317276  12.450   3.085   7.353 -0.0357 -0.1635  0.0078
 1285ERGO    R417277  12.684   3.158   7.515 -0.0164 -0.0494 -0.0727
 1285ERGO    R517278  12.581   2.965   7.514 -0.0370 -0.0396  0.1014
 1285ERGO    C117279  12.543   3.059   7.881  0.0022  0.2804  0.0262
 1285ERGO    C217280  12.343   3.319   8.130 -0.2904  0.0402  0.1268
 1286ERGO   ROH17281   2.715   3.442   6.575 -0.0406  0.0094  0.0299
 1286ERGO    R117282   2.809   3.368   6.832  0.0365  0.2313  0.0669
 1286ERGO    R217283   2.747   3.511   7.060 -0.2410  0.1950  0.0168
 1286ERGO    R317284   2.661   3.269   7.149  0.1377  0.0718  0.0655
 1286ERGO    R417285   2.725   3.420   7.392 -0.1800  0.2554  0.0383
 1286ERGO    R517286   2.801   3.223   7.338  0.1670  0.3606  0.1187
 1286ERGO    C117287   2.632   3.140   7.670  0.2110  0.1749  0.0964
 1286ERGO    C217288   2.302   3.187   7.855 -0.0203 -0.0261  0.0405
 1287ERGO   ROH17289   6.029  14.505   6.457  0.0942 -0.0230 -0.0686
 1287ERGO    R117290   6.030  14.516   6.740  0.0862 -0.0425 -0.0674
 1287ERGO    R217291   6.263  14.525   6.887  0.0823  0.0187 -0.0620
 1287ERGO    R317292   6.148  14.747   6.995  0.0117 -0.0239 -0.0506
 1287ERGO    R417293   6.392  14.705   7.153  0.0365  0.0651 -0.0712
 1287ERGO    R517294   6.189  14.726   7.231  0.0371 -0.0089 -0.0553
 1287ERGO    C117295   6.359  15.018   7.409 -0.0565  0.0521 -0.0659
 1287ERGO    C217296   6.483  15.146   7.770  0.1114  0.0876  0.2759
 1288ERGO   ROH17297   1.328   3.625   6.723 -0.3224 -0.0735 -0.2079
 1288ERGO    R117298   1.277   3.612   7.001 -0.0947 -0.1478 -0.1671
 1288ERGO    R217299   1.105   3.785   7.130  0.1149 -0.0880  0.0492
 1288ERGO    R317300   0.988   3.555   7.216  0.0489 -0.0518  0.0545
 1288ERGO    R417301   0.939   3.749   7.431 -0.1229  0.0341 -0.0647
 1288ERGO    R517302   1.031   3.552   7.451 -0.1382  0.0450  0.0895
 1288ERGO    C117303   0.734   3.511   7.687 -0.3234  0.1393 -0.1262
 1288ERGO    C217304   0.481   3.405   8.057 -0.4091  0.2301  0.0507
 1289ERGO   ROH17305   3.084  10.216   6.498 -0.1772 -0.1608 -0.0378
 1289ERGO    R117306   2.962  10.262   6.749 -0.1307 -0.0934 -0.0267
 1289ERGO    R217307   2.889  10.056   6.920 -0.0752 -0.0484  0.0555
 1289ERGO    R317308   3.042  10.194   7.098 -0.0512  0.0248 -0.0216
 1289ERGO    R417309   2.853  10.044   7.263  0.0281  0.0309  0.0694
 1289ERGO    R517310   2.889  10.259   7.270 -0.0119  0.0377  0.0062
 1289ERGO    C117311   2.974  10.167   7.630  0.1107  0.1460  0.0051
 1289ERGO    C217312   3.196  10.030   7.915 -0.1111 -0.1459  0.0811
 1290ERGO   ROH17313  12.989  13.747   6.807 -0.1722 -0.2741 -0.0178
 1290ERGO    R117314  13.084  13.550   6.985 -0.1722 -0.1793  0.0887
 1290ERGO    R217315  13.304  13.589   7.148 -0.0435 -0.1656 -0.0832
 1290ERGO    R317316  13.131  13.518   7.345  0.0377  0.0988  0.0889
 1290ERGO    R417317  13.396  13.478   7.462  0.0918 -0.1099 -0.1028
 1290ERGO    R517318  13.236  13.332   7.452 -0.0643  0.0441  0.0923
 1290ERGO    C117319  13.287  13.347   7.830  0.2469  0.1708  0.0473
 1290ERGO    C217320  13.160  13.190   8.190  0.3507  0.0957 -0.0054
 1291ERGO   ROH17321  13.711   2.834  10.815  0.0106 -0.2944  0.0575
 1291ERGO    R117322  13.867   2.943  10.605  0.1131 -0.2610  0.1508
 1291ERGO    R217323  14.121   2.852  10.545  0.0010 -0.4975  0.0343
 1291ERGO    R317324  14.016   2.822  10.297 -0.0631 -0.1245  0.0091
 1291ERGO    R417325  14.304   2.845  10.252 -0.0041 -0.6634  0.0333
 1291ERGO    R517326  14.149   2.964  10.158  0.2245 -0.2865  0.1076
 1291ERGO    C117327  14.312   2.812   9.848 -0.0673 -0.4098  0.0091
 1291ERGO    C217328  14.309   2.909   9.468  0.0315  0.0729 -0.4296
 1292ERGO   ROH17329   5.338   4.957   6.712 -0.0162 -0.0256 -0.0750
 1292ERGO    R117330   5.296   5.130   6.932  0.0495  0.0234 -0.0999
 1292ERGO    R217331   5.085   5.098   7.108 -0.0107  0.1717 -0.1432
 1292ERGO    R317332   5.283   5.098   7.294 -0.0446  0.0614 -0.0976
 1292ERGO    R417333   5.039   5.158   7.445 -0.0539  0.2252 -0.1590
 1292ERGO    R517334   5.223   5.274   7.445  0.0270  0.1161 -0.1260
 1292ERGO    C117335   5.197   5.192   7.816 -0.1108  0.1527 -0.1254
 1292ERGO    C217336   5.197   5.100   8.127  0.3163  0.0689 -0.0352
 1293ERGO   ROH17337  10.719  13.613   6.063 -0.1538  0.0998  0.0309
 1293ERGO    R117338  10.665  13.646   6.339 -0.2240  0.0697  0.0212
 1293ERGO    R217339  10.865  13.688   6.525 -0.2449 -0.2327  0.1175
 1293ERGO    R317340  10.716  13.907   6.588 -0.0100 -0.0726  0.1296
 1293ERGO    R417341  10.860  13.842   6.835 -0.0265 -0.2012  0.1062
 1293ERGO    R517342  10.645  13.868   6.813 -0.0067  0.0182  0.1467
 1293ERGO    C117343  10.718  14.137   7.074  0.3210 -0.0325  0.1110
 1293ERGO    C217344  10.580  14.323   7.156  0.0595  0.1905 -0.2896
 1294ERGO   ROH17345   4.793  17.486   6.489 -0.1022  0.2446  0.0711
 1294ERGO    R117346   4.937  17.422   6.725 -0.1221 -0.0086  0.0178
 1294ERGO    R217347   5.094  17.606   6.857  0.1803 -0.2543  0.0150
 1294ERGO    R317348   4.941  17.535   7.070  0.1357 -0.0835  0.0404
 1294ERGO    R417349   5.192  17.631   7.188  0.2536 -0.3419 -0.0004
 1294ERGO    R517350   5.096  17.439   7.226  0.0568 -0.2396  0.0221
 1294ERGO    C117351   5.105  17.578   7.580  0.2544 -0.2329  0.0145
 1294ERGO    C217352   5.069  17.508   7.873  0.4334 -0.0885 -0.2987
 1295ERGO   ROH17353   4.553   6.311   6.667  0.0761 -0.0508 -0.0386
 1295ERGO    R117354   4.685   6.407   6.898  0.0711 -0.1054 -0.0128
 1295ERGO    R217355   4.571   6.397   7.150  0.0247 -0.0740 -0.0309
 1295ERGO    R317356   4.801   6.266   7.213 -0.0319 -0.1581  0.0014
 1295ERGO    R417357   4.670   6.316   7.470  0.0809  0.1276  0.0039
 1295ERGO    R517358   4.874   6.370   7.416  0.0948 -0.0364 -0.1059
 1295ERGO    C117359   4.944   6.146   7.717  0.0606  0.1658  0.0545
 1295ERGO    C217360   5.132   6.068   8.032  0.2686 -0.0338  0.0631
 1296ERGO   ROH17361   6.542  15.398   6.285 -0.0047 -0.0157  0.0146
 1296ERGO    R117362   6.754  15.427   6.470 -0.0863 -0.1446  0.1295
 1296ERGO    R217363   6.892  15.664   6.503  0.2689 -0.3209 -0.0452
 1296ERGO    R317364   6.823  15.631   6.763  0.0291  0.0808 -0.0519
 1296ERGO    R417365   7.058  15.806   6.771  0.3804 -0.3719 -0.0863
 1296ERGO    R517366   7.032  15.619   6.879 -0.0631 -0.2179  0.0920
 1296ERGO    C117367   7.089  15.857   7.172  0.2203 -0.0245 -0.1165
 1296ERGO    C217368   7.220  16.072   7.335 -0.1968  0.0149  0.0116
 1297ERGO   ROH17369  11.376   9.949  10.228  0.3129  0.0855  0.0535
 1297ERGO    R117370  11.536   9.905   9.999  0.0701 -0.0778 -0.0893
 1297ERGO    R217371  11.453   9.747   9.787 -0.2390 -0.0714  0.0190
 1297ERGO    R317372  11.509   9.970   9.642 -0.2211 -0.1401 -0.0797
 1297ERGO    R417373  11.480   9.757   9.443 -0.1076 -0.2455  0.0228
 1297ERGO    R517374  11.649   9.892   9.465 -0.1411 -0.2076  0.0154
 1297ERGO    C117375  11.548   9.972   9.106 -0.0142 -0.4114 -0.0674
 1297ERGO    C217376  11.540   9.976   8.744 -0.1187  0.1061  0.0370
 1298ERGO   ROH17377   1.003   9.972   6.387  0.1255  0.0812 -0.0849
 1298ERGO    R117378   0.925   9.939   6.657  0.1035  0.1258 -0.0855
 1298ERGO    R217379   0.981   9.710   6.801  0.0187  0.1149 -0.0676
 1298ERGO    R317380   1.092   9.886   6.976  0.0734  0.0885 -0.0761
 1298ERGO    R417381   1.016   9.656   7.141 -0.1833  0.2028 -0.0314
 1298ERGO    R517382   0.960   9.864   7.175 -0.0383  0.2584 -0.1295
 1298ERGO    C117383   1.141   9.790   7.502 -0.2496  0.2292 -0.0183
 1298ERGO    C217384   1.264   9.493   7.742  0.0780  0.0496  0.1621
 1299ERGO   ROH17385   5.084  12.127   6.168 -0.0892  0.0329  0.0651
 1299ERGO    R117386   5.275  12.168   6.373  0.0161 -0.0906 -0.0067
 1299ERGO    R217387   5.209  12.275   6.618  0.2075  0.1086 -0.0390
 1299ERGO    R317388   5.327  12.049   6.713 -0.0317  0.0127  0.0368
 1299ERGO    R417389   5.308  12.227   6.946  0.3700  0.2113 -0.0719
 1299ERGO    R517390   5.488  12.129   6.872  0.1895 -0.0879 -0.1315
 1299ERGO    C117391   5.476  11.987   7.226  0.2401  0.1809 -0.0198
 1299ERGO    C217392   5.473  11.670   7.475 -0.0423  0.0326  0.1727
 1300ERGO   ROH17393   4.021  13.703   6.307  0.1119 -0.0969 -0.0512
 1300ERGO    R117394   3.880  13.764   6.545  0.0091 -0.1461 -0.0991
 1300ERGO    R217395   3.956  13.668   6.792 -0.1023 -0.2010 -0.0881
 1300ERGO    R317396   3.953  13.931   6.860 -0.1268 -0.2167 -0.0282
 1300ERGO    R417397   3.973  13.788   7.116 -0.2050 -0.2851 -0.0510
 1300ERGO    R517398   3.825  13.939   7.062 -0.1930 -0.2714 -0.0641
 1300ERGO    C117399   3.981  14.105   7.368 -0.2877 -0.3486  0.0269
 1300ERGO    C217400   3.991  14.172   7.615 -0.2147 -0.0295  0.0526
 1301ERGO   ROH17401  12.681  10.724  10.266  0.1956 -0.1100  0.0378
 1301ERGO    R117402  12.666  10.850  10.013  0.0323 -0.1482  0.0285
 1301ERGO    R217403  12.887  10.888   9.851 -0.0402 -0.0009 -0.0344
 1301ERGO    R317404  12.734  10.759   9.667  0.0054 -0.1333  0.0186
 1301ERGO    R417405  12.901  10.941   9.510 -0.0145 -0.1807 -0.0628
 1301ERGO    R517406  12.684  10.926   9.504 -0.0125 -0.2299 -0.0775
 1301ERGO    C117407  12.766  10.850   9.139  0.0434 -0.4099 -0.0294
 1301ERGO    C217408  12.797  10.811   8.771 -0.0675  0.3941  0.1035
 1302ERGO   ROH17409   8.022   2.482  10.304 -0.0098 -0.0554  0.1776
 1302ERGO    R117410   8.073   2.579  10.043  0.0626 -0.0922  0.1788
 1302ERGO    R217411   8.211   2.433   9.854 -0.1792 -0.2585  0.1324
 1302ERGO    R317412   7.990   2.480   9.703 -0.1520  0.0608  0.1826
 1302ERGO    R417413   8.203   2.426   9.509 -0.2691 -0.2888  0.1338
 1302ERGO    R517414   8.073   2.600   9.513 -0.0085 -0.0819  0.1477
 1302ERGO    C117415   7.991   2.466   9.166 -0.2960 -0.0067  0.1820
 1302ERGO    C217416   8.034   2.470   8.833 -0.0109  0.0844 -0.2689
 1303ERGO   ROH17417   0.081  11.960   6.667 -0.2089 -0.0275 -0.1091
 1303ERGO    R117418   0.067  11.979   6.949 -0.1089  0.0393 -0.1080
 1303ERGO    R217419   0.262  12.104   7.100 -0.0586  0.0814 -0.2071
 1303ERGO    R317420   0.051  12.245   7.196 -0.0287  0.0977 -0.1654
 1303ERGO    R417421   0.192  12.151   7.435  0.0042  0.0772 -0.1931
 1303ERGO    R517422  -0.020  12.123   7.389 -0.0063  0.0983 -0.1570
 1303ERGO    C117423  -0.048  12.311   7.720  0.0688  0.0902 -0.1459
 1303ERGO    C217424  -0.069  12.536   7.953 -0.2550  0.2187 -0.2788
 1304ERGO   ROH17425  14.693   6.773   6.929 -0.2156 -0.0349 -0.1058
 1304ERGO    R117426  14.814   6.768   7.185 -0.2331 -0.2183 -0.1001
 1304ERGO    R217427  14.856   6.997   7.334  0.0500 -0.2869 -0.0722
 1304ERGO    R317428  14.718   6.860   7.524 -0.1351 -0.1362 -0.0935
 1304ERGO    R417429  14.823   7.095   7.664  0.0026 -0.1853 -0.1063
 1304ERGO    R517430  14.848   6.887   7.723 -0.1869 -0.1963 -0.0494
 1304ERGO    C117431  14.674   7.022   8.034 -0.1987  0.0154 -0.1460
 1304ERGO    C217432  14.545   6.908   8.305  0.0836  0.0873 -0.2146
 1305ERGO   ROH17433  17.080   2.242  10.622  0.0334  0.0855  0.1843
 1305ERGO    R117434  17.155   2.125  10.375  0.1181  0.1343  0.1864
 1305ERGO    R217435  16.971   2.053  10.182  0.1564 -0.1181  0.2369
 1305ERGO    R317436  17.125   2.211  10.023 -0.0639  0.0448  0.1801
 1305ERGO    R417437  16.958   2.058   9.837  0.0604 -0.1551  0.2397
 1305ERGO    R517438  17.175   2.073   9.834  0.0416  0.0899  0.1781
 1305ERGO    C117439  17.095   2.209   9.486 -0.2024 -0.0237  0.1882
 1305ERGO    C217440  17.045   2.275   9.164 -0.2332  0.0999 -0.2830
 1306ERGO   ROH17441   7.867   4.204   6.542 -0.0232  0.0207  0.0937
 1306ERGO    R117442   7.929   4.238   6.816  0.0087 -0.1176  0.1033
 1306ERGO    R217443   7.752   4.350   6.996  0.0968 -0.0474  0.1424
 1306ERGO    R317444   7.797   4.119   7.133 -0.0702 -0.1268  0.0681
 1306ERGO    R417445   7.634   4.282   7.314  0.1224 -0.0229  0.1580
 1306ERGO    R517446   7.825   4.190   7.360  0.0566 -0.2086  0.0810
 1306ERGO    C117447   7.606   4.027   7.627 -0.0195 -0.0831  0.0973
 1306ERGO    C217448   7.324   3.979   7.859 -0.2838  0.0007 -0.0881
 1307ERGO   ROH17449   0.608  15.401   8.237 -0.1073  0.0039  0.2027
 1307ERGO    R117450   0.435  15.620   8.194 -0.0706  0.0065  0.0607
 1307ERGO    R217451   0.371  15.801   8.393 -0.2927 -0.0362  0.0346
 1307ERGO    R317452   0.457  15.983   8.210 -0.0986  0.0032  0.1628
 1307ERGO    R417453   0.254  16.125   8.367 -0.3775 -0.0784 -0.1231
 1307ERGO    R517454   0.260  16.104   8.150 -0.0588 -0.0682 -0.1173
 1307ERGO    C117455   0.267  16.485   8.181 -0.2445 -0.0661 -0.0946
 1307ERGO    C217456   0.109  16.845   8.220  0.0415  0.0100  0.3741
 1308ERGO   ROH17457   9.936  16.355   6.792  0.2645 -0.1329 -0.0365
 1308ERGO    R117458  10.066  16.257   7.023  0.0859 -0.2120  0.0315
 1308ERGO    R217459  10.057  16.388   7.266  0.1330 -0.1466 -0.0076
 1308ERGO    R317460   9.968  16.148   7.356 -0.1389 -0.0386  0.0257
 1308ERGO    R417461  10.039  16.295   7.599  0.2666 -0.1607 -0.0031
 1308ERGO    R517462  10.110  16.097   7.542 -0.0544 -0.2614 -0.0907
 1308ERGO    C117463   9.945  16.015   7.877  0.0892 -0.0675  0.0310
 1308ERGO    C217464   9.709  16.018   8.089 -0.0156  0.0430  0.1780
 1309ERGO   ROH17465  12.115  11.826   6.463  0.0999 -0.2452  0.0762
 1309ERGO    R117466  12.042  12.067   6.592  0.1112 -0.2090  0.0165
 1309ERGO    R217467  11.889  12.073   6.821 -0.0247 -0.1363 -0.0703
 1309ERGO    R317468  12.097  12.221   6.917 -0.0250 -0.2088  0.0384
 1309ERGO    R417469  11.876  12.273   7.103 -0.1872  0.0890 -0.2347
 1309ERGO    R517470  11.995  12.422   6.997  0.0293 -0.0758 -0.2237
 1309ERGO    C117471  12.063  12.528   7.357 -0.2818  0.1522 -0.2284
 1309ERGO    C217472  12.267  12.681   7.616 -0.1873  0.0514  0.0168
 1310ERGO   ROH17473   3.083  13.083   6.333  0.1037 -0.1898 -0.0221
 1310ERGO    R117474   3.093  13.145   6.609 -0.1382 -0.1795 -0.0147
 1310ERGO    R217475   2.982  12.982   6.803  0.0871 -0.4057 -0.0787
 1310ERGO    R317476   3.231  12.993   6.910  0.0274  0.0716  0.0415
 1310ERGO    R417477   3.051  12.987   7.141 -0.0914 -0.6010 -0.0362
 1310ERGO    R517478   3.207  13.134   7.102 -0.4049 -0.1750  0.1884
 1310ERGO    C117479   3.325  12.999   7.439 -0.2515 -0.2667  0.1014
 1310ERGO    C217480   3.318  12.779   7.697  0.1387  0.2397  0.4562
 1311ERGO   ROH17481  14.867  13.499   6.566 -0.0069 -0.0962  0.0295
 1311ERGO    R117482  14.882  13.657   6.800 -0.1882 -0.0182 -0.0098
 1311ERGO    R217483  14.680  13.664   6.988 -0.1244 -0.3440  0.0774
 1311ERGO    R317484  14.881  13.599   7.159  0.0743  0.0487  0.0034
 1311ERGO    R417485  14.664  13.690   7.333 -0.0206 -0.3133  0.0801
 1311ERGO    R517486  14.869  13.764   7.332 -0.1488  0.0600 -0.0220
 1311ERGO    C117487  14.843  13.644   7.693  0.2263  0.0733  0.0122
 1311ERGO    C217488  14.668  13.415   7.878  0.0831  0.3171  0.0264
 1312ERGO   ROH17489  17.065  14.041   6.939  0.0865  0.0207  0.0125
 1312ERGO    R117490  16.933  13.913   7.155 -0.0722  0.1008 -0.0351
 1312ERGO    R217491  17.068  13.821   7.378 -0.1930 -0.0911 -0.0397
 1312ERGO    R317492  16.888  13.975   7.511 -0.0551  0.0615 -0.0259
 1312ERGO    R417493  17.075  13.885   7.717 -0.1778 -0.1922 -0.0207
 1312ERGO    R517494  16.858  13.864   7.720 -0.2028  0.0322 -0.0607
 1312ERGO    C117495  16.910  14.066   8.040 -0.0394 -0.1077  0.0033
 1312ERGO    C217496  17.059  14.335   8.201  0.2217  0.0670  0.1046
 1313ERGO   ROH17497  15.025   8.048   6.383  0.1420 -0.1432  0.0272
 1313ERGO    R117498  15.189   8.017   6.612  0.1420 -0.0079  0.0473
 1313ERGO    R217499  15.203   8.208   6.812 -0.0242  0.0162  0.0445
 1313ERGO    R317500  15.139   7.997   6.972  0.1142 -0.0281  0.0407
 1313ERGO    R417501  15.231   8.205   7.157 -0.1536  0.0672  0.0555
 1313ERGO    R517502  15.305   8.001   7.144  0.0418  0.1400  0.1028
 1313ERGO    C117503  15.188   8.006   7.507 -0.0989  0.0554  0.0583
 1313ERGO    C217504  15.192   8.061   7.857 -0.0077 -0.0107 -0.1110
 1314ERGO   ROH17505  10.399   8.901   6.725  0.2489 -0.0151 -0.1777
 1314ERGO    R117506  10.323   9.142   6.853  0.0264 -0.1307 -0.0868
 1314ERGO    R217507  10.475   9.258   7.053 -0.0321 -0.0182 -0.1082
 1314ERGO    R317508  10.462   9.476   6.892 -0.3275  0.0164 -0.0441
 1314ERGO    R417509  10.410   9.579   7.162  0.3051 -0.0199  0.1102
 1314ERGO    R517510  10.285   9.608   6.985 -0.0888  0.0526  0.3850
 1314ERGO    C117511  10.361   9.972   7.074  0.2240  0.0117  0.2975
 1314ERGO    C217512  10.371  10.264   7.323 -0.0085  0.1557  0.1651
 1315ERGO   ROH17513  16.710   5.550   6.775 -0.1030  0.1230  0.1491
 1315ERGO    R117514  16.722   5.455   7.042 -0.0511  0.0572  0.1236
 1315ERGO    R217515  16.945   5.489   7.202 -0.0935  0.1952  0.1531
 1315ERGO    R317516  16.766   5.601   7.372 -0.2026  0.0004  0.1701
 1315ERGO    R417517  16.985   5.512   7.544 -0.0486  0.2994  0.1412
 1315ERGO    R517518  16.774   5.463   7.567  0.0116  0.0382  0.1916
 1315ERGO    C117519  16.840   5.630   7.904 -0.1248  0.1772  0.1503
 1315ERGO    C217520  16.887   5.635   8.227 -0.2209  0.0462  0.2412
 1316ERGO   ROH17521   0.723   2.714   8.652 -0.3939 -0.4017 -0.0862
 1316ERGO    R117522   0.875   2.726   8.891 -0.2377 -0.3532 -0.1872
 1316ERGO    R217523   0.845   2.929   9.076  0.0096 -0.2182 -0.2917
 1316ERGO    R317524   0.807   2.722   9.248 -0.0200 -0.0886 -0.1392
 1316ERGO    R417525   0.880   2.948   9.419  0.0614  0.0152 -0.3082
 1316ERGO    R517526   0.975   2.752   9.416  0.0111 -0.0129 -0.1831
 1316ERGO    C117527   0.865   2.765   9.781  0.0638  0.2727 -0.1746
 1316ERGO    C217528   0.902   2.880  10.048 -0.2364  0.1029  0.2609
 1317ERGO   ROH17529   8.192  16.947   9.861  0.0699 -0.0551  0.1482
 1317ERGO    R117530   8.083  16.884   9.607  0.0813 -0.0291  0.1373
 1317ERGO    R217531   8.041  17.076   9.412  0.0110  0.0033  0.1873
 1317ERGO    R317532   8.191  16.907   9.260  0.0596  0.0906  0.1371
 1317ERGO    R417533   8.035  17.064   9.067 -0.1050  0.0042  0.1888
 1317ERGO    R517534   8.046  16.846   9.079  0.0283  0.0063  0.1866
 1317ERGO    C117535   8.172  16.899   8.723 -0.1267  0.0867  0.1426
 1317ERGO    C217536   8.136  16.827   8.376  0.0500  0.0293  0.3347
 1318ERGO   ROH17537  13.356  12.664   6.639 -0.0509  0.1769  0.0920
 1318ERGO    R117538  13.472  12.508   6.845  0.0987  0.2379  0.0545
 1318ERGO    R217539  13.645  12.615   7.032 -0.0211  0.3662  0.0902
 1318ERGO    R317540  13.469  12.508   7.209  0.0795  0.1332  0.0553
 1318ERGO    R417541  13.720  12.530   7.359  0.0747  0.2824  0.0477
 1318ERGO    R517542  13.598  12.351   7.335  0.2254  0.1853 -0.0249
 1318ERGO    C117543  13.598  12.381   7.715  0.2250  0.0149 -0.0098
 1318ERGO    C217544  13.731  12.479   7.937 -0.4039  0.2345  0.2216
 1319ERGO   ROH17545  17.392   3.489   6.627 -0.1964  0.0320  0.0364
 1319ERGO    R117546  17.400   3.666   6.848 -0.0642 -0.0009  0.0572
 1319ERGO    R217547  17.300   3.598   7.097  0.0809 -0.0338  0.1010
 1319ERGO    R317548  17.550   3.668   7.179  0.1290 -0.0481 -0.0265
 1319ERGO    R417549  17.381   3.709   7.414  0.2155  0.1053  0.0210
 1319ERGO    R517550  17.515   3.854   7.325  0.2186  0.0354 -0.1040
 1319ERGO    C117551  17.662   3.838   7.676  0.3387  0.1728 -0.1453
 1319ERGO    C217552  17.815   4.112   7.869  0.2389  0.0491 -0.2019
 1320ERGO   ROH17553  10.608  10.742   6.507  0.1129 -0.1407 -0.0346
 1320ERGO    R117554  10.698  10.831   6.760  0.0978 -0.1667 -0.0208
 1320ERGO    R217555  10.534  10.967   6.937  0.1120 -0.1162 -0.0524
 1320ERGO    R317556  10.611  10.770   7.108  0.0224 -0.1356 -0.0327
 1320ERGO    R417557  10.433  10.942   7.266 -0.0914 -0.1628 -0.1161
 1320ERGO    R517558  10.636  10.881   7.319 -0.1138 -0.1569 -0.0001
 1320ERGO    C117559  10.447  10.743   7.619 -0.2939 -0.2081 -0.1348
 1320ERGO    C217560  10.212  10.761   7.927 -0.0798  0.1489  0.1960
 1321ERGO   ROH17561   9.940   7.704   6.533  0.2171  0.0429  0.0483
 1321ERGO    R117562   9.824   7.577   6.757 -0.0590  0.1004 -0.0588
 1321ERGO    R217563   9.913   7.619   7.015 -0.1080 -0.1406 -0.0048
 1321ERGO    R317564   9.652   7.680   7.061 -0.0482  0.2017 -0.0847
 1321ERGO    R417565   9.773   7.665   7.328 -0.2249 -0.4367 -0.0106
 1321ERGO    R517566   9.596   7.557   7.259 -0.3662 -0.0514 -0.3139
 1321ERGO    C117567   9.446   7.748   7.552 -0.2370 -0.2879 -0.0890
 1321ERGO    C217568   9.275   7.938   7.743  0.0226 -0.0296  0.0410
 1322ERGO   ROH17569  11.634  14.836   7.153 -0.1502  0.2886  0.1932
 1322ERGO    R117570  11.635  14.625   7.341 -0.0239  0.3381  0.2493
 1322ERGO    R217571  11.529  14.650   7.594 -0.3293  0.2503  0.1331
 1322ERGO    R317572  11.386  14.431   7.521  0.0740  0.0073  0.0398
 1322ERGO    R417573  11.430  14.398   7.809 -0.3268  0.2536  0.1388
 1322ERGO    R517574  11.477  14.253   7.654  0.1131  0.2113  0.2964
 1322ERGO    C117575  11.238  14.046   7.866  0.0532  0.0278  0.0547
 1322ERGO    C217576  10.998  13.802   7.778 -0.0197 -0.2229  0.1413
 1323ERGO   ROH17577  10.103  14.634  10.058  0.0326 -0.1134 -0.0570
 1323ERGO    R117578  10.183  14.490   9.828 -0.1333 -0.0123 -0.1811
 1323ERGO    R217579  10.044  14.502   9.589 -0.1912  0.2588 -0.1440
 1323ERGO    R317580  10.287  14.571   9.489 -0.1644  0.1546 -0.1495
 1323ERGO    R417581  10.127  14.504   9.254 -0.1236  0.0432 -0.1292
 1323ERGO    R517582  10.321  14.421   9.306 -0.1535  0.0440 -0.0502
 1323ERGO    C117583  10.403  14.569   8.964 -0.0590 -0.1801 -0.1260
 1323ERGO    C217584  10.321  14.513   8.676  0.1713 -0.2840 -0.3929
 1324W        W17585   8.893   2.301  14.431 -0.1716  0.0789  0.2884
 1325W        W17586   8.033  15.982  14.437  0.2922 -0.2057  0.1495
 1326W        W17587  11.234   2.061   5.310  0.4126  0.0689  0.0762
 1327W        W17588   1.438  17.397   2.653  0.0594  0.0603 -0.1567
 1328W        W17589  16.412  16.949   2.036  0.1634 -0.0838 -0.3542
 1329W        W17590   8.118   5.837   1.976  0.0823 -0.0185  0.1413
 1330W        W17591  15.814   3.264   6.077 -0.3783  0.2825  0.0516
 1331W        W17592   3.071  12.726  14.989  0.2666 -0.1231  0.2250
 1332W        W17593  12.352  11.754  12.533 -0.5123  0.1128 -0.0659
 1333W        W17594   7.411  15.325  15.471 -0.0796  0.2660  0.0273
 1334W        W17595   2.661   6.323   0.541  0.1827 -0.2659 -0.4044
 1335W        W17596   2.456  13.926  15.589 -0.0998 -0.2655 -0.4843
 1336W        W17597   3.319   2.834  12.389 -0.2202 -0.4786 -0.1359
 1337W        W17598   6.506  14.081  12.509 -0.1155 -0.1553 -0.3037
 1338W        W17599   1.773   8.821   3.433  0.0084 -0.0150  0.0098
 1339W        W17600  13.348  10.843  12.015 -0.2271  0.2621 -0.1643
 1340W        W17601   7.587   0.169   5.432  0.3566  0.0145  0.0749
 1341W        W17602   2.580   1.643   3.906 -0.0147  0.2047  0.1047
 1342W        W17603   3.902   5.982   2.963 -0.1492  0.2341 -0.2109
 1343W        W17604  12.596   9.803  15.245 -0.0793 -0.0224 -0.2570
 1344W        W17605   8.302  11.605   0.240  0.1499 -0.1047  0.1391
 1345W        W17606  17.162  12.354  14.773  0.3218 -0.2871  0.0688
 1346W        W17607  15.903   9.035   1.065 -0.2655 -0.2557  0.0582
 1347W        W17608  16.985   6.368  14.916 -0.0391 -0.0088  0.2243
 1348W        W17609   0.245  16.149  15.371 -0.0257  0.2674 -0.1331
 1349W        W17610   2.120  17.091   4.052 -0.2020  0.1859  0.1647
 1350W        W17611   7.112  10.795   3.544 -0.0118  0.2307 -0.1043
 1351W        W17612   6.263  10.202  16.022 -0.2075 -0.1775  0.2492
 1352W        W17613  17.398   4.534  16.672  0.2322  0.0194 -0.2452
 1353W        W17614   9.845   7.404  14.289 -0.1603 -0.2162 -0.0490
 1354W        W17615   2.814  17.461   1.379 -0.1340 -0.3618 -0.2553
 1355W        W17616   4.881   7.996  15.068 -0.0630  0.0499  0.0847
 1356W        W17617  11.078   2.717   4.890  0.1466 -0.2149 -0.0012
 1357W        W17618   6.272   4.105   1.935  0.1526 -0.1665  0.0327
 1358W        W17619   0.912  14.395   5.131 -0.1886 -0.2888  0.0438
 1359W        W17620   8.417   4.818   3.132  0.0155  0.4615  0.3332
 1360W        W17621   0.363   4.766   2.318  0.2217 -0.0004 -0.2126
 1361W        W17622   6.428   2.560   5.389 -0.2347 -0.2091  0.0461
 1362W        W17623   6.128   5.575   4.956 -0.4100  0.2081 -0.2373
 1363W        W17624   8.910  13.791  15.183 -0.2066  0.4613 -0.1573
 1364W        W17625  17.557   1.204  14.273 -0.1516  0.0385  0.0917
 1365W        W17626  11.833   4.684   3.903  0.1268 -0.0936 -0.1476
 1366W        W17627  12.423  13.233   0.840 -0.0055 -0.0263 -0.3890
 1367W        W17628   0.963  14.208  14.465 -0.2001  0.2114  0.1263
 1368W        W17629  15.713  10.621  11.806 -0.4167 -0.0526 -0.1338
 1369W        W17630  16.247  13.269   5.509 -0.0056 -0.2202  0.0097
 1370W        W17631   2.400  13.942  16.414  0.1138 -0.1925  0.2187
 1371W        W17632   6.909   7.688   3.643  0.1619  0.0273 -0.1221
 1372W        W17633   6.463   8.932   3.551  0.1529 -0.2837  0.2022
 1373W        W17634  17.331  10.237   5.460 -0.2666  0.0470 -0.2524
 1374W        W17635  15.070  13.169  13.164 -0.1634 -0.1775  0.1760
 1375W        W17636  16.965   4.281   2.175  0.0831  0.1189  0.2659
 1376W        W17637  13.907  15.951   0.116  0.1342 -0.1501  0.1765
 1377W        W17638   6.182   8.623  14.360  0.1106  0.0205  0.0755
 1378W        W17639   5.263  14.052  15.243 -0.0080  0.1830 -0.3291
 1379W        W17640  14.362   1.568   4.454  0.0994 -0.1390  0.1169
 1380W        W17641   3.625  14.513   3.865  0.3465  0.0700 -0.0560
 1381W        W17642  13.365   8.259   1.069  0.1122 -0.2563  0.1780
 1382W        W17643   5.048  17.042  12.777  0.2088 -0.0429  0.3704
 1383W        W17644   6.784  10.182  13.603 -0.2401  0.1058 -0.2539
 1384W        W17645   4.848  11.420  14.819 -0.1258 -0.0079 -0.1504
 1385W        W17646  15.180   9.091   5.816  0.1028 -0.0810  0.2790
 1386W        W17647  11.381  14.073  16.235  0.0291  0.1333  0.0244
 1387W        W17648   7.491  17.498   1.622 -0.1214 -0.3610 -0.0960
 1388W        W17649   7.273  16.997   2.936  0.0516  0.5239 -0.2422
 1389W        W17650   5.122   9.506   3.573  0.0342  0.0482  0.0566
 1390W        W17651   4.276  13.110  14.238 -0.1162 -0.1698  0.3067
 1391W        W17652   7.239   8.959  14.017 -0.0706  0.2706  0.0737
 1392W        W17653   1.125   1.956   4.076 -0.1796  0.0617  0.1600
 1393W        W17654   4.427  16.047  11.906  0.0599 -0.2963 -0.1426
 1394W        W17655   4.543   5.555   2.408  0.0019  0.0985  0.1121
 1395W        W17656   9.989   8.608  16.175 -0.0030 -0.1196  0.1825
 1396W        W17657   6.491  15.842   5.127 -0.0710 -0.0968  0.0336
 1397W        W17658  12.334   0.030  10.842  0.2459  0.2297  0.1644
 1398W        W17659   7.280  13.251  14.468  0.0824  0.0480 -0.0451
 1399W        W17660   8.233   0.267  13.626 -0.0249 -0.2345  0.1453
 1400W        W17661   0.852  11.566  14.627 -0.0855  0.0614  0.3089
 1401W        W17662   5.202  11.148   0.257 -0.1799  0.1106 -0.2848
 1402W        W17663   5.514   5.124   3.431 -0.4152  0.0890 -0.0042
 1403W        W17664  11.147   4.552   1.815  0.3433 -0.1573 -0.0227
 1404W        W17665  11.730  15.495  14.982  0.0656  0.0595  0.2535
 1405W        W17666   6.097   4.615  15.737 -0.0614  0.0435 -0.1131
 1406W        W17667   8.008  16.243   2.114 -0.0318  0.0139  0.1371
 1407W        W17668  11.952   2.518   2.477 -0.2187 -0.0874  0.1059
 1408W        W17669  12.976   2.600  15.122 -0.1720 -0.1037 -0.4182
 1409W        W17670   0.038  16.597   4.216 -0.1570 -0.0149 -0.1215
 1410W        W17671  14.061   2.557  15.184 -0.1034  0.3294 -0.0827
 1411W        W17672   7.628   1.597  15.735  0.0868  0.1944 -0.0537
 1412W        W17673  13.233   7.058   0.398 -0.0724 -0.0079 -0.0614
 1413W        W17674  10.772  17.857   2.335 -0.1679 -0.1452  0.1126
 1414W        W17675   8.907   7.727  14.292  0.3409 -0.2216 -0.2542
 1415W        W17676  15.852  16.014   5.444 -0.1423  0.0755  0.0610
 1416W        W17677   8.144   6.051   1.027 -0.2543  0.0539 -0.3225
 1417W        W17678   9.147  14.732  15.651 -0.2315  0.0057 -0.1974
 1418W        W17679   0.744   7.942  14.297 -0.0920  0.1395  0.0015
 1419W        W17680   1.966  11.826   3.880  0.0616  0.1306  0.0149
 1420W        W17681   0.760   1.529  12.909 -0.0003 -0.2092  0.0911
 1421W        W17682  14.934   8.227  16.838 -0.1348  0.2150 -0.2312
 1422W        W17683   6.031  17.718   0.533  0.2692 -0.1559  0.1011
 1423W        W17684   6.393  11.942  14.422 -0.0117  0.1339 -0.0515
 1424W        W17685   7.983  13.857   4.969 -0.1868  0.0266 -0.0259
 1425W        W17686  10.380  16.335   5.656  0.2577  0.0558 -0.0918
 1426W        W17687   4.117   0.409   3.567  0.0555 -0.1090 -0.1174
 1427W        W17688  13.887  13.828   1.861 -0.1127 -0.2693  0.0305
 1428W        W17689  10.796   4.422   1.075  0.3522  0.1607 -0.3893
 1429W        W17690  15.012  12.142  14.277 -0.0606 -0.0315  0.0089
 1430W        W17691  12.437  13.911  12.217  0.1619  0.1959  0.0468
 1431W        W17692  11.066  12.239   4.547 -0.2589 -0.1915  0.1900
 1432W        W17693   8.097  10.140  16.858 -0.2845  0.1188 -0.1744
 1433W        W17694   1.813   7.719  14.205  0.3525 -0.2103  0.0341
 1434W        W17695  10.495   6.757  15.291  0.0016  0.1606  0.0127
 1435W        W17696   4.364  12.864   0.143 -0.0290  0.2227 -0.7612
 1436W        W17697  13.666  10.002  16.460  0.0710  0.0115  0.2420
 1437W        W17698   1.165   4.252   5.326  0.0713 -0.1119 -0.0953
 1438W        W17699  11.469  10.374   3.233  0.0632  0.1243  0.1028
 1439W        W17700   3.291  17.241   0.921 -0.0300  0.0241 -0.1777
 1440W        W17701   6.409   2.554   1.571  0.2317 -0.2026  0.2173
 1441W        W17702   4.175  11.991  12.607 -0.0180  0.2666 -0.1203
 1442W        W17703  14.042  11.266   1.553  0.2394  0.0954 -0.3654
 1443W        W17704   4.596   5.513   5.794  0.1091  0.3265  0.0726
 1444W        W17705  10.589   1.115  16.065  0.1932  0.2262  0.6510
 1445W        W17706  16.451  16.030   5.310 -0.3394  0.0312 -0.1433
 1446W        W17707   1.361  13.904  13.083 -0.1041 -0.1366 -0.0475
 1447W        W17708   9.675   5.035   0.550 -0.2309 -0.0640  0.3215
 1448W        W17709   2.905  14.028   2.948 -0.0870 -0.2182  0.0832
 1449W        W17710   3.236  14.082   0.071  0.1337 -0.0999  0.1552
 1450W        W17711  11.969  16.349   4.663 -0.0429  0.2544  0.2810
 1451W        W17712   5.293  13.608  13.081  0.4527  0.0813  0.0044
 1452W        W17713  16.825   6.351   3.925  0.0030 -0.1130  0.0749
 1453W        W17714   0.369  13.372   3.358  0.2579 -0.0285 -0.1618
 1454W        W17715   7.876  11.483   0.007  0.1258  0.0862  0.0162
 1455W        W17716   0.048   4.525  15.219 -0.0596 -0.0368 -0.0239
 1456W        W17717  15.816   1.134  12.617  0.1824  0.2902  0.3894
 1457W        W17718   7.042  12.429  12.439 -0.2656 -0.2448 -0.0405
 1458W        W17719   6.682  16.957   2.396 -0.1750 -0.3530 -0.2152
 1459W        W17720   0.109   5.947  15.046  0.1248  0.0021  0.1323
 1460W        W17721   8.736   1.419   5.419 -0.0299  0.1608 -0.0318
 1461W        W17722   1.197   3.646  16.230  0.2426  0.1178 -0.3470
 1462W        W17723   5.627  14.227   0.109 -0.0834 -0.0292 -0.2185
 1463W        W17724  12.206   6.210   1.699 -0.1940  0.2759 -0.0487
 1464W        W17725   0.879  14.524   2.403  0.0675  0.0015  0.1836
 1465W        W17726   1.466   5.921   5.729  0.1328  0.2098  0.0463
 1466W        W17727   4.677   1.154  16.374  0.0562  0.1210 -0.1094
 1467W        W17728  16.281   8.321   3.919 -0.0337 -0.1368  0.4751
 1468W        W17729   3.538   3.215   3.615  0.2250 -0.4702  0.2233
 1469W        W17730   7.317   0.702  15.742 -0.0145  0.2197  0.2976
 1470W        W17731  13.059  17.831   5.116  0.3753 -0.2402  0.0616
 1471W        W17732   1.450   2.498   3.800  0.2069  0.4869  0.2234
 1472W        W17733  12.695  14.856   3.384  0.3914  0.0923  0.3782
 1473W        W17734  17.035   5.198   3.099  0.1901  0.0092 -0.2031
 1474W        W17735  17.582  13.836   5.787  0.2939 -0.3472 -0.2524
 1475W        W17736  17.026  17.777   0.137 -0.2356 -0.1347 -0.2997
 1476W        W17737  15.590   5.682   3.468 -0.0044 -0.0418 -0.1586
 1477W        W17738  13.416   6.439   4.099  0.2616 -0.3058  0.3281
 1478W        W17739   8.384   5.327   3.103  0.0898 -0.1507 -0.1130
 1479W        W17740   7.736  15.074  14.199  0.0170 -0.0055  0.2315
 1480W        W17741  11.836   4.381  12.365 -0.1050 -0.3257  0.0109
 1481W        W17742   8.475   4.571  13.267 -0.2418  0.4443  0.5524
 1482W        W17743   3.486   4.855  14.836  0.2775  0.1390 -0.0650
 1483W        W17744   4.540   2.419   4.123 -0.1334  0.2283  0.0716
 1484W        W17745   5.043   6.973   4.138  0.0573 -0.2227 -0.0386
 1485W        W17746   9.799   9.639   5.288 -0.1511  0.2723 -0.0982
 1486W        W17747   6.929   7.059   0.234 -0.0642  0.1963  0.0041
 1487W        W17748  10.184   1.716   2.648 -0.1953 -0.1582 -0.0410
 1488W        W17749   1.575   9.583  14.761  0.0170  0.0603  0.0134
 1489W        W17750  16.854  17.269  16.146  0.0352 -0.3124 -0.1470
 1490W        W17751   1.580  12.282   3.127  0.2691 -0.0090 -0.0444
 1491W        W17752   0.828  10.705   1.452 -0.2444  0.1341 -0.2127
 1492W        W17753   5.163   7.077   5.713 -0.0772 -0.1163 -0.0746
 1493W        W17754   1.514   7.363  12.520  0.0234  0.1007 -0.0039
 1494W        W17755  17.015  10.477   5.110 -0.0090  0.0893 -0.0708
 1495W        W17756   9.212  13.188  14.438 -0.1996  0.4339 -0.2962
 1496W        W17757   2.188  17.184  16.425 -0.1278  0.1777 -0.3110
 1497W        W17758   0.737  11.378   5.741  0.1301 -0.2683 -0.1426
 1498W        W17759   4.587   7.376   5.951  0.0569  0.2518 -0.1124
 1499W        W17760   5.972   1.246   1.704  0.1215  0.0537 -0.1041
 1500W        W17761   8.367   6.405  11.801 -0.0865  0.1323 -0.1384
 1501W        W17762  14.915   7.523  15.292  0.0688  0.1150  0.0374
 1502W        W17763  13.001  11.264  13.768 -0.1441  0.1237 -0.1901
 1503W        W17764  12.256   9.845  15.727 -0.1629  0.3716 -0.1162
 1504W        W17765  12.515  10.231  15.477  0.5170 -0.1409 -0.0965
 1505W        W17766  12.115   1.065   2.319  0.2386  0.0798  0.1813
 1506W        W17767  13.341   8.130   5.672 -0.3775  0.0030  0.0791
 1507W        W17768  16.594   3.083   4.727  0.0105 -0.0352  0.2882
 1508W        W17769   9.145  16.297   2.904  0.0166  0.1919  0.2723
 1509W        W17770  11.113  11.806  14.170  0.2155  0.0060 -0.1749
 1510W        W17771  15.085  16.987  11.959  0.1861 -0.1728  0.0397
 1511W        W17772   1.546  12.681  14.268  0.1731 -0.1093  0.1430
 1512W        W17773  15.118   0.190   5.891  0.1228 -0.0236 -0.0908
 1513W        W17774   2.221   8.424   4.456 -0.2074  0.0551  0.1768
 1514W        W17775  12.847  11.922   1.930 -0.1567  0.2768  0.0603
 1515W        W17776  17.232   4.346  16.267  0.0186  0.0763  0.0891
 1516W        W17777  16.354  16.388  16.116  0.1376 -0.0687  0.0271
 1517W        W17778   8.755   1.493   1.451  0.1859  0.2617 -0.0455
 1518W        W17779   6.996   4.773  12.682  0.0104  0.0312  0.0637
 1519W        W17780   2.923  11.228   1.465 -0.3805 -0.1446 -0.0355
 1520W        W17781   1.710  15.402   5.651  0.1444  0.3058 -0.2374
 1521W        W17782  14.120  14.985   0.447 -0.2716  0.0721 -0.0208
 1522W        W17783  15.401   3.139   4.815 -0.2418  0.0788  0.0494
 1523W        W17784   5.879  16.096   4.609  0.2074  0.0328  0.0706
 1524W        W17785   1.300  16.163   0.940  0.3256 -0.0122 -0.3306
 1525W        W17786   2.228   9.353   1.972 -0.1323 -0.0838 -0.0725
 1526W        W17787   7.868  11.508   1.737  0.0455 -0.1797  0.1185
 1527W        W17788  11.369  13.036  16.169  0.2505 -0.0943 -0.1490
 1528W        W17789  13.434  13.512  12.675 -0.0977  0.0981  0.0185
 1529W        W17790  14.428  17.360  13.151  0.3888 -0.4659 -0.0292
 1530W        W17791  16.872   8.822   4.013  0.0982  0.1775  0.1550
 1531W        W17792   1.361   9.124  16.316  0.2781  0.0152  0.1767
 1532W        W17793   4.211   6.876   1.536  0.2238  0.0913 -0.1094
 1533W        W17794   0.520  17.684  12.483  0.1279 -0.1382 -0.0234
 1534W        W17795   2.257   5.489   1.390  0.4732 -0.0202  0.1091
 1535W        W17796  13.418  10.198  16.075  0.1001 -0.0096  0.1980
 1536W        W17797  16.357   3.089   6.186  0.0954  0.4083 -0.0885
 1537W        W17798   8.298   4.377  15.070  0.0523  0.3159  0.0393
 1538W        W17799   2.618   5.611   2.172 -0.2717 -0.0919 -0.0163
 1539W        W17800   3.687  15.556  11.970 -0.0654  0.1336  0.4311
 1540W        W17801   8.054  16.495  14.577 -0.1525  0.2145  0.2019
 1541W        W17802   2.025   5.522  12.393 -0.0138  0.0119 -0.1860
 1542W        W17803  16.261  10.681  12.530 -0.0042 -0.3330 -0.3792
 1543W        W17804   9.824   8.722  13.903  0.1129  0.0940  0.0295
 1544W        W17805   7.418   9.531   4.001  0.0093 -0.2489  0.0168
 1545W        W17806  13.140  11.753  15.921  0.0816 -0.1081  0.2059
 1546W        W17807   6.896   5.343   0.688  0.4239  0.1922  0.0111
 1547W        W17808  14.586  14.700  13.812  0.0735 -0.0352 -0.1686
 1548W        W17809   9.546   7.479   2.332  0.4065 -0.0328 -0.3645
 1549W        W17810  12.147  10.757   0.948 -0.1587  0.0374  0.0016
 1550W        W17811   5.726   1.322   4.132  0.1267  0.0633  0.2720
 1551W        W17812  17.074  16.735  13.099 -0.0084 -0.1011 -0.1309
 1552W        W17813   4.483  14.207  11.629  0.0088  0.1738 -0.0588
 1553W        W17814   7.189  17.756   3.467 -0.1326  0.2130 -0.0845
 1554W        W17815  10.263   3.091   5.899 -0.1149 -0.0065 -0.1156
 1555W        W17816   6.586   0.976  16.158 -0.0617 -0.1430  0.0838
 1556W        W17817   6.142  12.391   3.093 -0.1371  0.2228 -0.0837
 1557W        W17818   6.281  15.351  14.773 -0.1960  0.2627 -0.0520
 1558W        W17819  17.341   0.196  12.784 -0.3683 -0.3737  0.0074
 1559W        W17820  14.108   4.317   1.820 -0.4597  0.0638  0.1921
 1560W        W17821  14.565   6.321   1.297  0.0403 -0.3793 -0.0275
 1561W        W17822   0.511  10.967   4.814 -0.0035 -0.0661  0.1277
 1562W        W17823  16.963   8.869  11.911 -0.0101 -0.2062  0.1069
 1563W        W17824  12.783   3.022  14.196  0.2400 -0.1277  0.2598
 1564W        W17825   6.252   5.704   2.792  0.1028  0.0812 -0.2232
 1565W        W17826  14.331   5.289   2.692  0.1042  0.1636  0.2604
 1566W        W17827   5.072   0.915  14.081  0.0303 -0.4396  0.0350
 1567W        W17828   4.748  14.909  14.754 -0.0347  0.0873 -0.0861
 1568W        W17829   5.710   2.575   3.290 -0.0178  0.0031 -0.1694
 1569W        W17830  10.038   9.623   2.486 -0.2370  0.0266 -0.1487
 1570W        W17831  16.024   4.698  14.913 -0.0568 -0.0726 -0.0156
 1571W        W17832   9.035   8.144   2.177 -0.0208 -0.0932  0.3461
 1572W        W17833  15.689   9.073  14.668  0.0125 -0.0359  0.1368
 1573W        W17834   0.761   9.849   4.674 -0.4444 -0.0640  0.0369
 1574W        W17835  11.800   3.786   5.032  0.1016  0.1563 -0.2537
 1575W        W17836   1.908   9.549   2.282  0.2282  0.0529 -0.0556
 1576W        W17837   6.799  13.558   2.573  0.0496 -0.4359  0.0925
 1577W        W17838  10.424  11.475   0.919  0.0400  0.1242  0.3985
 1578W        W17839  10.522  16.020   3.351 -0.1777 -0.1464 -0.0214
 1579W        W17840  12.302  11.235  15.720  0.0145 -0.1127 -0.2008
 1580W        W17841  12.227  13.821   2.000  0.1778  0.3202  0.0406
 1581W        W17842   3.984  17.639  14.439  0.0118  0.1076  0.1063
 1582W        W17843   5.152  13.616  14.458 -0.1089 -0.0380 -0.0110
 1583W        W17844  14.871  13.856   4.806  0.0345  0.0472 -0.3766
 1584W        W17845   3.118  16.892   2.469  0.0411 -0.0450  0.2968
 1585W        W17846   6.712   8.042   6.273 -0.2327 -0.0804 -0.0033
 1586W        W17847  10.791   7.702  15.251  0.3341 -0.0219 -0.0802
 1587W        W17848  11.636   0.217   0.284 -0.2194  0.0820  0.2515
 1588W        W17849   8.758   4.159   5.287 -0.0234  0.0690  0.1175
 1589W        W17850  17.058   3.261  13.793  0.0682  0.0056  0.0444
 1590W        W17851   2.484  16.714   2.515 -0.0968 -0.2279 -0.0443
 1591W        W17852   5.699   8.374   0.568 -0.1399  0.4544  0.1540
 1592W        W17853   6.648   5.794  12.116 -0.0808 -0.1136  0.0143
 1593W        W17854  16.759  17.639   2.677  0.1814  0.0294 -0.0004
 1594W        W17855   8.534  13.588  14.921  0.0223 -0.2539 -0.1059
 1595W        W17856   7.298  16.493   2.768 -0.1723 -0.0977 -0.3061
 1596W        W17857   6.707   9.964   2.554 -0.0440 -0.1891 -0.0218
 1597W        W17858   7.997   3.909  14.919 -0.1002 -0.0065  0.1952
 1598W        W17859   6.704  11.573  16.194 -0.0313  0.0116 -0.3135
 1599W        W17860  16.766   5.591  12.746 -0.1013  0.1419 -0.3098
 1600W        W17861   0.419   1.269   3.290  0.0445  0.0014 -0.1367
 1601W        W17862   0.879   4.268  14.407  0.2202  0.1304 -0.0198
 1602W        W17863   7.350   2.323   1.487 -0.0289 -0.2755  0.1382
 1603W        W17864  12.353   4.176   5.320  0.2101  0.2387  0.1286
 1604W        W17865   8.509   8.531  13.064  0.1361 -0.1538  0.0999
 1605W        W17866  16.301  13.860  14.254  0.1700 -0.3540  0.0678
 1606W        W17867  16.798   7.571   2.162 -0.2312 -0.0948 -0.0848
 1607W        W17868   2.673  16.783   6.067 -0.1705  0.2065 -0.0535
 1608W        W17869   2.835  17.318   4.914  0.1214 -0.1116 -0.1570
 1609W        W17870  11.788  15.448   0.875  0.1040 -0.1779  0.0877
 1610W        W17871   6.224   1.783  14.201 -0.0933  0.1615 -0.0206
 1611W        W17872   6.976  15.659   3.848 -0.0952  0.1611  0.1069
 1612W        W17873  11.599   5.686  16.826  0.0321  0.1643  0.4044
 1613W        W17874   0.518   3.876  13.230 -0.2621  0.3757  0.0108
 1614W        W17875  12.692   7.058  16.496  0.0910  0.0550  0.1483
 1615W        W17876  10.597   5.849   5.554  0.2479 -0.2032  0.0921
 1616W        W17877  12.715  17.634   3.727  0.0098  0.4413 -0.2381
 1617W        W17878  17.321   2.782  12.121  0.2329  0.0669 -0.1583
 1618W        W17879  16.006   8.382  14.259 -0.1979  0.0076  0.1115
 1619W        W17880   9.572  11.758  16.605  0.1831 -0.1682 -0.2395
 1620W        W17881   0.770  13.618   5.589  0.0579  0.1205 -0.0307
 1621W        W17882   6.184   0.609  12.721 -0.0804  0.2197 -0.0503
 1622W        W17883  15.610   1.933   5.629  0.0924  0.2924  0.3011
 1623W        W17884   2.003   7.879   2.976 -0.1264 -0.1562 -0.0126
 1624W        W17885  11.939  15.531   1.740 -0.1756 -0.1367 -0.1630
 1625W        W17886   3.097  11.929   2.000  0.0078 -0.3144  0.3297
 1626W        W17887  14.313   5.587  15.008  0.0290 -0.2142 -0.1052
 1627W        W17888   3.816  11.274   5.313 -0.1415 -0.1821 -0.0741
 1628W        W17889  12.358   2.460   0.827  0.2920 -0.0266 -0.1990
 1629W        W17890   1.470   8.095  14.104 -0.0069 -0.0739 -0.0332
 1630W        W17891   1.650   8.896   2.960  0.4737 -0.1162 -0.1999
 1631W        W17892  15.930  11.232  16.463 -0.2427 -0.0534  0.2025
 1632W        W17893   5.020   2.309  12.641 -0.0104  0.0367  0.0877
 1633W        W17894  11.326  15.617   0.940 -0.2061  0.1619  0.1545
 1634W        W17895  14.662   5.803   5.693 -0.1376 -0.0324  0.0909
 1635W        W17896  11.160   9.495  13.305 -0.1931  0.1216  0.3174
 1636W        W17897  17.688  14.612  16.717  0.1152 -0.2136  0.4584
 1637W        W17898  14.127   9.029   4.507  0.1241  0.2830 -0.2771
 1638W        W17899  15.572  10.708  16.010 -0.0615 -0.0110  0.0741
 1639W        W17900  13.550   2.727   2.090 -0.0051 -0.0667  0.1590
 1640W        W17901  16.834  14.953   0.157  0.0529  0.2203  0.2178
 1641W        W17902   2.282  15.481  15.598  0.0144  0.2859 -0.3721
 1642W        W17903   4.755   3.237   5.950  0.0875  0.1042  0.3750
 1643W        W17904  14.360  11.677   5.802  0.0957  0.1332 -0.0327
 1644W        W17905   0.170  10.964   5.832 -0.0667  0.0690  0.0697
 1645W        W17906  16.700   2.652   2.156 -0.2543 -0.2648 -0.2109
 1646W        W17907   7.276  14.206   4.353 -0.0124 -0.0951  0.0077
 1647W        W17908   5.681  11.072  15.664 -0.1187  0.0541 -0.3140
 1648W        W17909   5.549   6.582   2.993  0.0329  0.2729  0.0999
 1649W        W17910   9.973   2.204   2.793 -0.0243 -0.0960 -0.2801
 1650W        W17911   6.464   7.970  16.249  0.0021  0.0067  0.0230
 1651W        W17912   6.796  11.889  14.840 -0.1625 -0.0123 -0.0751
 1652W        W17913   1.892  15.979   2.657  0.0340 -0.1651  0.2448
 1653W        W17914   4.701  15.943   3.685  0.3728  0.0484  0.0849
 1654W        W17915  17.267   3.110   4.655  0.2469 -0.1701  0.0987
 1655W        W17916  16.919  17.130   5.055  0.1955 -0.3804  0.2564
 1656W        W17917  13.826  16.554  15.941 -0.2762 -0.0151  0.3379
 1657W        W17918  15.498   7.302  15.869  0.2393  0.1726 -0.1437
 1658W        W17919   9.574   5.046   4.783 -0.0744 -0.2809 -0.1360
 1659W        W17920   0.145  10.213  11.888  0.0952  0.1293  0.2099
 1660W        W17921   6.181  11.917   1.290  0.0304 -0.0335  0.3261
 1661W        W17922  14.152   4.488   2.668  0.0447 -0.3367 -0.0317
 1662W        W17923  12.870  10.828   3.721  0.1100 -0.2273 -0.1199
 1663W        W17924   2.537   6.249   2.888 -0.0107  0.2706  0.1295
 1664W        W17925  16.999  17.670   6.133 -0.0593  0.0201 -0.0307
 1665W        W17926  15.257  14.387  12.819 -0.1702  0.2651 -0.1894
 1666W        W17927   8.945   4.883   6.082 -0.2255  0.0595  0.0316
 1667W        W17928   9.517  17.062  16.918  0.1477  0.0815  0.0398
 1668W        W17929   2.118  10.021  15.325 -0.3411  0.3378 -0.0267
 1669W        W17930   8.050  16.874  15.515 -0.1197  0.0796 -0.3084
 1670W        W17931   9.221   3.909   3.611  0.2967  0.0318 -0.1275
 1671W        W17932  17.257  11.913   4.540  0.0642 -0.4551 -0.2296
 1672W        W17933  15.248   6.054  11.704 -0.2738 -0.0725  0.1053
 1673W        W17934   1.694   6.272  14.371 -0.2584 -0.1857 -0.0833
 1674W        W17935   5.427   9.642  16.366 -0.1196  0.3152 -0.2302
 1675W        W17936  17.564  16.974  16.954 -0.1992  0.3651  0.0797
 1676W        W17937   9.899   8.152  12.891 -0.2365 -0.0310  0.0104
 1677W        W17938  11.442  16.639   1.987  0.1536 -0.1145 -0.5369
 1678W        W17939  12.099   2.421   3.792  0.1092 -0.3673  0.2672
 1679W        W17940   8.976   2.047   4.209  0.1545  0.0957 -0.3525
 1680W        W17941   3.778   5.301  14.328 -0.0556 -0.0583 -0.3284
 1681W        W17942  12.388  13.150  11.795  0.2616 -0.2679 -0.1549
 1682W        W17943   7.147  14.627   2.767  0.3501 -0.0630  0.2236
 1683W        W17944   7.751  16.884  16.308  0.0798  0.2617  0.1400
 1684W        W17945   0.819   8.057   2.437 -0.1350  0.2017 -0.1259
 1685W        W17946   6.490   6.241  10.726 -0.1739  0.0562  0.3326
 1686W        W17947   2.086   6.234   0.177  0.0685  0.1701 -0.0769
 1687W        W17948  17.691   3.153  12.591  0.0769  0.0324 -0.0984
 1688W        W17949   3.238  11.657  13.756  0.1867  0.0801 -0.0477
 1689W        W17950  16.077   0.669  13.839  0.1956 -0.2440  0.1340
 1690W        W17951  17.634  10.056   0.149 -0.2505 -0.3345  0.1097
 1691W        W17952   3.236   5.841   5.621 -0.0382  0.0832 -0.1215
 1692W        W17953  15.606  15.070  12.475  0.1854 -0.0679  0.3161
 1693W        W17954   4.400  11.180  16.730 -0.2568 -0.0895 -0.0343
 1694W        W17955  12.615   2.385   3.591 -0.1157  0.0164 -0.1583
 1695W        W17956   8.961   1.235   0.561 -0.1843  0.3053 -0.0624
 1696W        W17957  10.157   2.422  16.293  0.1087  0.3315  0.1647
 1697W        W17958   1.946  16.626   1.789 -0.0170  0.2080 -0.0071
 1698W        W17959  13.632   4.321   3.114  0.2170 -0.0124  0.2409
 1699W        W17960   5.827  14.606  13.493 -0.2534  0.0849 -0.3618
 1700W        W17961   8.915  14.774   1.504 -0.3543  0.0677 -0.1063
 1701W        W17962  11.477   9.477  15.779  0.3954  0.1623  0.0239
 1702W        W17963  12.226   8.842   3.144 -0.1095 -0.0340 -0.1944
 1703W        W17964  14.218  16.955  12.196  0.3259 -0.0463  0.3689
 1704W        W17965   4.475   4.093   6.246 -0.1662 -0.2678 -0.1197
 1705W        W17966   0.279  10.401  12.317 -0.0852 -0.2483  0.0165
 1706W        W17967   2.581  10.574   4.116  0.0568 -0.1600 -0.0126
 1707W        W17968   8.733  14.266   3.763 -0.1724 -0.0726  0.0842
 1708W        W17969   7.817  16.851   2.942  0.1111 -0.4507 -0.0168
 1709W        W17970   3.101   3.084   1.136 -0.3157  0.0327 -0.0517
 1710W        W17971  13.762   9.517   0.153  0.1778  0.1824 -0.1621
 1711W        W17972  14.725   8.535  12.246  0.3310 -0.0348  0.0591
 1712W        W17973  12.092   0.083   3.001  0.0162  0.1138  0.1869
 1713W        W17974   3.366  11.563  11.428 -0.1355 -0.1303  0.3712
 1714W        W17975  12.069  10.063   1.714 -0.5418  0.2565 -0.3507
 1715W        W17976   1.795   9.352   5.243  0.0969 -0.3466 -0.1660
 1716W        W17977  15.872  13.646  14.291  0.2002 -0.1943 -0.0582
 1717W        W17978   2.636  11.686   0.089  0.1229 -0.1465 -0.3708
 1718W        W17979   4.930   7.003  13.424  0.2663  0.1630  0.0828
 1719W        W17980  16.586   8.298  16.022 -0.0178 -0.0520  0.1208
 1720W        W17981   3.827  14.608   4.327 -0.0682 -0.3525  0.4137
 1721W        W17982  14.464   8.386   4.968 -0.1594 -0.2240 -0.1560
 1722W        W17983   6.469   2.424   4.885 -0.0756 -0.1081  0.0376
 1723W        W17984   6.853  16.659  15.462 -0.2203 -0.0909 -0.0632
 1724W        W17985   4.897   4.882  11.853  0.1493 -0.1396  0.0722
 1725W        W17986  10.044   8.467  11.911 -0.0428  0.0522 -0.2723
 1726W        W17987  17.192   4.613   2.402  0.2185  0.0857  0.0027
 1727W        W17988   2.168  10.398  15.666 -0.2006  0.3787 -0.1210
 1728W        W17989  12.391   3.550  12.834  0.3542 -0.0126 -0.1357
 1729W        W17990   0.674  14.404   3.905 -0.1501 -0.0118  0.1453
 1730W        W17991   1.034   6.159   0.025  0.0844 -0.2584  0.0673
 1731W        W17992   6.114   6.202   4.989 -0.2789 -0.2397 -0.1868
 1732W        W17993  14.109   2.217  13.347  0.0025 -0.0077 -0.2028
 1733W        W17994  13.941  10.757   1.296  0.0680 -0.0014 -0.0487
 1734W        W17995  13.495  15.262  14.087  0.0181  0.0568  0.0406
 1735W        W17996   0.812  15.942   0.966  0.1859  0.0781  0.3275
 1736W        W17997  10.461   1.248   5.457  0.0731  0.2373  0.1481
 1737W        W17998   9.887   4.239  14.600 -0.0707  0.0548 -0.1076
 1738W        W17999  15.021   9.278  15.977 -0.0123 -0.0023 -0.2701
 1739W        W18000   4.733   4.096   1.124  0.2727  0.1982 -0.0736
 1740W        W18001   7.906  15.986  15.305 -0.1233  0.1412 -0.1800
 1741W        W18002  15.443  16.118   1.480 -0.2616  0.1803 -0.2163
 1742W        W18003   7.663   3.809   0.299 -0.0133  0.1307 -0.2212
 1743W        W18004   6.542  12.843  14.171 -0.1203  0.1487 -0.1054
 1744W        W18005  12.837  15.364  12.587  0.0802 -0.2040  0.2970
 1745W        W18006   7.765   8.673   0.657  0.0328  0.2002  0.0906
 1746W        W18007   9.719   9.487  15.904  0.2729 -0.3535  0.1383
 1747W        W18008   1.149   5.978  15.624 -0.1751  0.0372 -0.4878
 1748W        W18009   6.374  10.152   2.073 -0.0291  0.0150 -0.0912
 1749W        W18010   4.803  13.036   3.237 -0.1006 -0.0480 -0.3589
 1750W        W18011   7.923  10.526   2.005 -0.0109  0.0495 -0.2293
 1751W        W18012   2.974   4.421   1.364 -0.0201 -0.0041  0.0925
 1752W        W18013   3.777  11.372   6.000 -0.2200 -0.2308 -0.2017
 1753W        W18014   8.667  16.539  11.903  0.1129 -0.0145 -0.1283
 1754W        W18015   9.948  17.648   1.232  0.1030  0.4058 -0.1691
 1755W        W18016  14.234  13.326   4.807 -0.0580 -0.0694  0.0226
 1756W        W18017   0.776  13.930  12.793  0.3576  0.1465  0.3980
 1757W        W18018   3.675  10.529   3.173  0.4706 -0.1394 -0.0489
 1758W        W18019  16.285  15.430  15.724 -0.1384  0.1428  0.2188
 1759W        W18020   6.714   1.590   1.538 -0.0160 -0.0589 -0.1760
 1760W        W18021  12.277   2.288   0.105  0.2802 -0.1175  0.1410
 1761W        W18022  12.827   0.980   4.531 -0.1892  0.0871 -0.0674
 1762W        W18023   2.165  11.700   2.560 -0.0677 -0.0202 -0.0363
 1763W        W18024   1.522   5.421   2.765  0.1133 -0.1162  0.2055
 1764W        W18025  12.521   0.866  16.722 -0.1829 -0.2327 -0.1962
 1765W        W18026   4.383   9.252  16.595 -0.1451 -0.1919 -0.1173
 1766W        W18027   7.141  10.591  15.031 -0.0009  0.2663  0.1768
 1767W        W18028   5.585  13.880   0.878  0.0284 -0.2554  0.0241
 1768W        W18029  13.228  11.791  15.124  0.2936 -0.4094  0.0519
 1769W        W18030   0.583   9.881   1.891 -0.2389  0.0020 -0.2989
 1770W        W18031   6.558   4.593   0.490  0.0099  0.2732 -0.3057
 1771W        W18032  11.293  17.395   0.740 -0.1570 -0.0335  0.4347
 1772W        W18033   0.322   7.285   1.513 -0.0149  0.3195  0.2217
 1773W        W18034   1.573   7.978  15.847 -0.1288 -0.0828 -0.2264
 1774W        W18035  10.971   6.306   0.837  0.0564  0.1987 -0.0715
 1775W        W18036  14.064  15.542   0.696  0.1564 -0.0661  0.5962
 1776W        W18037  11.893  16.135  12.261  0.0522 -0.0208  0.2759
 1777W        W18038   4.889  13.812  12.861  0.1311 -0.0912  0.2889
 1778W        W18039   5.574  16.793  14.506  0.2281 -0.2268  0.0079
 1779W        W18040   7.709  13.517   6.094  0.0751  0.0278  0.1273
 1780W        W18041  10.092   3.000  11.554  0.1893 -0.1513  0.2264
 1781W        W18042  13.900   1.897  15.733 -0.1404 -0.0793  0.2753
 1782W        W18043   7.461   8.194   4.363 -0.0252  0.2226 -0.2341
 1783W        W18044  17.532   2.572   4.235  0.0545 -0.0105 -0.0888
 1784W        W18045   2.466   1.777  16.926 -0.1350  0.0325  0.4110
 1785W        W18046  10.267   2.024  13.252  0.0693 -0.0457  0.2144
 1786W        W18047   4.610  16.818  16.948  0.1101 -0.0847  0.1660
 1787W        W18048  15.323   8.884  16.973 -0.1114  0.1835 -0.1070
 1788W        W18049   7.407   0.781  13.015 -0.1449  0.4175  0.2308
 1789W        W18050  11.386   6.623  15.325 -0.0503 -0.0870  0.0629
 1790W        W18051  12.095   6.743   3.378  0.3045 -0.3477  0.0332
 1791W        W18052   2.167   2.381   5.791 -0.3001 -0.0326  0.1116
 1792W        W18053   0.230  12.733   5.349 -0.0091 -0.0038 -0.2369
 1793W        W18054   9.415   3.916   2.743 -0.4732 -0.0411  0.1331
 1794W        W18055  15.855   7.580  14.012 -0.3110  0.0375  0.0195
 1795W        W18056   9.213   7.946   3.289  0.0803 -0.1465  0.0975
 1796W        W18057   8.065   1.074  14.704  0.0398  0.1393 -0.1524
 1797W        W18058  13.897  13.403  16.000 -0.0965  0.0747  0.2389
 1798W        W18059  10.017   3.635   2.047 -0.0261 -0.0502 -0.3755
 1799W        W18060   1.311   7.291  13.572 -0.2644  0.0767  0.0566
 1800W        W18061  17.329   7.452  12.421  0.0162  0.1890  0.2671
 1801W        W18062  14.885   9.860   0.580 -0.2090 -0.1625  0.1307
 1802W        W18063   0.909   7.350  16.246 -0.1348  0.0345 -0.0219
 1803W        W18064  15.116  13.631  13.393 -0.1631 -0.1952  0.3648
 1804W        W18065  16.996   6.905  14.819  0.0651 -0.2476 -0.1182
 1805W        W18066   7.871  10.459   1.489  0.1799 -0.2607 -0.1397
 1806W        W18067   9.327   0.843  12.159 -0.2077 -0.0460 -0.1056
 1807W        W18068  17.628   6.857   5.345 -0.0755 -0.0766  0.0135
 1808W        W18069   7.828   6.968   5.513  0.0974  0.0686 -0.1632
 1809W        W18070  14.476   7.463  11.800 -0.1272  0.2249 -0.0668
 1810W        W18071   2.322  15.039   3.721  0.0990  0.1069  0.1030
 1811W        W18072  11.481   1.161  14.070  0.0579  0.0949  0.3618
 1812W        W18073  17.613  14.465  14.638  0.0660 -0.0949  0.1868
 1813W        W18074   9.236  13.655   3.136  0.0952  0.1383 -0.0943
 1814W        W18075   7.151   5.123   5.877  0.1055 -0.0327 -0.1305
 1815W        W18076   0.504   3.573   5.630 -0.0381 -0.0540 -0.0374
 1816W        W18077  13.793  12.110  12.492  0.1575 -0.0841 -0.1672
 1817W        W18078   0.333   0.087  13.323 -0.3123 -0.2026 -0.3000
 1818W        W18079   8.234  13.028  11.708 -0.1641  0.2390 -0.2100
 1819W        W18080   6.222   4.233  14.789  0.2898  0.0535 -0.0680
 1820W        W18081   0.283   5.460  11.733  0.0107 -0.2296  0.1874
 1821W        W18082  11.001  14.080   5.710 -0.0663  0.1851  0.1064
 1822W        W18083   0.660   5.276   4.340 -0.1469 -0.4072 -0.1047
 1823W        W18084   7.519  14.019  16.512 -0.4082 -0.2149 -0.0176
 1824W        W18085   8.778  12.103  15.974  0.2540  0.1675  0.1920
 1825W        W18086  10.478   7.094   1.833 -0.2585  0.1157  0.1343
 1826W        W18087  16.962   2.836   6.008  0.1213  0.0293 -0.2771
 1827W        W18088   6.217   5.074   2.599  0.1261  0.1184  0.0451
 1828W        W18089   1.221  12.564   3.893  0.1613 -0.1148  0.0117
 1829W        W18090   0.024  15.032   1.104  0.3790  0.2840  0.0179
 1830W        W18091   0.113   0.412   4.581 -0.0735 -0.1271  0.1673
 1831W        W18092  14.230  15.645  12.495 -0.0271  0.1253  0.0642
 1832W        W18093  11.413   8.345  14.962 -0.0436 -0.0207  0.2482
 1833W        W18094   6.558   7.285   5.651 -0.0121 -0.1598  0.3781
 1834W        W18095  15.158  13.771   4.468 -0.1506 -0.0129  0.0397
 1835W        W18096   2.474   8.344  15.986  0.1799 -0.2410 -0.0065
 1836W        W18097  14.660   9.654   3.382 -0.0754 -0.1558 -0.2097
 1837W        W18098  14.460  14.738  12.484  0.0900  0.1689 -0.0995
 1838W        W18099   0.594   4.369  13.913  0.0745 -0.1719 -0.0634
 1839W        W18100   9.819   1.343  12.852  0.1034  0.3895  0.1639
 1840W        W18101  12.314   9.105  11.076 -0.0362 -0.2133  0.0734
 1841W        W18102   3.745   9.350  14.658 -0.0787 -0.2146 -0.0747
 1842W        W18103   5.492   6.242   2.618 -0.1227  0.1181 -0.1679
 1843W        W18104   5.746   7.445  13.709 -0.1597 -0.3222  0.1548
 1844W        W18105  15.717  15.938   5.905  0.1188  0.2548 -0.0173
 1845W        W18106   6.383   0.264   2.017 -0.3123  0.0354  0.1067
 1846W        W18107   1.090   3.689  12.415  0.0705  0.0541 -0.1508
 1847W        W18108   4.195   1.697   0.549  0.0172 -0.2909  0.0313
 1848W        W18109   6.192   0.498  11.248 -0.3450  0.1744  0.0693
 1849W        W18110  14.283   3.143   3.869 -0.1930  0.0906  0.0963
 1850W        W18111   7.996   1.538  14.559 -0.3504  0.0411 -0.4140
 1851W        W18112   7.503   8.176   3.862  0.0026  0.0304 -0.3214
 1852W        W18113   1.006   2.147   3.172 -0.0684 -0.0094 -0.2948
 1853W        W18114   0.938   8.300   2.872 -0.0328  0.0960  0.3347
 1854W        W18115  17.420  13.690   2.308 -0.0047 -0.0165 -0.2095
 1855W        W18116   1.482   2.564  15.176  0.1477 -0.2786  0.3397
 1856W        W18117  13.889   7.453   1.915  0.0632  0.2182  0.0256
 1857W        W18118  11.077  10.678  14.671  0.0276  0.0160 -0.2163
 1858W        W18119  13.624  11.126  16.672  0.2754 -0.0753  0.0289
 1859W        W18120  13.560   6.822   2.555 -0.3628 -0.2308 -0.1739
 1860W        W18121   5.205   7.933  11.141 -0.1279 -0.1340  0.0021
 1861W        W18122   7.681   9.321   3.329 -0.0763 -0.0611 -0.1242
 1862W        W18123   8.369  12.744  16.716 -0.1622 -0.0800  0.4968
 1863W        W18124   7.527   2.554   0.101  0.3149 -0.0663  0.1739
 1864W        W18125   4.383   8.205  15.397 -0.1343 -0.4781  0.2652
 1865W        W18126   9.739   4.434   2.188  0.2025 -0.2342  0.0279
 1866W        W18127  12.914  17.450   2.965  0.1202 -0.1451  0.1282
 1867W        W18128  14.538  14.812   5.724  0.2902  0.3433 -0.0045
 1868W        W18129  13.080   6.086   3.369 -0.1109  0.1236 -0.2730
 1869W        W18130  14.111   0.351  13.642  0.0131  0.0948 -0.1539
 1870W        W18131   1.205   2.102  15.051 -0.2336  0.2802  0.0634
 1871W        W18132  10.152   3.479  13.955 -0.2777  0.0896 -0.1998
 1872W        W18133  13.560   9.488  13.592  0.0414  0.2423  0.2179
 1873W        W18134  16.080   0.894   0.222 -0.0250 -0.4937 -0.1137
 1874W        W18135   3.195   9.293   3.164 -0.1371 -0.2301  0.1168
 1875W        W18136   0.900   3.133   1.121  0.0999  0.0545  0.0521
 1876W        W18137  11.541   1.120   6.321 -0.0530  0.1015  0.0369
 1877W        W18138   8.613   6.354  13.019  0.0220 -0.0097 -0.0071
 1878W        W18139  15.964   6.110  12.320 -0.1800 -0.2091 -0.0915
 1879W        W18140  17.845   0.389   3.533 -0.1103 -0.1777  0.0168
 1880W        W18141   0.788   6.775  13.531  0.0740  0.0193  0.0504
 1881W        W18142   1.218   4.531  12.014 -0.2540 -0.3455  0.1936
 1882W        W18143  11.667  11.852   4.932  0.0190 -0.0358 -0.0284
 1883W        W18144  11.672   9.403  11.635 -0.3452  0.2431 -0.0378
 1884W        W18145   1.220  14.581   5.866 -0.0807  0.1387 -0.0053
 1885W        W18146  17.796   1.539  16.494  0.0689 -0.0599 -0.0597
 1886W        W18147   3.019   8.685  15.485 -0.0527  0.3222  0.2273
 1887W        W18148   9.051   7.149  11.482 -0.3664 -0.1083  0.0562
 1888W        W18149  14.922  17.488  10.994  0.0324 -0.0323 -0.2859
 1889W        W18150   5.207   6.167   1.493 -0.0060  0.2217 -0.2082
 1890W        W18151   6.239  16.597  15.348  0.0166 -0.1281  0.0205
 1891W        W18152  14.449   2.886  12.616 -0.0292 -0.0360 -0.0578
 1892W        W18153   5.059  14.970  15.137  0.1241  0.1680 -0.1117
 1893W        W18154   1.724   8.486   1.810 -0.1230  0.3192 -0.2289
 1894W        W18155   6.060   5.812  16.401 -0.0774 -0.1051  0.2718
 1895W        W18156  16.115   7.230  14.400  0.1434  0.1132 -0.6092
 1896W        W18157   1.903   6.940  15.663 -0.5951 -0.0642 -0.0538
 1897W        W18158   3.179  17.428   2.806 -0.1049 -0.0340 -0.3933
 1898W        W18159   0.412   5.784  12.991  0.2846 -0.1903  0.1436
 1899W        W18160  12.545   3.718  13.282  0.0557  0.1379 -0.0608
 1900W        W18161  11.026   3.142  14.433  0.0798  0.1945  0.1129
 1901W        W18162   5.504  13.461   2.820 -0.1781  0.0954  0.0806
 1902W        W18163  14.766  10.825   0.392  0.3442 -0.1167 -0.0945
 1903W        W18164   0.829  12.522   3.612 -0.4922 -0.1183 -0.1890
 1904W        W18165  16.419  12.587  13.290 -0.0546 -0.1539 -0.0939
 1905W        W18166  10.842   8.123   3.920 -0.0017 -0.0910  0.0333
 1906W        W18167   9.570   5.421  15.984 -0.0124 -0.2570  0.1313
 1907W        W18168  15.875  16.863  16.900  0.1725 -0.1032  0.1621
 1908W        W18169   5.755  13.725  13.667 -0.2918  0.0678 -0.1230
 1909W        W18170  11.727   9.018   4.137 -0.2266  0.0132  0.1938
 1910W        W18171  16.480   1.750  14.821  0.1463 -0.1552  0.1364
 1911W        W18172   2.476   4.328   2.743  0.1582 -0.1434  0.0016
 1912W        W18173  17.556  15.552  14.883 -0.1335  0.0696 -0.1454
 1913W        W18174   8.817   4.353  12.181 -0.0499  0.0076 -0.0473
 1914W        W18175  11.216  12.223  12.012  0.4342  0.0744 -0.2077
 1915W        W18176   6.071   8.431   2.406 -0.2901  0.0347  0.1354
 1916W        W18177  10.227  14.323   3.097 -0.2505  0.0535 -0.0624
 1917W        W18178   2.239  10.897   5.602  0.2132  0.2287 -0.0639
 1918W        W18179  14.292   7.081  12.646 -0.0499 -0.1801  0.1411
 1919W        W18180  16.698   0.806  12.452  0.0090  0.3534  0.0142
 1920W        W18181   5.941   9.242   0.579  0.0787 -0.2369  0.2525
 1921W        W18182  13.182  13.785  14.852  0.3621 -0.0303 -0.2245
 1922W        W18183  17.186   7.261  11.978 -0.1340  0.0124 -0.0104
 1923W        W18184   3.274   7.800  12.912 -0.0222 -0.2381 -0.0264
 1924W        W18185  11.355  14.300   1.585 -0.2410  0.0462 -0.0139
 1925W        W18186  16.726   9.451   1.069  0.1160  0.1575 -0.0989
 1926W        W18187   7.577   1.378   2.088 -0.2286  0.2100 -0.0180
 1927W        W18188  10.169  10.284   3.099  0.2198 -0.0199 -0.2004
 1928W        W18189  11.780   2.974   4.410 -0.5376  0.1047  0.1999
 1929W        W18190   0.431  17.368  14.161  0.2034 -0.1252 -0.2012
 1930W        W18191  14.890   8.857  16.302 -0.0058  0.1055 -0.0057
 1931W        W18192  17.687  12.246   4.214 -0.0382  0.1827  0.0208
 1932W        W18193   9.203  17.567  11.581 -0.2121  0.0226  0.1817
 1933W        W18194  14.848  11.555   2.242  0.0692  0.0720 -0.0133
 1934W        W18195  15.414   7.405  12.502  0.0997 -0.1037 -0.0979
 1935W        W18196  11.854  10.449  14.977 -0.1974  0.2555  0.0813
 1936W        W18197   7.546  11.577   2.198  0.0093 -0.0196 -0.0362
 1937W        W18198   7.689   8.157  13.311 -0.2012  0.0445  0.0408
 1938W        W18199   1.408   4.728  13.392  0.1314 -0.0340 -0.1383
 1939W        W18200  12.548   4.863   0.518 -0.1937  0.0176 -0.0013
 1940W        W18201   5.892   1.970   0.988 -0.2943 -0.0301 -0.1475
 1941W        W18202   1.761   0.511   5.166 -0.1082 -0.0077  0.0425
 1942W        W18203   1.874  10.728  12.076 -0.1495  0.0232 -0.0238
 1943W        W18204   5.287   0.339   0.530  0.0084 -0.2043 -0.1768
 1944W        W18205  11.729   5.190   4.600  0.0400  0.1618  0.1624
 1945W        W18206  17.720  12.544  14.894 -0.2815  0.0718 -0.2275
 1946W        W18207  14.476   4.264   1.145  0.0274 -0.1043 -0.0948
 1947W        W18208  17.789   4.050  15.370  0.1615 -0.1319  0.1366
 1948W        W18209   3.919  15.532  15.435  0.1213  0.5256  0.2282
 1949W        W18210   1.498  17.050  16.936 -0.0677 -0.0887 -0.0092
 1950W        W18211  11.138  15.409   6.100 -0.0818 -0.0957  0.2087
 1951W        W18212   3.636   5.208   0.489  0.0007 -0.1329 -0.1532
 1952W        W18213  16.389  15.941   4.016 -0.3048  0.1971 -0.0949
 1953W        W18214  11.444   7.319  15.969 -0.1820 -0.0522  0.1686
 1954W        W18215  13.871   6.132  15.769  0.2005  0.1174  0.1267
 1955W        W18216   7.006   5.061  13.937  0.2900 -0.1004 -0.0925
 1956W        W18217  14.578   7.561  13.594 -0.1991  0.0901 -0.0981
 1957W        W18218   0.698  16.625  11.855  0.0234  0.1366 -0.1724
 1958W        W18219   5.631  17.466   4.399  0.0362  0.4461  0.3314
 1959W        W18220  11.190  17.176  12.898 -0.2714  0.1105 -0.0322
 1960W        W18221  13.524   1.659  14.080 -0.0451  0.0718 -0.1272
 1961W        W18222   6.712  17.482  12.843 -0.4425  0.0893 -0.1382
 1962W        W18223   8.288  14.710   2.333 -0.2535 -0.1196 -0.1559
 1963W        W18224   8.191  11.675   4.515  0.1212 -0.1385  0.0586
 1964W        W18225   1.262   4.596   4.540  0.1948  0.1786 -0.0519
 1965W        W18226   1.551  10.064  16.379  0.2214 -0.1231 -0.1073
 1966W        W18227   9.834   5.533  14.215  0.2305  0.1772 -0.3463
 1967W        W18228  13.046   9.511  12.277 -0.2106  0.1259  0.1104
 1968W        W18229  16.471  14.717   1.497 -0.0508 -0.1617  0.1863
 1969W        W18230  14.410   7.068  13.421 -0.0530 -0.0549 -0.3482
 1970W        W18231  10.729   1.223  14.537 -0.0636  0.1878  0.2068
 1971W        W18232   0.558   6.607   5.818  0.0123 -0.1707 -0.0987
 1972W        W18233  14.184   8.800   2.450  0.1841 -0.3365 -0.0730
 1973W        W18234   5.819   6.248  16.857 -0.0493  0.1780  0.0502
 1974W        W18235  17.359   8.330  16.694  0.0024 -0.0108 -0.5177
 1975W        W18236   3.509  15.353  13.011  0.0351  0.2122 -0.1120
 1976W        W18237   6.231  16.421   3.078 -0.1275  0.0427 -0.1553
 1977W        W18238  12.885  15.916   1.383 -0.2137  0.0045  0.1302
 1978W        W18239   0.929  17.783   3.472 -0.0840 -0.4374 -0.2458
 1979W        W18240   8.187  11.794  12.605  0.0723  0.1078 -0.0906
 1980W        W18241   0.746   2.409   5.047  0.2120 -0.0360 -0.3402
 1981W        W18242  13.148  14.751   3.220  0.0797 -0.4008  0.1288
 1982W        W18243  10.764  13.495  13.905  0.0839  0.1965 -0.1131
 1983W        W18244   6.030   2.161   4.251 -0.1194 -0.1277  0.1379
 1984W        W18245  10.871   4.199  15.030  0.1517  0.2592  0.3566
 1985W        W18246  11.854   0.809  16.734 -0.0213  0.1657  0.0713
 1986W        W18247   5.676  14.633  12.238 -0.1121 -0.2676 -0.0550
 1987W        W18248   2.943  16.798  16.566 -0.1530 -0.0970  0.0700
 1988W        W18249   9.747   5.429  15.518  0.1001 -0.1224 -0.0016
 1989W        W18250  12.676   4.667   2.639 -0.3648  0.3386  0.0915
 1990W        W18251  13.221  16.676  15.183 -0.0119  0.2235  0.1646
 1991W        W18252  17.514   7.967  16.399  0.1651 -0.5498  0.2949
 1992W        W18253  13.814  15.176   2.271  0.2254 -0.1166 -0.0265
 1993W        W18254   8.091   6.942   4.228 -0.1253 -0.2892 -0.3639
 1994W        W18255   8.654   8.581  13.575  0.1431 -0.1374  0.0755
 1995W        W18256  11.684   5.718   2.267  0.1414 -0.0364  0.1198
 1996W        W18257   7.179  12.325   1.085 -0.1535  0.0891  0.0440
 1997W        W18258  16.687   8.593   5.753  0.0852 -0.1553  0.1307
 1998W        W18259  12.734   1.575   1.773  0.2283 -0.0552  0.1541
 1999W        W18260  15.801  14.711  12.745 -0.1520 -0.0123 -0.1432
 2000W        W18261  11.634   1.146   3.701 -0.1609  0.0928 -0.0775
 2001W        W18262  14.944  13.807  15.016  0.0103 -0.1093  0.1622
 2002W        W18263  15.991   2.943   0.474 -0.3124 -0.3575 -0.0166
 2003W        W18264  17.132   1.206   5.290 -0.0188  0.1502  0.1945
 2004W        W18265   0.366   3.863  15.836  0.2790  0.3861 -0.0212
 2005W        W18266  13.645   1.549   0.759  0.0805 -0.2007  0.0519
 2006W        W18267  16.679   3.775   6.087 -0.0802  0.0049  0.3374
 2007W        W18268   7.857  11.758   1.248 -0.1797  0.0461 -0.0787
 2008W        W18269  11.157   4.918   4.196  0.1821 -0.1931 -0.0048
 2009W        W18270  16.659   0.222   6.081 -0.2600  0.0363  0.0473
 2010W        W18271   4.011   1.789  16.108 -0.1248 -0.1978 -0.1739
 2011W        W18272  15.774   0.273   0.645 -0.0923  0.1655  0.2247
 2012W        W18273  16.805   6.133  14.432  0.0015 -0.2383  0.0030
 2013W        W18274   0.286   6.450  14.908 -0.2987 -0.1486 -0.0548
 2014W        W18275   8.918  12.799  16.423 -0.0672  0.1867  0.0060
 2015W        W18276  13.962  17.266   4.483  0.0583  0.0202  0.0692
 2016W        W18277  12.478   7.543  11.998  0.0952 -0.0860  0.0630
 2017W        W18278   2.281  12.437  14.567  0.0796 -0.1178  0.3467
 2018W        W18279   4.663  11.944   5.439 -0.0060 -0.0453  0.1885
 2019W        W18280  17.414  12.714   4.789 -0.1427  0.3796 -0.0197
 2020W        W18281  11.003  17.520   3.246 -0.2228 -0.4701  0.0761
 2021W        W18282   3.349   7.927  15.462  0.2134  0.0224 -0.1750
 2022W        W18283  16.636   2.972   1.775  0.0884  0.1662  0.1377
 2023W        W18284   0.195  13.224   1.949 -0.0215  0.4488  0.0630
 2024W        W18285  14.381  11.504  12.542  0.0307  0.0727  0.1851
 2025W        W18286  15.237   0.296   5.408 -0.2784  0.0310 -0.0379
 2026W        W18287   4.024  16.758   4.137  0.3376  0.0778  0.1452
 2027W        W18288   4.119  14.225  11.275 -0.1057 -0.1335 -0.0185
 2028W        W18289   2.555   9.216  14.987 -0.3027  0.0178  0.0755
 2029W        W18290   5.257   2.502   2.095 -0.1034  0.1886  0.1437
 2030W        W18291   6.757  13.954   3.286  0.1348 -0.0099 -0.1399
 2031W        W18292  13.641   4.472   2.619 -0.1774 -0.1186  0.0296
 2032W        W18293  16.217   9.694   5.859  0.0494  0.0192 -0.0950
 2033W        W18294  15.372   0.867   5.349  0.0632 -0.1611 -0.0964
 2034W        W18295  15.541   5.345   0.381 -0.1475 -0.1659  0.1569
 2035W        W18296   6.268  13.113   5.811  0.0410 -0.1248 -0.0150
 2036W        W18297   4.746   8.907  16.616 -0.4595 -0.3908  0.0241
 2037W        W18298   8.289  15.002  11.037 -0.0911  0.0892 -0.5428
 2038W        W18299  14.414   1.600   2.279  0.1948 -0.0272  0.1899
 2039W        W18300   6.513   4.140  12.941 -0.1703  0.0134 -0.1475
 2040W        W18301  14.359   0.404  14.557 -0.0750  0.1434  0.0877
 2041W        W18302  10.285   5.499   0.259 -0.0084 -0.2294 -0.1948
 2042W        W18303   2.390  13.009  13.214 -0.0280  0.1145 -0.1730
 2043W        W18304   7.335  15.512   4.849  0.1707 -0.1167 -0.0528
 2044W        W18305   7.658  17.212   1.240 -0.1096  0.1131  0.1347
 2045W        W18306  11.769   5.747  13.253  0.1140 -0.1814 -0.2893
 2046W        W18307   8.471  11.055   5.195 -0.0735  0.0613  0.1225
 2047W        W18308   1.114  15.297  14.598 -0.0491 -0.3018  0.0995
 2048W        W18309  17.290   4.041   0.624 -0.0377 -0.1053  0.2368
 2049W        W18310   0.289   5.678   5.586  0.1556 -0.2066  0.0649
 2050W        W18311  12.416  10.189   3.893  0.0166  0.1946  0.1481
 2051W        W18312  12.095   6.306   3.666 -0.1201 -0.1424  0.0436
 2052W        W18313   4.981  13.085  15.405  0.1168  0.0163  0.1046
 2053W        W18314   6.695  17.375   3.477 -0.1908  0.0731 -0.1361
 2054W        W18315   8.723   2.098  16.374  0.0141  0.1867 -0.0152
 2055W        W18316  15.114   7.910  15.517 -0.1121  0.1577  0.0709
 2056W        W18317  16.291  12.809  11.692  0.0813  0.1485 -0.2235
 2057W        W18318   0.749  14.191   0.221  0.1148 -0.2190  0.0059
 2058W        W18319  13.277   2.943  15.648  0.1560 -0.2710  0.1168
 2059W        W18320  10.742   0.498   2.108  0.1066 -0.0747 -0.2593
 2060W        W18321  15.227   9.696   0.209  0.0183 -0.0114  0.0109
 2061W        W18322   1.704  14.944   2.865 -0.0180  0.2199 -0.0247
 2062W        W18323   0.790  14.751   5.553 -0.1820  0.1207 -0.0802
 2063W        W18324   8.476   8.106   4.210  0.1251 -0.0253  0.1993
 2064W        W18325  16.079  16.231   0.268 -0.1096  0.1800  0.1614
 2065W        W18326   2.145  13.802  16.877 -0.1679  0.3107  0.0729
 2066W        W18327  16.620   0.435   5.068 -0.0419  0.0935  0.1133
 2067W        W18328  13.835   6.985  13.577  0.3594  0.0831  0.2148
 2068W        W18329   0.733  12.985  16.249  0.2174 -0.1756  0.1169
 2069W        W18330  15.436  10.039  13.497  0.1051  0.0306 -0.1696
 2070W        W18331  10.313  13.326   0.774  0.2137  0.2793  0.2637
 2071W        W18332   7.212  13.527  14.872 -0.0483 -0.1149  0.3405
 2072W        W18333  13.541   7.965   4.617  0.1926  0.2256 -0.5658
 2073W        W18334  10.998  11.488  11.044 -0.2956  0.0639 -0.0165
 2074W        W18335   4.359   2.173  15.258  0.1040 -0.1198  0.0633
 2075W        W18336  13.059   1.805   3.385  0.0275  0.1627  0.0257
 2076W        W18337   0.124  13.303   0.937  0.0053 -0.2144  0.0369
 2077W        W18338   1.370   8.913  15.585  0.0890  0.1723  0.2441
 2078W        W18339   5.579  17.661   0.317 -0.2621  0.0377 -0.4836
 2079W        W18340   0.574  17.722   4.138 -0.3339  0.1688  0.0756
 2080W        W18341   8.599  12.381   2.994 -0.0176  0.1902 -0.0276
 2081W        W18342  13.615  12.331   2.841 -0.0370  0.1906  0.0989
 2082W        W18343  15.930  11.068   2.556  0.2848  0.1892 -0.0484
 2083W        W18344  12.114   7.087  14.339  0.0934  0.0249 -0.2233
 2084W        W18345  14.650  14.478   1.792  0.1941  0.1898  0.0555
 2085W        W18346  16.900  15.626  12.097  0.1085 -0.0512 -0.0198
 2086W        W18347   8.561   8.056  13.160 -0.0218 -0.1757  0.2130
 2087W        W18348   1.997   5.917   1.041 -0.0086 -0.2206  0.1917
 2088W        W18349  12.600   5.961   4.501 -0.0400 -0.2469 -0.1271
 2089W        W18350   8.234   0.009   2.824  0.0107  0.0859 -0.1651
 2090W        W18351  17.411   3.540  13.264  0.2311 -0.0794  0.0440
 2091W        W18352   7.213   9.509   4.454 -0.1238  0.0889 -0.0665
 2092W        W18353  14.747   0.775   4.148  0.1621  0.1696  0.1467
 2093W        W18354  13.421   2.405  12.224 -0.0676  0.0067 -0.0257
 2094W        W18355   9.861  12.743  15.529 -0.1920  0.0512 -0.0451
 2095W        W18356   5.422   2.148   1.283  0.1323 -0.0798  0.0563
 2096W        W18357   4.374  14.173   0.731  0.1014  0.1977 -0.3602
 2097W        W18358   1.968   1.707   2.587 -0.1706  0.4962 -0.2007
 2098W        W18359   7.181   6.433  14.776  0.0372 -0.2544 -0.1028
 2099W        W18360   8.711   2.998   0.304  0.3000  0.0828 -0.2115
 2100W        W18361  16.291  16.340  11.724 -0.1437  0.3064 -0.1156
 2101W        W18362  16.566   0.781   1.984 -0.0574 -0.1450 -0.1663
 2102W        W18363   6.309   7.687  12.111  0.1130 -0.3013  0.1618
 2103W        W18364   8.322   5.131  15.767  0.0364 -0.0836 -0.3224
 2104W        W18365   3.123   8.949   4.037 -0.4333  0.0261  0.1002
 2105W        W18366  17.746   6.848   0.960  0.0771 -0.1732 -0.0343
 2106W        W18367   9.310  16.533  11.429  0.2659 -0.1134  0.1618
 2107W        W18368  15.398  16.973  15.935 -0.0765  0.1943  0.3221
 2108W        W18369   5.997   2.685   4.135 -0.0185  0.0673 -0.0674
 2109W        W18370  12.061  13.619   0.726 -0.0379  0.3047 -0.1334
 2110W        W18371   5.014  11.066   5.261  0.0499 -0.0292 -0.0843
 2111W        W18372   3.949   8.231   2.600 -0.1259  0.4516 -0.1321
 2112W        W18373  12.110   0.665  14.390 -0.4376  0.0207 -0.1749
 2113W        W18374  15.373   5.246  13.113  0.2005 -0.1513 -0.1814
 2114W        W18375  16.267   6.621   4.536 -0.1089  0.1268  0.4093
 2115W        W18376   5.593  17.440   5.859 -0.2241  0.2719  0.0500
 2116W        W18377  11.085   3.442   5.928  0.0489  0.0064  0.4707
 2117W        W18378   0.691   0.758   2.800  0.0508  0.1255  0.0318
 2118W        W18379   4.362   6.455  15.799 -0.0633  0.2373  0.0195
 2119W        W18380   4.161   0.232  13.416 -0.0267  0.0254  0.1404
 2120W        W18381   9.876  11.196   0.405 -0.0519 -0.0569 -0.1714
 2121W        W18382  12.855   8.174  13.765 -0.1871 -0.0721 -0.1324
 2122W        W18383   0.640   6.408  15.878 -0.0231 -0.1436  0.3180
 2123W        W18384   0.396   2.737   1.695  0.0930 -0.1324  0.1784
 2124W        W18385   2.393   4.073   5.090 -0.2864  0.0928 -0.2141
 2125W        W18386   4.942  11.208  16.409  0.1418  0.2969  0.1791
 2126W        W18387   6.717   7.285  13.262  0.2641 -0.3012  0.2533
 2127W        W18388  14.428   5.256   1.459  0.2322 -0.0062  0.1112
 2128W        W18389   8.399   8.162  12.228  0.0262 -0.0039  0.2251
 2129W        W18390   1.862   2.439  16.683  0.0147  0.0782  0.0971
 2130W        W18391   1.195  16.487   5.064 -0.1917  0.0685  0.4311
 2131W        W18392   1.487   0.416   3.076 -0.0674 -0.2714  0.3430
 2132W        W18393  14.640  10.543   1.936  0.1600  0.1278 -0.1198
 2133W        W18394   8.750  11.103  11.422  0.0254  0.1182  0.1191
 2134W        W18395  15.825  14.739   4.577 -0.1764  0.3352  0.0020
 2135W        W18396  12.252  17.382  13.051 -0.2121 -0.1139 -0.2024
 2136W        W18397   8.167   7.347   0.299 -0.2627 -0.3388 -0.1251
 2137W        W18398  15.743   0.062  14.873 -0.1502 -0.1345  0.0881
 2138W        W18399   1.246   8.312   5.636  0.1399 -0.1204  0.2481
 2139W        W18400   8.909   4.844  14.067 -0.0739  0.1648 -0.2267
 2140W        W18401   3.836  12.888  16.913  0.0270 -0.0281  0.2267
 2141W        W18402   6.869   8.893   0.411  0.3591 -0.1362 -0.1265
 2142W        W18403   4.779  11.370  14.351 -0.1716  0.1805 -0.0271
 2143W        W18404  16.204  10.266   1.254 -0.1475 -0.1369 -0.0562
 2144W        W18405   8.787   3.897   1.459 -0.0134 -0.2085  0.0648
 2145W        W18406   7.723   2.117  13.934 -0.0042  0.2017 -0.0414
 2146W        W18407   1.016   7.033   2.848  0.1746  0.0054 -0.3258
 2147W        W18408  10.948  11.694   3.625  0.0420 -0.1449  0.1303
 2148W        W18409   8.384   7.698   3.945 -0.1183 -0.0476  0.0789
 2149W        W18410   0.678  16.962   1.076 -0.4309 -0.0256  0.3947
 2150W        W18411  16.248  15.469  16.764  0.1686 -0.0115 -0.0030
 2151W        W18412   6.473  13.614  14.755 -0.1629 -0.2348  0.0788
 2152W        W18413   0.579  15.949   4.553 -0.2989 -0.0193 -0.1046
 2153W        W18414   1.367  13.704  12.262  0.2597  0.4173 -0.2981
 2154W        W18415   2.719  10.815  16.455  0.0730 -0.0421 -0.1952
 2155W        W18416   3.677  16.845  15.707  0.0971  0.0551  0.3265
 2156W        W18417   3.768  12.723  12.835  0.3758  0.1520  0.0496
 2157W        W18418   9.252   9.905   5.533  0.1990  0.1566  0.1174
 2158W        W18419  13.309   1.616  13.628  0.1962  0.0915 -0.0343
 2159W        W18420  11.029  16.336   4.940  0.1559 -0.0867 -0.1233
 2160W        W18421   7.382  11.100  15.892  0.1507  0.0228 -0.2532
 2161W        W18422  10.433   5.138  13.478  0.0875 -0.0922 -0.3488
 2162W        W18423   9.739   7.869  16.924 -0.2807 -0.0906  0.2645
 2163W        W18424  16.029   9.807   2.243 -0.2922  0.3693 -0.0380
 2164W        W18425  11.331  12.483  13.707 -0.0196  0.0463 -0.0499
 2165W        W18426   8.826   9.895   3.764  0.1167 -0.1647  0.1361
 2166W        W18427  16.010   5.973  16.649  0.2545 -0.2166 -0.1008
 2167W        W18428   4.325   8.244   2.225  0.1137  0.1729  0.0321
 2168W        W18429  10.354  13.377   4.123  0.0379 -0.1525 -0.2398
 2169W        W18430   3.687   0.143  16.340 -0.2190  0.1167 -0.0072
 2170W        W18431   6.242   4.585   1.676 -0.0192 -0.1244 -0.2961
 2171W        W18432   1.054  10.713  11.882  0.2100 -0.1589  0.0708
 2172W        W18433  16.236  11.128   5.094  0.1200 -0.0897 -0.2360
 2173W        W18434   1.040   2.338  14.646 -0.3411 -0.0280 -0.0910
 2174W        W18435   6.113  10.264  15.235 -0.1937  0.0438  0.1652
 2175W        W18436   4.950   9.183   2.803 -0.3113 -0.1881 -0.1165
 2176W        W18437  13.570   8.900   4.134 -0.0824  0.0997 -0.1215
 2177W        W18438  17.272   2.111   4.795  0.0521 -0.3230 -0.0381
 2178W        W18439   1.847   0.646   4.263  0.0438  0.1059 -0.0735
 2179W        W18440   3.303   6.815   1.540 -0.1117  0.1275  0.2493
 2180W        W18441  15.724   7.286   1.581  0.4960  0.1438  0.1132
 2181W        W18442   9.482   9.696   3.226  0.3053 -0.0870 -0.0871
 2182W        W18443  17.345  10.855  16.467 -0.4296 -0.0039 -0.2949
 2183W        W18444  10.555  13.934   2.745 -0.1350  0.0406 -0.2597
 2184W        W18445   6.834   2.172   2.633  0.0426  0.0406  0.1353
 2185W        W18446  15.812   2.769   1.603 -0.2506 -0.0672 -0.0185
 2186W        W18447  13.948   7.419  14.225  0.1922  0.3044  0.0284
 2187W        W18448   5.910   8.033  13.465 -0.2556 -0.2018  0.1824
 2188W        W18449  11.866  12.087  16.388  0.1850  0.1600 -0.0232
 2189W        W18450   2.934  11.805   4.111 -0.2596  0.0330 -0.0641
 2190W        W18451   0.440   4.858   1.792  0.0241 -0.1646 -0.0369
 2191W        W18452  11.272  11.229   0.919 -0.0535 -0.0883  0.0497
 2192W        W18453   5.565  12.213  11.817  0.1230 -0.0460  0.2680
 2193W        W18454   9.143   5.552  16.162 -0.0760 -0.0752  0.0040
 2194W        W18455  10.928   0.500  13.029 -0.0227 -0.2986 -0.2609
 2195W        W18456   8.217  10.924   4.141  0.1583  0.2463  0.0964
 2196W        W18457   6.908   0.459  14.399 -0.3592  0.0258 -0.2296
 2197W        W18458   0.998  11.499  11.856 -0.2454 -0.1391  0.1575
 2198W        W18459  10.763   1.916   0.290  0.1880 -0.1701  0.2307
 2199W        W18460  10.486   8.197   6.468  0.0347  0.1034  0.1084
 2200W        W18461  11.759   8.693   2.305  0.0308 -0.0983  0.1728
 2201W        W18462   2.615   4.680  13.760  0.0906 -0.2980  0.1356
 2202W        W18463  12.478  16.345  11.867  0.0118  0.1339  0.2876
 2203W        W18464   2.794  12.292   4.463 -0.2661  0.0238  0.1571
 2204W        W18465   0.773  13.046  15.747 -0.0390 -0.4603  0.2881
 2205W        W18466   0.461  13.837  13.189 -0.1014 -0.2091  0.0979
 2206W        W18467  10.876  11.549   1.010 -0.4590 -0.1385  0.0272
 2207W        W18468   3.614  15.676   4.372 -0.0951  0.1578  0.0643
 2208W        W18469  11.870  16.826   0.990 -0.4126  0.1726 -0.0708
 2209W        W18470   2.336   2.389  11.667 -0.0477  0.0745  0.3881
 2210W        W18471  10.611  11.520  11.474 -0.1072  0.2617  0.1984
 2211W        W18472   2.230   0.263  15.286 -0.0937 -0.0516  0.0144
 2212W        W18473   8.507  13.592  14.348  0.4244  0.1237  0.2343
 2213W        W18474  16.467  16.652   1.412  0.0612  0.0748 -0.2321
 2214W        W18475   5.509  17.531  15.264  0.0542  0.0867 -0.1337
 2215W        W18476   1.461   2.470   0.544  0.0951 -0.2065  0.1817
 2216W        W18477   6.473   6.493   1.536  0.1519  0.0782  0.0792
 2217W        W18478   2.441   8.250   3.029 -0.2496 -0.0961 -0.1415
 2218W        W18479  12.028   4.367   1.728 -0.3687  0.0514  0.2954
 2219W        W18480  13.276   1.255   5.673 -0.0242  0.4464  0.1760
 2220W        W18481  17.076   6.715  16.578 -0.3418  0.1375 -0.3779
 2221W        W18482   7.916  10.619  14.779  0.4506 -0.0034  0.2007
 2222W        W18483  14.456  16.934   4.998  0.1547 -0.3067  0.1256
 2223W        W18484   3.133   5.099  15.926  0.0846 -0.0018  0.0473
 2224W        W18485  14.663   1.867   4.824 -0.3994 -0.0891 -0.0445
 2225W        W18486   7.047  15.634  15.232 -0.2157 -0.2229 -0.0937
 2226W        W18487   2.497   4.634  15.273 -0.0147  0.0163  0.2078
 2227W        W18488  10.631   2.334  14.766  0.1753 -0.0345 -0.0370
 2228W        W18489   9.011  11.649   0.869 -0.0128 -0.0375 -0.1027
 2229W        W18490   3.476   9.234   2.163 -0.1351  0.1276  0.1827
 2230W        W18491   4.175  13.495   5.472  0.0191 -0.1797  0.3747
 2231W        W18492  14.444  12.724   2.469  0.0040  0.2552 -0.1067
 2232W        W18493   5.486  12.988  16.461  0.1264 -0.2844  0.1355
 2233W        W18494  17.018  12.853  12.373 -0.2208 -0.1751 -0.0702
 2234W        W18495   3.704  12.099  13.366  0.2744  0.1217  0.1106
 2235W        W18496  16.473   5.728   3.059 -0.0100 -0.3622  0.2402
 2236W        W18497   3.849  10.289   1.441  0.0910  0.0336  0.1795
 2237W        W18498   2.969   1.379   3.991 -0.2077  0.2154 -0.0106
 2238W        W18499  10.567  12.358   3.300 -0.0320 -0.2730  0.1904
 2239W        W18500   8.450   8.411  15.075 -0.0359  0.0478  0.2150
 2240W        W18501  13.951  10.950   5.822 -0.2466 -0.0878 -0.0198
 2241W        W18502   8.620   5.997   5.074  0.0249 -0.1570  0.1022
 2242W        W18503  11.974   7.339  12.795  0.1211 -0.2328  0.1122
 2243W        W18504  14.555   5.702   1.856  0.0125 -0.2651 -0.0595
 2244W        W18505   9.331  10.621   5.172 -0.0885 -0.1860 -0.2000
 2245W        W18506   1.218  10.227  16.063  0.2252  0.0635  0.1493
 2246W        W18507   4.073  13.936   1.749 -0.3176 -0.0621  0.0746
 2247W        W18508   7.571  15.800  15.630 -0.1636 -0.0328  0.1715
 2248W        W18509   3.440   1.045  11.887 -0.0777 -0.1211  0.0118
 2249W        W18510  11.501  10.058   0.036 -0.1924  0.4137 -0.0819
 2250W        W18511   4.472   5.920  13.012 -0.1518 -0.2118 -0.1020
 2251W        W18512  12.533   0.670   4.325 -0.3005  0.3617  0.3042
 2252W        W18513  16.071  11.964  16.680  0.0494 -0.1088 -0.1434
 2253W        W18514  15.987   5.208  14.970 -0.1130 -0.1057 -0.2531
 2254W        W18515   2.085  15.676  12.462 -0.0990  0.0496 -0.1062
 2255W        W18516   2.903  15.251   2.472  0.1671  0.1328 -0.2603
 2256W        W18517  13.780  11.468   3.745 -0.1453  0.0690 -0.1996
 2257W        W18518  14.321  13.855   0.809 -0.1730 -0.2198 -0.1173
 2258W        W18519   1.206  10.528   4.294  0.0694 -0.2854  0.0412
 2259W        W18520  14.798   3.043  12.355 -0.3063  0.0890  0.0325
 2260W        W18521   4.811   4.573  15.019  0.4230 -0.1276 -0.0419
 2261W        W18522   0.928  14.048  13.858  0.0270  0.2761 -0.0254
 2262W        W18523  13.959  12.356   2.488 -0.2431 -0.2305  0.1263
 2263W        W18524   3.948  10.208  12.082 -0.0654  0.1387  0.0887
 2264W        W18525  17.399  13.714  16.209 -0.0195  0.1544 -0.0670
 2265W        W18526  16.974   0.534  14.329  0.0848 -0.0369 -0.4001
 2266W        W18527   1.896  14.272  13.482 -0.0384  0.1114 -0.3974
 2267W        W18528   9.929   2.608   4.256 -0.2770  0.1374  0.0678
 2268W        W18529   6.741  17.841   2.232 -0.0630 -0.1222  0.0336
 2269W        W18530  10.393   9.944  11.778 -0.2702 -0.1976 -0.0006
 2270W        W18531  13.945   1.917  11.903  0.0547 -0.0605  0.1307
 2271W        W18532  17.086   5.962   3.635  0.0276  0.0879 -0.2101
 2272W        W18533  10.786   3.425  12.852 -0.1319  0.1597 -0.1827
 2273W        W18534   4.190   7.681  16.278 -0.1879  0.2101  0.0783
 2274W        W18535  17.684  14.861   0.136  0.3279 -0.0569 -0.1979
 2275W        W18536   8.456  16.627   2.298  0.1684  0.1507 -0.1139
 2276W        W18537  14.686  13.315  16.894 -0.0045  0.0890  0.0430
 2277W        W18538   5.887   9.724  12.235 -0.0405 -0.0127  0.0631
 2278W        W18539   7.786   4.507  12.898  0.3495  0.0395  0.1659
 2279W        W18540   5.232   3.601  12.519  0.0550  0.1437 -0.0436
 2280W        W18541  15.999  12.141  14.197 -0.2513 -0.0737 -0.0543
 2281W        W18542  17.149   0.650   4.075  0.1951  0.0701  0.2350
 2282W        W18543   3.034  14.071  12.082  0.2366  0.2389  0.3284
 2283W        W18544   1.442   0.336  11.640  0.3052 -0.2230 -0.0273
 2284W        W18545  13.099  15.650   3.758  0.4022 -0.2041  0.0317
 2285W        W18546  11.029   5.163  16.787  0.0363 -0.1219 -0.0015
 2286W        W18547   3.249  13.074  16.724  0.2419  0.1821  0.0430
 2287W        W18548  12.613   3.906  12.325 -0.0309  0.0046  0.1697
 2288W        W18549  13.835   4.663  14.248 -0.3820 -0.1225  0.0798
 2289W        W18550   0.739   8.133  11.838 -0.4222 -0.3172 -0.2110
 2290W        W18551   9.502   4.363  16.780  0.0010  0.0535 -0.4172
 2291W        W18552  12.796  16.841  14.869  0.0799  0.0982 -0.0491
 2292W        W18553  12.028   2.365  14.852  0.1432  0.2250  0.0562
 2293W        W18554   9.328   7.733  16.654  0.2411 -0.1554 -0.1816
 2294W        W18555   8.236   2.452   3.401  0.2611  0.0571 -0.1447
 2295W        W18556  14.064   6.969   0.014 -0.0774  0.0520  0.0193
 2296W        W18557   1.537  11.833   1.527 -0.0970  0.3999  0.0108
 2297W        W18558   2.165   6.252   2.508  0.3668 -0.2245 -0.2995
 2298W        W18559  16.193  14.247  14.759  0.0036 -0.2351  0.0377
 2299W        W18560   0.268   2.718   5.246  0.3749  0.6275 -0.1720
 2300W        W18561  10.789  11.013   3.585  0.1898 -0.0118  0.0575
 2301W        W18562  13.728   0.476  14.074 -0.1299  0.0220  0.1138
 2302W        W18563  15.996   3.866  13.544 -0.0208 -0.2270  0.3551
 2303W        W18564  14.948   1.596  14.542  0.2168  0.4546 -0.0039
 2304W        W18565   7.353  11.757   0.054  0.1107  0.0870  0.3057
 2305W        W18566  16.081   9.891  14.211 -0.0921  0.0390 -0.0214
 2306W        W18567  15.343   0.082   0.865 -0.0756  0.3458 -0.1483
 2307W        W18568   7.400   1.587   2.767 -0.0754  0.1974  0.2133
 2308W        W18569   4.691  11.283  15.313 -0.1486 -0.2812  0.2196
 2309W        W18570  11.827  15.151   3.550 -0.1374  0.3787  0.0225
 2310W        W18571   0.979   6.210   5.748  0.0640 -0.1335 -0.1839
 2311W        W18572  17.102  16.521  16.958  0.0412  0.1015 -0.3355
 2312W        W18573   0.760  11.674  15.221  0.0250 -0.2514  0.4985
 2313W        W18574  12.593   7.766   2.196 -0.0349 -0.0882  0.1449
 2314W        W18575   5.248  10.018   6.080 -0.0962  0.3467  0.4230
 2315W        W18576   4.438   5.814  14.412 -0.1787 -0.1336 -0.1294
 2316W        W18577  14.533  10.897   5.114 -0.1502 -0.0323  0.0756
 2317W        W18578   1.541   6.829  12.399 -0.2267  0.2040  0.0723
 2318W        W18579   8.544  16.131   2.302  0.1692 -0.0264 -0.0559
 2319W        W18580  15.402   4.478  14.227  0.2106 -0.1024  0.0473
 2320W        W18581   7.026   5.498  12.360  0.0413 -0.0917  0.3309
 2321W        W18582  15.135   3.389  12.187 -0.0234 -0.4249 -0.2403
 2322W        W18583   2.616  17.581  12.747 -0.0032 -0.0241 -0.1775
 2323W        W18584   3.308   1.356   4.443 -0.2424  0.2820 -0.1593
 2324W        W18585   0.006  15.522   3.602  0.1258 -0.0103 -0.1130
 2325W        W18586   6.628  14.667   1.844  0.1377  0.4578  0.0628
 2326W        W18587  12.662  12.372   4.341  0.0596  0.0748 -0.1871
 2327W        W18588   3.427   0.993  16.881 -0.2748 -0.1289  0.2696
 2328W        W18589   9.142   8.837  11.625 -0.1581 -0.3932  0.0390
 2329W        W18590  15.476   1.501  15.295  0.0128 -0.2274 -0.0470
 2330W        W18591  17.047   3.093   5.550  0.1352  0.0093  0.1385
 2331W        W18592   4.713   9.791   5.463  0.0954  0.1489  0.0648
 2332W        W18593  11.652   6.982  11.973  0.0115 -0.0859  0.1836
 2333W        W18594   0.028   9.474   5.650  0.0949  0.2331 -0.0215
 2334W        W18595  15.308  12.751  16.653  0.1242 -0.1833  0.1647
 2335W        W18596   5.665   0.066   0.754 -0.0800 -0.1247 -0.1782
 2336W        W18597   9.093  11.842  14.975  0.0268  0.0818 -0.0179
 2337W        W18598   8.620   3.839   4.876 -0.2219  0.2673 -0.2295
 2338W        W18599   4.220  15.239  15.674  0.0021  0.0634  0.4121
 2339W        W18600   8.461   0.033   5.612  0.0518 -0.2769  0.1561
 2340W        W18601  12.984  13.074  14.339  0.3066  0.1036  0.0909
 2341W        W18602   2.315   3.770   4.722  0.1260  0.0775 -0.3289
 2342W        W18603   2.965  14.095  14.896  0.1785  0.0475 -0.0442
 2343W        W18604  17.471  13.551   0.745  0.0842 -0.0038  0.0842
 2344W        W18605  11.409   9.607   2.494 -0.0427  0.0135 -0.0674
 2345W        W18606  12.796  16.702   6.201  0.1306 -0.0266 -0.0716
 2346W        W18607  17.108   5.407   0.997 -0.0068 -0.0556 -0.1194
 2347W        W18608   8.378   1.345   3.686 -0.2600  0.0788  0.0751
 2348W        W18609   0.909   5.602  15.885 -0.2827 -0.1522 -0.2645
 2349W        W18610  14.673  13.798   3.333  0.0763  0.0569 -0.2343
 2350W        W18611   6.053   2.944   3.111  0.0365  0.1314 -0.1173
 2351W        W18612  16.888   3.179   0.870 -0.3113  0.3345  0.2796
 2352W        W18613   3.274   2.312  14.298  0.1554 -0.1136 -0.0693
 2353W        W18614   0.944   4.887   1.724  0.1503  0.2268  0.1770
 2354W        W18615   4.868   4.577   0.164 -0.3511 -0.5209 -0.2537
 2355W        W18616   8.663   0.019  13.710  0.0135 -0.0942 -0.1666
 2356W        W18617   9.275   7.585  13.519 -0.1392  0.1785 -0.0182
 2357W        W18618  11.429  15.128  13.217 -0.2322 -0.4866 -0.0070
 2358W        W18619  15.739   3.335  13.205 -0.1838 -0.0175 -0.0121
 2359W        W18620   2.285   6.223  16.635  0.1349  0.0342 -0.1004
 2360W        W18621   6.250  17.488  14.205 -0.2152  0.1949 -0.2709
 2361W        W18622   4.185   9.350   5.990 -0.0106  0.0721  0.0005
 2362W        W18623   0.381  12.577   5.819 -0.0397 -0.1002  0.3021
 2363W        W18624   7.469   9.616  14.616 -0.0509 -0.1668 -0.2648
 2364W        W18625   3.085  12.268  16.694 -0.1216  0.0442  0.1920
 2365W        W18626  11.697   0.398   2.909 -0.0952 -0.1260  0.0098
 2366W        W18627   8.275   1.980   5.702 -0.0618  0.0050 -0.2204
 2367W        W18628  16.858   7.127  15.363 -0.0663  0.0551  0.1945
 2368W        W18629  17.782  10.008   3.766  0.0327 -0.0888  0.1363
 2369W        W18630  12.908   7.435  11.767 -0.0640 -0.0085 -0.1084
 2370W        W18631   1.962   7.673   2.087  0.0906  0.0569  0.0308
 2371W        W18632   6.432  13.317  15.996 -0.1077  0.2123  0.0498
 2372W        W18633   0.312   7.082   3.861  0.3883 -0.1476 -0.2166
 2373W        W18634  10.428   6.886  15.776 -0.0975 -0.1615 -0.2202
 2374W        W18635   4.534  11.785   2.252 -0.1324 -0.0653  0.0257
 2375W        W18636   5.607   2.918   3.662 -0.3351 -0.1831  0.2032
 2376W        W18637  14.939   0.691  12.145 -0.0180 -0.1185 -0.0786
 2377W        W18638  14.240  10.380  14.663 -0.1257 -0.2406  0.0663
 2378W        W18639   3.722   2.752  15.247  0.3959  0.0814 -0.0926
 2379W        W18640   5.521   1.479   1.808  0.3213 -0.0825 -0.0073
 2380W        W18641  13.677  14.310  15.338 -0.1654  0.0991  0.1383
 2381W        W18642   0.195  16.145   5.732  0.0681 -0.0819  0.0322
 2382W        W18643   8.657  15.495   5.759  0.2982  0.0844 -0.0721
 2383W        W18644  14.598   4.677   2.802  0.1123  0.0666  0.1908
 2384W        W18645  13.503  15.212  11.809 -0.3120 -0.2149  0.1166
 2385W        W18646   9.563  12.171  16.077  0.0023  0.2431 -0.0039
 2386W        W18647   9.572  14.153  11.437 -0.0895  0.1685 -0.0212
 2387W        W18648   3.446   0.182   4.889  0.3182 -0.0477  0.1632
 2388W        W18649  13.085   0.263  11.690 -0.0918 -0.4055  0.1172
 2389W        W18650  12.999  11.149   4.199 -0.1565 -0.0354  0.1452
 2390W        W18651  15.651  11.324  14.407  0.1668 -0.0732 -0.1006
 2391W        W18652   3.748   3.074   5.116  0.4090 -0.3538  0.2824
 2392W        W18653  14.375  17.052   6.353  0.1007 -0.0953  0.0404
 2393W        W18654  15.355  13.049   3.413  0.0062  0.3610  0.0182
 2394W        W18655  10.421   1.147  12.244 -0.1851  0.1547  0.0675
 2395W        W18656  13.077   9.988   3.272  0.0251  0.1967  0.1466
 2396W        W18657  17.184  16.270  13.346  0.0561 -0.2871 -0.0268
 2397W        W18658  10.582   7.377  15.937 -0.0123 -0.2817 -0.0533
 2398W        W18659  10.864   3.616   4.684 -0.2937 -0.1338 -0.3326
 2399W        W18660   4.091  17.583  15.924 -0.1884  0.2027  0.1277
 2400W        W18661   6.385  14.922   4.982 -0.0370 -0.0595 -0.1472
 2401W        W18662  11.700  13.787   4.674 -0.1616 -0.0716 -0.0888
 2402W        W18663   5.255  17.839   3.232  0.0234  0.2429  0.1865
 2403W        W18664   2.170   2.713  15.999 -0.0310  0.4359 -0.0281
 2404W        W18665   0.370   1.058   0.593 -0.3665 -0.2776  0.3859
 2405W        W18666   0.530  14.151   1.923 -0.3249 -0.2534  0.0144
 2406W        W18667   6.741   5.648  15.869 -0.2884 -0.2962  0.1949
 2407W        W18668   1.388  11.464   4.716  0.2027 -0.1599  0.3287
 2408W        W18669   2.784  15.872  14.279  0.0279 -0.0482  0.0955
 2409W        W18670   4.108   2.599   0.203 -0.1988  0.0337 -0.2165
 2410W        W18671  15.863   7.509   2.236 -0.1006  0.0882  0.2472
 2411W        W18672   0.645   1.326   5.161 -0.0409  0.0320 -0.0841
 2412W        W18673   5.148   9.889  16.646  0.0117  0.2154 -0.2059
 2413W        W18674   3.953   1.881   0.959 -0.0022 -0.1209  0.0884
 2414W        W18675  10.989  16.084  13.991 -0.0709  0.1664  0.3741
 2415W        W18676  10.220  16.041  13.114  0.1302  0.0520 -0.2257
 2416W        W18677  11.109  16.472  11.261  0.1070 -0.1771 -0.0356
 2417W        W18678   6.495   2.439  12.756 -0.1222 -0.0949  0.2979
 2418W        W18679   5.400   8.769   4.226 -0.0577  0.1172  0.5756
 2419W        W18680   5.831  12.921   0.584 -0.0484 -0.1148  0.4783
 2420W        W18681  11.890   1.841  15.610 -0.0125  0.1823  0.3092
 2421W        W18682   6.333   0.822   2.621 -0.0648  0.0067 -0.0239
 2422W        W18683   3.952   3.150  16.375  0.0203  0.0983  0.1593
 2423W        W18684  14.856   4.505   0.965 -0.0776 -0.2600 -0.2719
 2424W        W18685  12.080   3.331   1.106  0.2170  0.3351 -0.0705
 2425W        W18686   1.128  13.168  14.558 -0.1484 -0.0967 -0.0186
 2426W        W18687   2.461  15.002  14.607  0.0899  0.1321  0.1427
 2427W        W18688   2.278   7.369  15.457 -0.0226  0.1977 -0.1049
 2428W        W18689  11.904  11.819   3.355  0.1165  0.2674  0.2693
 2429W        W18690   5.627   6.138   1.131 -0.0153  0.0493  0.0163
 2430W        W18691   5.331   7.109  15.303 -0.3854 -0.0682  0.4220
 2431W        W18692  12.943  11.926  11.099  0.3420 -0.5326  0.1776
 2432W        W18693   5.794   5.022   0.088  0.1273  0.0656  0.2888
 2433W        W18694   2.279   9.271   4.040  0.1491  0.0091  0.0433
 2434W        W18695   9.442   7.580  11.691  0.0178  0.1240 -0.1196
 2435W        W18696  14.919   7.491   1.032 -0.2313  0.3789 -0.4332
 2436W        W18697  16.628   1.393   4.239  0.2015  0.0826 -0.1483
 2437W        W18698   7.814  16.999  12.154 -0.1284 -0.3327  0.1523
 2438W        W18699  10.452   5.534  15.314 -0.0130 -0.1225 -0.1432
 2439W        W18700  14.428   7.566   1.052 -0.1382  0.3523  0.2463
 2440W        W18701  14.196  12.501   5.928  0.0674 -0.2844  0.2077
 2441W        W18702   7.894   0.985  13.016 -0.0452 -0.1003 -0.0810
 2442W        W18703   9.778  10.661   0.185  0.1889  0.2689 -0.1766
 2443W        W18704   9.538  12.299  12.092  0.0056  0.0032 -0.2816
 2444W        W18705   7.061  14.259  15.623  0.0646  0.2239 -0.0151
 2445W        W18706  12.410  14.710   5.109  0.1456  0.1049  0.1081
 2446W        W18707  14.768   0.609   3.626 -0.2002  0.1023  0.0110
 2447W        W18708   0.391  14.818  15.812 -0.0646 -0.1620  0.1564
 2448W        W18709  14.135  16.409  12.063 -0.4466  0.1634  0.1718
 2449W        W18710   6.300   5.919  13.357 -0.3241  0.1006 -0.1070
 2450W        W18711   8.186   3.414   3.143 -0.0536  0.1455  0.3556
 2451W        W18712   8.691   1.050   0.124 -0.1407 -0.1281 -0.0084
 2452W        W18713   0.135   8.583  15.180  0.1123  0.1253 -0.0201
 2453W        W18714  16.104   7.095   2.424  0.0670 -0.0876 -0.0414
 2454W        W18715  15.843   9.579  13.220  0.2097  0.1701 -0.1156
 2455W        W18716   6.939  11.441   5.806 -0.1623 -0.1035  0.4153
 2456W        W18717   3.477   8.835   3.167  0.1310 -0.3272 -0.2902
 2457W        W18718   8.756  12.487  16.847 -0.2633  0.1951 -0.0885
 2458W        W18719  17.474  10.912   1.897 -0.2932  0.0795 -0.1049
 2459W        W18720  14.011   3.005   3.463 -0.0922  0.0668 -0.0946
 2460W        W18721  15.569  14.936   5.263 -0.3044  0.0173 -0.3520
 2461W        W18722  16.776  17.241   1.757  0.2700  0.1785  0.0201
 2462W        W18723  17.838  11.721   4.598 -0.2139 -0.1654 -0.0364
 2463W        W18724   1.879   9.234   0.422  0.2631  0.3030  0.1920
 2464W        W18725   4.907  10.406  13.435  0.1769  0.0602  0.1460
 2465W        W18726   2.174  10.414  14.773 -0.1371  0.1546 -0.0003
 2466W        W18727   8.364   8.250  16.038  0.0558 -0.1998 -0.2203
 2467W        W18728   7.319  12.105   0.487  0.0309  0.1658  0.2289
 2468W        W18729   8.297   9.835   0.225 -0.0908 -0.1321 -0.0220
 2469W        W18730  11.637   9.204  16.695 -0.0530  0.0374 -0.0147
 2470W        W18731   8.333   8.658   3.679  0.1159  0.0938 -0.3586
 2471W        W18732   1.899  15.209  12.508  0.0478 -0.0341 -0.1923
 2472W        W18733  12.829  13.714   3.256 -0.2755 -0.2603 -0.0277
 2473W        W18734  12.185   0.117   5.638  0.2729  0.0366  0.0436
 2474W        W18735   3.866   9.466  16.552  0.2220  0.1731 -0.0994
 2475W        W18736   8.018   2.752  16.509 -0.3789  0.0269  0.0380
 2476W        W18737  16.683   5.048  16.371  0.0364  0.1013 -0.0560
 2477W        W18738  16.386   4.361  13.295 -0.1804  0.1097 -0.2145
 2478W        W18739   4.518   7.033  13.088 -0.1911  0.0377  0.1994
 2479W        W18740   9.375   2.281   2.468  0.1199  0.1473 -0.0834
 2480W        W18741   3.947  12.694  13.379 -0.0685 -0.0179 -0.1555
 2481W        W18742  17.131   2.556   4.597  0.1026 -0.1632  0.0670
 2482W        W18743   6.994   0.781   1.029  0.2105  0.2295  0.1467
 2483W        W18744   5.628  16.727   3.879  0.2119 -0.0265  0.3844
 2484W        W18745   7.337   0.946   2.079 -0.1597  0.1942  0.3914
 2485W        W18746   0.797  15.969   3.324  0.0976  0.1734 -0.3001
 2486W        W18747  11.353   3.676  15.591  0.2676  0.1628 -0.1576
 2487W        W18748   8.757  15.173   3.431  0.0847  0.1908 -0.0929
 2488W        W18749   6.564  14.414  15.694  0.0138 -0.4199  0.0249
 2489W        W18750   4.015   4.897  14.586 -0.0909 -0.2926 -0.1092
 2490W        W18751  12.748   4.219   0.546 -0.0594 -0.0259 -0.0290
 2491W        W18752  15.383   2.432   1.724  0.3207 -0.2737  0.2938
 2492W        W18753  16.112  13.215   0.055 -0.0504 -0.3498  0.2314
 2493W        W18754  12.225  15.932   3.326  0.1825 -0.2608  0.2213
 2494W        W18755   8.331   9.888  15.032  0.0231 -0.2116 -0.0299
 2495W        W18756   7.449  11.972  11.375 -0.0852  0.0776  0.1117
 2496W        W18757  13.103   6.016  13.447 -0.1974  0.2223 -0.0260
 2497W        W18758  17.038  15.877  12.987  0.1504 -0.1852 -0.1747
 2498W        W18759  11.699  11.914  15.919  0.0728 -0.4243 -0.0137
 2499W        W18760  16.751   7.520   3.848 -0.0126 -0.0695 -0.2165
 2500W        W18761   8.309   7.630  13.896 -0.0808 -0.0342 -0.0425
 2501W        W18762   9.622   8.728  16.522 -0.0139  0.0930  0.4217
 2502W        W18763   6.089   4.383  15.255  0.0585 -0.0927 -0.0778
 2503W        W18764   3.964   5.385  16.840 -0.0977  0.1268  0.2018
 2504W        W18765  12.118   1.662   0.034 -0.2234 -0.0658  0.0392
 2505W        W18766  13.100  13.938   4.578  0.0986  0.2688 -0.1051
 2506W        W18767   0.242   3.148  16.460 -0.2850  0.0379 -0.5263
 2507W        W18768   8.573  11.827   1.106 -0.0371 -0.1657  0.1482
 2508W        W18769  17.715  10.238   1.306 -0.0599 -0.1680 -0.0061
 2509W        W18770   6.069  15.678  12.409 -0.0082 -0.1189 -0.0934
 2510W        W18771   9.823  14.302  14.421 -0.0774  0.2643 -0.1224
 2511W        W18772  11.625   0.799   0.221  0.2148  0.1125  0.0429
 2512W        W18773  13.289  10.561  15.044  0.1029  0.0417 -0.1341
 2513W        W18774   6.057   1.596  16.710  0.2567  0.1046  0.2089
 2514W        W18775  16.685  17.604  12.257  0.3020 -0.0584 -0.1198
 2515W        W18776  16.046  10.114   4.185  0.1359 -0.3331  0.1694
 2516W        W18777   7.748  16.717   2.448 -0.1624  0.0701 -0.0554
 2517W        W18778  16.667   9.214  15.634 -0.2926  0.0146 -0.0842
 2518W        W18779   7.659   7.800  12.685  0.0236  0.2297 -0.0664
 2519W        W18780   4.936  10.921   4.707  0.1030 -0.1260 -0.3400
 2520W        W18781   5.803   1.860  12.940 -0.2453  0.0209 -0.1555
 2521W        W18782   7.077   8.819  11.802  0.4187  0.1753 -0.0807
 2522W        W18783   1.243   7.830   2.562  0.0246  0.2778 -0.1071
 2523W        W18784   6.837   9.082   2.200  0.3097  0.0641  0.0612
 2524W        W18785   8.570  10.027  16.302  0.0882 -0.2235  0.0376
 2525W        W18786   7.640  16.273   3.583 -0.3110 -0.4782  0.1453
 2526W        W18787   9.440   4.895   4.339 -0.0886 -0.1828  0.0094
 2527W        W18788  16.749  10.428  14.816 -0.1186 -0.1499 -0.0315
 2528W        W18789   8.752  12.801   4.866 -0.1470  0.2026 -0.0792
 2529W        W18790  17.528  16.512   3.036 -0.1658 -0.3345  0.2990
 2530W        W18791  17.620  17.428   5.670 -0.4283 -0.0469 -0.0804
 2531W        W18792   9.733  12.516  12.978  0.0115  0.0390  0.1467
 2532W        W18793  14.970   8.663   5.597 -0.1509 -0.2083 -0.0752
 2533W        W18794   4.503   1.658  12.733 -0.0188  0.2890  0.0403
 2534W        W18795   1.539  11.849  14.224 -0.1778  0.1769  0.2025
 2535W        W18796   7.292   8.854   0.126 -0.1041 -0.3487  0.2078
 2536W        W18797   5.741  14.266  14.421  0.3991 -0.1600 -0.0060
 2537W        W18798   3.642   3.533   4.956  0.2785  0.1375  0.1190
 2538W        W18799  11.813   0.689  13.988 -0.3531  0.0057  0.0827
 2539W        W18800   6.631   7.313   3.467  0.2239 -0.1969  0.3558
 2540W        W18801  10.853   0.572  11.521 -0.0981 -0.2124 -0.0431
 2541W        W18802  12.747   7.954   6.298  0.1933 -0.0084 -0.0682
 2542W        W18803   5.158  16.913  13.860  0.0101  0.1432  0.0639
 2543W        W18804   8.709  17.295  14.334 -0.0975  0.1843  0.1874
 2544W        W18805  10.166  14.581   0.002 -0.0089 -0.2057 -0.2116
 2545W        W18806  17.488  12.215   0.844  0.0921  0.2426 -0.0189
 2546W        W18807  11.266   9.633   0.902 -0.0404 -0.1119 -0.4395
 2547W        W18808   0.466   4.963   0.844  0.2469 -0.1413 -0.1230
 2548W        W18809  11.074  14.190   0.239 -0.2199  0.3265 -0.1461
 2549W        W18810  16.474   4.640  14.062  0.0277  0.1864 -0.1505
 2550W        W18811  15.947  16.252  16.351  0.0769  0.1486 -0.0954
 2551W        W18812   0.393   0.926   2.442  0.0381 -0.2161  0.1497
 2552W        W18813  17.632  10.787  13.100  0.3327 -0.0989 -0.2827
 2553W        W18814  13.621  15.815   3.525  0.1367  0.3082 -0.1110
 2554W        W18815   4.965  12.825   4.449 -0.2109  0.1431  0.0511
 2555W        W18816   4.034   9.513  14.100  0.1016 -0.0650 -0.1624
 2556W        W18817  14.680  12.107  16.791  0.1615 -0.1216  0.1295
 2557W        W18818   5.757   1.411   3.635  0.4671  0.1905  0.1276
 2558W        W18819  16.158  12.990   4.001 -0.0731 -0.0800 -0.0313
 2559W        W18820   1.451  12.616  16.972 -0.2513 -0.1001 -0.0414
 2560W        W18821  17.661   2.988   3.971  0.0500  0.0749  0.3421
 2561W        W18822   9.244   2.034  14.884 -0.2133 -0.1428  0.5366
 2562W        W18823  13.775   0.036  13.803 -0.1978 -0.3319  0.0887
 2563W        W18824  10.190  16.662  14.689 -0.0600 -0.1817 -0.1942
 2564W        W18825   8.663  13.857  11.635  0.0630  0.0272  0.3575
 2565W        W18826   3.790  15.155   1.742  0.0626  0.0733  0.0966
 2566W        W18827   5.508   0.231  16.655 -0.0807 -0.2847 -0.0454
 2567W        W18828  15.109  11.325  13.813 -0.0704 -0.0191 -0.0877
 2568W        W18829   8.410  15.862  15.431 -0.0890 -0.1688 -0.0393
 2569W        W18830  11.848  12.916  15.954  0.0420 -0.0484 -0.0170
 2570W        W18831   2.813  15.825   4.838  0.0041  0.1242 -0.0727
 2571W        W18832   4.125   0.151   0.066  0.0212 -0.2709 -0.0514
 2572W        W18833   1.190  16.944   1.226  0.1950 -0.0999  0.1289
 2573W        W18834  11.742  11.429  15.279 -0.2080  0.1123 -0.0576
 2574W        W18835  15.380  17.450  12.760  0.2553 -0.0219  0.2318
 2575W        W18836   9.278  15.365  12.622  0.0724  0.0198  0.3058
 2576W        W18837   3.940  14.781   3.519 -0.2297 -0.2281  0.0032
 2577W        W18838  15.132   3.424   4.489  0.0926 -0.1558  0.0625
 2578W        W18839   6.117   1.030   3.459 -0.0790  0.1624  0.0453
 2579W        W18840   7.995  14.851  13.767  0.1212  0.1925  0.2603
 2580W        W18841   4.688   5.396   4.959 -0.3474  0.0708 -0.1770
 2581W        W18842   0.697  12.250  12.418 -0.2736 -0.0733 -0.1346
 2582W        W18843  10.584   7.571   2.238  0.1812 -0.1445 -0.1936
 2583W        W18844   4.460  12.099   4.064 -0.2085 -0.1157  0.2107
 2584W        W18845   0.387   6.356   5.017 -0.1905  0.1967 -0.3522
 2585W        W18846  11.987   6.188   2.250 -0.1081 -0.2163 -0.2690
 2586W        W18847  11.555   7.797   2.262 -0.0045  0.1275 -0.2420
 2587W        W18848   1.507   4.419   6.029 -0.0484 -0.1238 -0.2710
 2588W        W18849   4.215   9.908   0.749  0.2243 -0.1986 -0.0693
 2589W        W18850  14.530  10.210   1.063  0.2933 -0.0251 -0.2353
 2590W        W18851  11.831   2.922  13.936  0.1953 -0.0219  0.3087
 2591W        W18852  13.440   6.281  14.737 -0.0565 -0.0545 -0.3625
 2592W        W18853  13.835  14.791  12.624 -0.1931  0.1587  0.0630
 2593W        W18854  17.537  15.256   2.875 -0.2394 -0.0308 -0.2411
 2594W        W18855   5.615   6.858   1.878  0.3779 -0.2693 -0.0435
 2595W        W18856   7.738  13.884   1.725  0.2897  0.1093 -0.1813
 2596W        W18857  11.358  12.055   2.592 -0.0335 -0.0824  0.1950
 2597W        W18858   2.736  10.744   0.009  0.0262  0.3035  0.0009
 2598W        W18859  10.019   0.856   0.419 -0.0206 -0.1155 -0.1439
 2599W        W18860  13.546  13.659   4.450  0.1152 -0.0342  0.0898
 2600W        W18861  12.082  13.626   4.318 -0.0051  0.2787 -0.0327
 2601W        W18862   8.978  16.376  14.330  0.0948 -0.0387 -0.0848
 2602W        W18863   0.919   6.097   3.001 -0.1597  0.2985  0.0702
 2603W        W18864  14.496  11.356  11.615 -0.0574 -0.1835 -0.0039
 2604W        W18865  10.339  11.675   4.741 -0.1136  0.0677  0.0240
 2605W        W18866  11.829   9.721   5.830  0.1537 -0.2805 -0.0328
 2606W        W18867  16.266   4.005  15.477  0.1645  0.0240  0.1751
 2607W        W18868   8.787  11.580  15.807  0.1700 -0.1116  0.0359
 2608W        W18869  13.315  10.727   4.006  0.2755 -0.2756 -0.0564
 2609W        W18870  13.270  15.519   6.396 -0.1852 -0.1242  0.1677
 2610W        W18871   2.084  12.399  15.490  0.0409 -0.0333 -0.0179
 2611W        W18872  10.718   3.953  14.160  0.0247  0.3833 -0.0740
 2612W        W18873   6.202   7.654   5.105 -0.2951  0.1426 -0.1247
 2613W        W18874  15.644   9.635   5.747 -0.0338 -0.1941  0.0667
 2614W        W18875  14.477  13.643   1.270  0.1048  0.3262 -0.3678
 2615W        W18876   9.835  17.498   1.801  0.0123  0.1182 -0.2744
 2616W        W18877   3.680  16.322  12.814  0.0965 -0.0519  0.0264
 2617W        W18878   3.263  14.900   2.339  0.1021  0.4592 -0.1231
 2618W        W18879   9.927  17.544   0.277  0.1696 -0.0775  0.2095
 2619W        W18880   7.418   1.391   3.554  0.0891  0.1786  0.0276
 2620W        W18881  10.294   1.237   3.613  0.3916  0.0454  0.0489
 2621W        W18882  16.072  16.398   0.796 -0.0500 -0.3334 -0.1873
 2622W        W18883   8.354   0.761  13.060 -0.1812  0.0971  0.1859
 2623W        W18884  10.276  15.165   1.639  0.1435  0.3503 -0.1048
 2624W        W18885   9.405   9.703   5.011  0.0548 -0.3624  0.0529
 2625W        W18886  15.418   3.748  13.674 -0.2656  0.2019 -0.1933
 2626W        W18887   6.573   8.503   6.123  0.0461  0.0296  0.2561
 2627W        W18888   7.706   1.684  11.612  0.0027 -0.1572  0.0719
 2628W        W18889   1.461  14.089   4.430 -0.0154  0.0562 -0.0793
 2629W        W18890   9.364  11.270   0.831 -0.1063 -0.0902 -0.0995
 2630W        W18891   7.650   4.388  13.914 -0.1172 -0.0230 -0.0000
 2631W        W18892   6.824  16.403  15.051  0.1084 -0.0931  0.0904
 2632W        W18893   8.992  11.360  14.096 -0.0830 -0.2922 -0.2183
 2633W        W18894   0.944  13.957  13.317  0.2385  0.1024  0.1746
 2634W        W18895  13.880  12.220  14.727  0.0534 -0.3940  0.0098
 2635W        W18896   5.092  15.737   3.393  0.2451  0.0947 -0.2927
 2636W        W18897  16.396   1.020   3.954  0.1538 -0.0178  0.0653
 2637W        W18898   1.659  16.370  15.595  0.0407  0.0890 -0.0089
 2638W        W18899  16.858  12.832   4.765 -0.1120 -0.0733  0.0670
 2639W        W18900   8.720  16.513  15.163 -0.2602 -0.1402  0.1560
 2640W        W18901   1.394   8.023   5.264  0.0571 -0.1571  0.2225
 2641W        W18902  10.442   0.168   3.801 -0.0587  0.1588  0.1483
 2642W        W18903  10.913   2.611   6.404 -0.0510  0.1715  0.1807
 2643W        W18904   6.407   2.944  11.078  0.0689 -0.0942  0.0181
 2644W        W18905   6.819  15.912   2.488  0.0252  0.1255  0.1632
 2645W        W18906  15.170  10.916   0.736  0.1183 -0.0861  0.0517
 2646W        W18907   9.498  13.442  11.566  0.2968  0.0069  0.1151
 2647W        W18908  14.447   8.489  15.830 -0.0942  0.2485 -0.0940
 2648W        W18909   4.898   3.104   3.984  0.0113 -0.0267  0.1270
 2649W        W18910   3.274   0.107   5.455  0.1271  0.2928  0.1439
 2650W        W18911   2.770   3.569   1.394 -0.0037 -0.3760 -0.3631
 2651W        W18912   1.828  10.020   2.481 -0.0120 -0.3010  0.1501
 2652W        W18913   5.423   7.537   0.702 -0.0527 -0.1332 -0.0199
 2653W        W18914   7.250   1.913   0.439  0.2368 -0.0757  0.1082
 2654W        W18915   1.881   2.744   1.372 -0.0815 -0.1417 -0.3135
 2655W        W18916   4.964  12.339   0.593  0.3857 -0.2810 -0.1515
 2656W        W18917   4.965  12.367  15.916  0.0917 -0.0729 -0.3774
 2657W        W18918  10.658   1.376   5.859 -0.3276  0.2261  0.1369
 2658W        W18919  14.685  16.667  12.023  0.1138 -0.0117  0.0885
 2659W        W18920  17.270  13.271  15.361 -0.0287 -0.0298  0.2187
 2660W        W18921   6.648  12.507  16.433 -0.0318  0.1093 -0.1046
 2661W        W18922   1.549   8.347   1.241 -0.0189  0.0796 -0.2642
 2662W        W18923  12.832   0.463  16.529 -0.1309 -0.0130  0.0280
 2663W        W18924   0.071  11.678   5.159 -0.0013 -0.0360  0.5016
 2664W        W18925  13.920  13.972   6.536  0.1160  0.0121  0.1263
 2665W        W18926   6.457   2.063  11.599 -0.0761  0.1653  0.0802
 2666W        W18927  11.606   6.126   2.661 -0.0875 -0.0624  0.0127
 2667W        W18928   4.810   2.921   1.486  0.0455  0.2521 -0.0377
 2668W        W18929   2.343  17.814   2.468  0.2068 -0.0139  0.1321
 2669W        W18930   7.370  11.655   0.700 -0.1292 -0.2503 -0.0587
 2670W        W18931   1.658  14.878  14.385 -0.2172  0.1467  0.2003
 2671W        W18932   7.253   1.597  16.060  0.2678 -0.0307  0.1238
 2672W        W18933  16.167  17.435   5.127  0.1061 -0.1435 -0.1395
 2673W        W18934   7.015  11.089  13.634 -0.3071  0.3168  0.1749
 2674W        W18935  14.475   9.198   5.334  0.0254  0.0400  0.0628
 2675W        W18936  13.259   6.893  12.718 -0.1246  0.2146  0.1578
 2676W        W18937   8.458   9.252   0.833  0.0579 -0.1338  0.0272
 2677W        W18938   2.110   3.422  16.870 -0.0255  0.1351  0.3502
 2678W        W18939   1.374  11.943   2.379  0.2354  0.1124 -0.4650
 2679W        W18940   1.090   3.387  12.067  0.1825  0.0360  0.1714
 2680W        W18941  12.373  15.211   5.227 -0.1783 -0.4062  0.0431
 2681W        W18942   0.573   1.157   3.755  0.3071  0.1028  0.0431
 2682W        W18943  10.026  13.848  15.414 -0.0460 -0.1778 -0.0809
 2683W        W18944   7.900  10.793   2.806  0.1433 -0.2170  0.0119
 2684W        W18945   7.722   8.786   2.989 -0.2054  0.0464 -0.0588
 2685W        W18946   1.132   7.153  14.337 -0.2527  0.0228 -0.0362
 2686W        W18947   0.774  17.282  12.738 -0.2729 -0.0652 -0.0410
 2687W        W18948   6.922   2.823  14.831 -0.3449  0.1653 -0.1852
 2688W        W18949  17.180  16.629  14.038  0.0324 -0.0341  0.3326
 2689W        W18950   2.719   5.869  11.943  0.1087 -0.1641  0.1237
 2690W        W18951  16.425  11.587   3.773  0.2271  0.0309  0.1606
 2691W        W18952   8.203  17.204  15.121 -0.2726 -0.0756  0.0470
 2692W        W18953   5.682   2.473   3.820  0.2010 -0.2577 -0.1317
 2693W        W18954  13.192  12.151   2.989 -0.1301 -0.0572 -0.0085
 2694W        W18955   5.150  12.450   1.115  0.0366 -0.0103  0.0848
 2695W        W18956   1.702  15.430  11.392  0.2095 -0.2804  0.2859
 2696W        W18957  13.468   1.559  15.815 -0.1719 -0.2010  0.1093
 2697W        W18958   9.479  10.696  16.759 -0.1500  0.2532 -0.0296
 2698W        W18959   6.876   2.711   2.929 -0.4926 -0.0264  0.0657
 2699W        W18960  16.333  16.222  14.878  0.0079 -0.2259  0.1175
 2700W        W18961  16.606   4.863   1.071  0.0308 -0.0448  0.4080
 2701W        W18962   4.061   7.064   0.072  0.2993 -0.1401 -0.2610
 2702W        W18963   3.709   3.978   0.370 -0.1830 -0.1738 -0.0608
 2703W        W18964  14.721   6.630  11.844  0.2034  0.0680 -0.2593
 2704W        W18965   5.011   3.972   3.445 -0.2167  0.0634 -0.0064
 2705W        W18966  11.046  10.771  13.950 -0.2412  0.2353 -0.1951
 2706W        W18967  10.112  14.071   1.803  0.3352  0.0659  0.1731
 2707W        W18968  12.189   6.794   4.326  0.0603  0.1369 -0.1276
 2708W        W18969   9.590  13.528  14.186  0.1193  0.0038  0.2422
 2709W        W18970  17.818   5.979   4.865 -0.1677 -0.2088 -0.3399
 2710W        W18971   9.620  13.561  16.167  0.3705  0.0269 -0.3542
 2711W        W18972  11.937   1.872  15.046  0.3706 -0.0484 -0.2831
 2712W        W18973   2.468   1.888  16.202 -0.1193 -0.1914 -0.1041
 2713W        W18974   5.674  11.321  14.831 -0.1335 -0.1293 -0.1091
 2714W        W18975  11.388  12.983  12.783 -0.3193 -0.0187  0.1127
 2715W        W18976  15.150   0.300   3.700 -0.2520 -0.4483 -0.2496
 2716W        W18977   3.466  14.836  14.223  0.1144 -0.1651  0.1375
 2717W        W18978  15.736  12.892   3.746 -0.2076  0.0346  0.1822
 2718W        W18979   9.181  12.588   1.301  0.3395  0.1010  0.1518
 2719W        W18980   0.441   5.481  15.898  0.4344 -0.1651 -0.4971
 2720W        W18981  17.352   8.980  12.214  0.1591 -0.1206  0.0946
 2721W        W18982   3.642  10.696  13.990 -0.2021 -0.0073  0.0462
 2722W        W18983  10.395   8.069  11.952  0.1429 -0.0894  0.0827
 2723W        W18984   8.355  11.727  16.662 -0.2246 -0.0438 -0.2427
 2724W        W18985  13.671   2.187   2.891 -0.0965 -0.1221  0.0840
 2725W        W18986  13.339   8.251   2.839  0.0248 -0.3108 -0.0258
 2726W        W18987   6.100   2.300  16.273 -0.1811 -0.3697  0.1244
 2727W        W18988   8.535   0.780   3.597 -0.1580 -0.0062 -0.0445
 2728W        W18989  13.230  10.747  16.778 -0.1701 -0.3697 -0.0186
 2729W        W18990   9.739   4.712  14.616  0.0947 -0.1561  0.2963
 2730W        W18991   2.207   1.397   0.190 -0.0582 -0.1006  0.0109
 2731W        W18992  15.530  12.949  14.632 -0.0846  0.1919 -0.3362
 2732W        W18993   8.668   5.789   0.953  0.1476 -0.1513 -0.0533
 2733W        W18994   0.739   9.934   3.168  0.0707  0.1593  0.1919
 2734W        W18995  13.453   5.992   4.297  0.0570  0.0017  0.2964
 2735W        W18996   4.846   9.317   5.304 -0.1285 -0.2018  0.1564
 2736W        W18997  17.292   9.851   3.555 -0.1001  0.1593  0.0151
 2737W        W18998  12.227   8.047  16.853 -0.1490 -0.0535  0.0046
 2738W        W18999   8.604   9.074   5.416 -0.0949 -0.0740 -0.0281
 2739W        W19000   1.433  10.966  12.692 -0.0582 -0.0053 -0.0206
 2740W        W19001   5.011   6.599   5.801 -0.0632  0.0662  0.1627
 2741W        W19002  11.925   9.398  16.080 -0.0330  0.1464  0.1208
 2742W        W19003  13.463   9.297   3.029 -0.2365 -0.0120 -0.2556
 2743W        W19004   2.015  17.441   1.095  0.1159 -0.2798 -0.0699
 2744W        W19005  14.826   1.182  13.628  0.0147 -0.0920  0.1185
 2745W        W19006   3.842  14.538  14.028 -0.1000 -0.0603 -0.0162
 2746W        W19007  11.189   1.596  11.660 -0.2387  0.2012  0.2402
 2747W        W19008   8.183   9.966   3.999  0.0994  0.2332  0.0293
 2748W        W19009   9.562   9.521   2.705  0.0639 -0.2133  0.0303
 2749W        W19010   3.717   3.968  14.720 -0.0630 -0.2111 -0.1970
 2750W        W19011  12.645  12.625  10.760  0.1840  0.0554 -0.1901
 2751W        W19012  11.461  11.357  12.928  0.1536  0.0827 -0.0013
 2752W        W19013  11.965   9.412   2.464 -0.0706  0.0963  0.0167
 2753W        W19014  15.651   8.792   4.424 -0.2497  0.1443  0.0146
 2754W        W19015   2.218   9.864  15.857  0.2549  0.1879  0.1887
 2755W        W19016  10.036  10.291  12.947  0.0955  0.4045 -0.0111
 2756W        W19017   3.953  17.511  13.693 -0.1115  0.0986  0.2338
 2757W        W19018   5.775   3.260   4.466  0.1687  0.1440  0.2313
 2758W        W19019   6.062  10.884   4.872 -0.0550 -0.2774 -0.2113
 2759W        W19020   9.303  17.460   5.686  0.0803 -0.3007  0.0666
 2760W        W19021  15.459  17.460  14.795 -0.1189 -0.0837 -0.2720
 2761W        W19022   3.791   5.534   3.065 -0.0827  0.1206  0.1369
 2762W        W19023   0.272   8.295  13.524 -0.0823  0.1357  0.0685
 2763W        W19024   0.469   8.486  16.547  0.0285 -0.2762  0.1151
 2764W        W19025   2.768   7.361  12.610 -0.0061 -0.3593  0.2601
 2765W        W19026  13.324  10.421  15.623  0.1081  0.0861  0.0076
 2766W        W19027  13.611  10.186   4.623 -0.1143 -0.0014 -0.1398
 2767W        W19028  10.086  10.864   1.850  0.0082  0.0720  0.0108
 2768W        W19029  14.676   0.866  13.239  0.2493 -0.2238 -0.2163
 2769W        W19030   4.535   5.049  16.248  0.1073  0.1897 -0.0056
 2770W        W19031   0.295  14.970   3.574  0.0852  0.1361 -0.2920
 2771W        W19032  11.690   8.005   4.512  0.2201 -0.0465  0.2250
 2772W        W19033   2.410   3.802   2.839 -0.2397 -0.1752  0.4505
 2773W        W19034  10.246   6.355   3.988 -0.1623  0.0367  0.2060
 2774W        W19035   5.802   9.822   4.049  0.0902 -0.5921 -0.1416
 2775W        W19036   4.441   7.662   5.081 -0.0298  0.1444  0.0362
 2776W        W19037   5.408   6.987   0.849 -0.1344 -0.0438 -0.3294
 2777W        W19038  11.705  15.247   5.393 -0.0569  0.1354  0.2125
 2778W        W19039   8.038   6.372  14.360  0.0246  0.3662 -0.0091
 2779W        W19040   0.445  13.001   4.938  0.1920 -0.1360  0.1385
 2780W        W19041  12.578  12.786   4.930 -0.2380  0.2363  0.2519
 2781W        W19042  17.831   4.914   5.127 -0.0448  0.1665  0.1807
 2782W        W19043   9.730   6.715   3.694  0.1762 -0.1018  0.1093
 2783W        W19044   5.276   1.460   3.925 -0.3183  0.1141  0.3261
 2784W        W19045  16.025   4.345   3.437 -0.0896  0.2207 -0.0195
 2785W        W19046  13.982  17.027  15.912  0.1402  0.1489  0.0346
 2786W        W19047   4.829   0.153  16.457 -0.0330  0.1570  0.0050
 2787W        W19048   3.187  12.658   0.730 -0.2546  0.3108  0.0735
 2788W        W19049   1.883   6.703   0.607 -0.1124 -0.0989  0.0118
 2789W        W19050   4.772   0.282   3.263 -0.4156 -0.1833 -0.0537
 2790W        W19051   3.331   5.137   3.548  0.0554  0.1760 -0.1210
 2791W        W19052   5.659   3.766  12.762 -0.1979 -0.0214 -0.0057
 2792W        W19053  13.575   6.267   5.217  0.1165 -0.2108 -0.0920
 2793W        W19054   8.267  16.927  12.921  0.1503 -0.0722  0.0519
 2794W        W19055   8.463   0.020  12.708 -0.2477  0.1211  0.0068
 2795W        W19056   3.430   8.986  14.508  0.0391  0.1349 -0.1486
 2796W        W19057  16.142   2.293  12.343  0.0551  0.0990  0.0757
 2797W        W19058  11.228   0.226  16.947  0.0841  0.0313 -0.0579
 2798W        W19059  13.483   2.234  11.258 -0.2056  0.2749 -0.0172
 2799W        W19060   0.055  16.773   0.317 -0.0324 -0.1909  0.1580
 2800W        W19061  15.541   6.449   1.476  0.1426  0.1506 -0.0096
 2801W        W19062  15.835   8.255   4.388 -0.1673  0.2283  0.0639
 2802W        W19063   8.870   9.419   1.564  0.0956  0.0046  0.0763
 2803W        W19064   4.993  15.725   4.798  0.2426  0.1113  0.1391
 2804W        W19065  10.349  17.157   4.023 -0.0300 -0.1995 -0.1762
 2805W        W19066  14.246   1.771  13.490  0.1440  0.0011  0.0537
 2806W        W19067   7.072   4.734   2.279 -0.1822 -0.0952 -0.3560
 2807W        W19068   6.469   0.496  13.605  0.0482 -0.2452  0.2547
 2808W        W19069  11.551  11.946  13.751  0.2943  0.2516 -0.2456
 2809W        W19070  17.405   1.120  13.825 -0.0624  0.3466 -0.1410
 2810W        W19071   1.684   3.846  16.057 -0.1454 -0.1133 -0.0786
 2811W        W19072   6.722   7.337  12.771 -0.1361  0.1240  0.1476
 2812W        W19073   7.130   7.208   3.562  0.3044  0.2930  0.1508
 2813W        W19074  10.791  10.688   5.013 -0.0984  0.0359 -0.0633
 2814W        W19075  11.670  14.126   2.029  0.1236 -0.1723 -0.0773
 2815W        W19076   9.725   6.385  14.390  0.2688 -0.0312  0.0996
 2816W        W19077   2.297   7.520   4.405 -0.1077 -0.1950 -0.0270
 2817W        W19078   7.581   7.177  12.485  0.1688 -0.0134  0.2599
 2818W        W19079  11.351   8.475  16.555 -0.1010  0.2504 -0.0312
 2819W        W19080  14.501  11.353   1.857 -0.0914 -0.0950  0.0764
 2820W        W19081  15.242  11.211   4.290 -0.0106  0.0546  0.0888
 2821W        W19082  13.489   4.522  15.100 -0.0131  0.1452 -0.0143
 2822W        W19083   3.698  14.978   5.471  0.0969 -0.3153 -0.1036
 2823W        W19084   1.669  14.120  16.108  0.3117 -0.0328  0.1353
 2824W        W19085  12.993   5.568   0.595 -0.1817 -0.2263  0.1290
 2825W        W19086  12.813   6.896   4.087 -0.1624 -0.2280 -0.3947
 2826W        W19087   5.605   3.469  16.622  0.0457  0.0020  0.2649
 2827W        W19088   6.794   4.544  12.323  0.0285  0.1788  0.4625
 2828W        W19089   4.070   5.948   1.098 -0.0550 -0.0090  0.2014
 2829W        W19090   5.877  17.536   3.873 -0.0084 -0.0117  0.0247
 2830W        W19091   7.345   9.613   5.737 -0.0502 -0.4450 -0.2216
 2831W        W19092   6.051  11.232  15.176  0.1219 -0.0081  0.2628
 2832W        W19093  11.417  12.399   2.218 -0.1356 -0.1942 -0.2178
 2833W        W19094   9.413  15.418  13.463  0.1103  0.1044 -0.2398
 2834W        W19095  11.615   1.325  16.794  0.0175  0.2793  0.0984
 2835W        W19096  11.987   1.391  15.184 -0.1963  0.1436 -0.0800
 2836W        W19097   9.327   5.181  11.905 -0.0545 -0.1300  0.2073
 2837W        W19098  11.779  15.277  15.480 -0.0189  0.0603  0.1963
 2838W        W19099  16.899  10.777  16.195  0.0265 -0.0451 -0.0619
 2839W        W19100  17.344  17.444  16.192  0.4779  0.1295 -0.4429
 2840W        W19101  15.514   7.368   5.654 -0.0240  0.1751  0.0157
 2841W        W19102   9.348   1.826   3.388  0.0128 -0.4455 -0.1974
 2842W        W19103   0.155   7.054   1.975 -0.0683  0.1215  0.0685
 2843W        W19104  11.546  14.122   2.763 -0.1883 -0.1363 -0.0676
 2844W        W19105   5.198   5.384   6.087  0.1271 -0.0179  0.1860
 2845W        W19106   2.931  13.335   1.570  0.1039 -0.2015 -0.1845
 2846W        W19107   4.278   0.588   5.049 -0.1205 -0.1284  0.6359
 2847W        W19108   9.059  11.749  14.479  0.2050 -0.0744  0.0592
 2848W        W19109   0.583  13.786   0.502  0.0758 -0.1433  0.1935
 2849W        W19110  13.623  13.785   6.063 -0.0411  0.0928  0.0617
 2850W        W19111   1.907  14.502  11.756 -0.1092  0.3000 -0.0718
 2851W        W19112  12.852  10.015  12.989  0.3103 -0.1247 -0.1101
 2852W        W19113   3.428   8.790  13.067  0.1031  0.0770  0.2394
 2853W        W19114   0.160  14.866   4.174  0.1963  0.1396  0.1195
 2854W        W19115   6.368   1.514   0.097  0.3745 -0.0112  0.2125
 2855W        W19116   8.490   4.604  14.059  0.0176 -0.1912  0.1160
 2856W        W19117   4.625  16.054  13.859 -0.1121 -0.0725 -0.1225
 2857W        W19118  10.633   8.459   1.608  0.1550  0.2552 -0.0301
 2858W        W19119   7.820   3.567   2.674  0.0698 -0.0980  0.1138
 2859W        W19120   9.821   6.713  12.513 -0.0567  0.2981  0.0616
 2860W        W19121   5.365  11.477  16.367  0.4746 -0.1425 -0.2399
 2861W        W19122   6.512  16.298   4.903  0.0639 -0.1526  0.1961
 2862W        W19123  14.839   7.190  13.894  0.2180 -0.0355 -0.0494
 2863W        W19124  10.926  16.347   6.411  0.0633 -0.4139  0.0136
 2864W        W19125   1.441  17.783  12.918 -0.2067 -0.2630  0.1234
 2865W        W19126   1.271   7.326   4.446 -0.2703  0.2500  0.0609
 2866W        W19127  17.717   3.074   6.670 -0.2661 -0.0006 -0.3744
 2867W        W19128   6.909   0.209   1.706  0.0059  0.1570  0.1447
 2868W        W19129  15.718   9.867  16.330 -0.4974  0.1460  0.1777
 2869W        W19130  11.438   2.709   0.194 -0.1152  0.0889  0.2152
 2870W        W19131   4.412   5.051   4.621 -0.0966 -0.0513  0.2107
 2871W        W19132   8.157   6.855   0.309  0.1059 -0.4027 -0.3589
 2872W        W19133   6.395   5.574   0.827 -0.2603  0.0347  0.1094
 2873W        W19134  10.802  11.045  15.686  0.0398  0.0748 -0.0777
 2874W        W19135   5.024  16.920   0.517  0.0291 -0.1628  0.0411
 2875W        W19136   4.945  13.021  12.055 -0.1072 -0.0520  0.3634
 2876W        W19137   7.356  16.332  13.097 -0.1935  0.1175 -0.0123
 2877W        W19138   3.472   0.324  13.879 -0.1179  0.1600  0.0571
 2878W        W19139   0.717  11.236  16.823 -0.4409  0.1709  0.0427
 2879W        W19140   6.923  11.607  13.603 -0.0908 -0.0430 -0.1828
 2880W        W19141  10.903  14.916  14.554  0.0300  0.1781 -0.0693
 2881W        W19142  12.166   8.774   4.166 -0.0019 -0.1334 -0.0440
 2882W        W19143  14.184  10.785  15.725  0.0908  0.0361 -0.1848
 2883W        W19144  16.334   7.976   2.090  0.0630  0.0292  0.0522
 2884W        W19145   5.955  16.374   2.229 -0.0108  0.0793  0.0998
 2885W        W19146   3.110  10.856  15.441 -0.0713 -0.0012 -0.1525
 2886W        W19147  10.703   2.585  13.348 -0.1857 -0.0667  0.2857
 2887W        W19148   5.525  13.685   6.161 -0.2260 -0.2459  0.1017
 2888W        W19149   7.790  12.337   0.434  0.1303  0.0617  0.0867
 2889W        W19150  11.799   0.780   3.234 -0.0408 -0.0741 -0.3003
 2890W        W19151  16.472   9.039  11.736 -0.1230 -0.1959  0.1287
 2891W        W19152   2.419  11.357   1.571 -0.0804 -0.2159 -0.2007
 2892W        W19153  11.516  10.054   4.308 -0.1504  0.0075 -0.0245
 2893W        W19154  17.530   1.587   1.814  0.1104 -0.0586 -0.2961
 2894W        W19155   5.638   6.107   3.166 -0.1907 -0.1688  0.1062
 2895W        W19156  13.905   9.280  15.960  0.0099 -0.0971 -0.0647
 2896W        W19157   4.560   9.582  16.027 -0.0364 -0.2941 -0.3119
 2897W        W19158  16.755  16.410   3.493 -0.1243 -0.1752 -0.0223
 2898W        W19159  17.213  15.930   5.644 -0.1528  0.2539 -0.0294
 2899W        W19160   8.039   1.921  15.001 -0.0948 -0.3135 -0.0253
 2900W        W19161   5.424  12.070  12.731 -0.0397  0.1593 -0.0839
 2901W        W19162  13.356  17.067  16.730 -0.2284  0.2603 -0.2098
 2902W        W19163   8.234   3.540   4.713  0.4111 -0.0545  0.0528
 2903W        W19164  10.548   5.060   0.073  0.0396  0.0532  0.1173
 2904W        W19165  15.869  10.079  15.271 -0.1087  0.0279  0.0974
 2905W        W19166   0.597  16.017  14.668  0.0775 -0.1245  0.1865
 2906W        W19167   3.100   9.027  12.849  0.3484 -0.2749 -0.0565
 2907W        W19168  12.169   4.033   4.814  0.0299 -0.0535  0.2265
 2908W        W19169   0.118   6.502   1.178 -0.1417  0.0255 -0.1256
 2909W        W19170   6.264   1.604   1.685  0.0893 -0.0421  0.1194
 2910W        W19171   7.453  16.780   0.666 -0.1999 -0.1075  0.0919
 2911W        W19172  16.080   8.377  16.717  0.4387 -0.0791 -0.2166
 2912W        W19173   6.115   5.833   4.516 -0.3714 -0.0624  0.1805
 2913W        W19174  17.690  14.400  12.790 -0.0594 -0.0603 -0.1350
 2914W        W19175  17.069  11.391   5.590  0.3536 -0.0881  0.2082
 2915W        W19176  12.658   3.772   5.573  0.0455 -0.0963  0.0625
 2916W        W19177  15.239  12.783  12.887  0.1472 -0.2413  0.1618
 2917W        W19178  16.496  17.788   4.918  0.3087 -0.0554 -0.0610
 2918W        W19179   0.515   9.426   5.610 -0.0609  0.0796 -0.2417
 2919W        W19180   7.091   7.611   0.264  0.2066 -0.2306  0.1824
 2920W        W19181  11.759   3.542   2.250  0.2220 -0.2703 -0.0291
 2921W        W19182   2.394   4.212  14.143  0.0699  0.1839  0.0643
 2922W        W19183  13.289   6.924   5.396 -0.0628 -0.1609  0.0514
 2923W        W19184   5.427  13.809   3.399  0.0206 -0.1371 -0.1013
 2924W        W19185   1.082   2.495   4.191 -0.1549 -0.3692  0.2580
 2925W        W19186  17.108  13.657  15.080 -0.0107 -0.1790  0.0197
 2926W        W19187  10.047  16.184  12.721 -0.0873  0.0983  0.0287
 2927W        W19188  15.095   9.664   3.684 -0.0426  0.0989 -0.0813
 2928W        W19189   7.624   8.734   5.373  0.0809  0.2038  0.0318
 2929W        W19190   6.801  11.855   4.658 -0.1921  0.0796 -0.1391
 2930W        W19191  16.386   2.261  14.456 -0.1876  0.1811  0.2916
 2931W        W19192  16.441  14.665   0.953 -0.1815 -0.1351  0.0435
 2932W        W19193  12.169  15.709  12.130 -0.2583 -0.3778 -0.1523
 2933W        W19194  14.333  13.130   1.260  0.0653 -0.1961  0.0141
 2934W        W19195   2.193   5.141  12.849  0.2910 -0.0874  0.3712
 2935W        W19196   2.929   7.215   4.084  0.3235 -0.2518 -0.2873
 2936W        W19197  12.433  17.688   3.319 -0.0224 -0.0037  0.1564
 2937W        W19198  13.799   8.140   5.448 -0.2469  0.0969 -0.3830
 2938W        W19199   5.691   2.261  13.883  0.1402  0.0879 -0.1191
 2939W        W19200   6.979  10.368  15.699  0.1337 -0.2749 -0.1606
 2940W        W19201   0.101   6.591   5.502 -0.0790 -0.4049  0.1938
 2941W        W19202   8.659  13.944  15.897 -0.2346  0.0733  0.0370
 2942W        W19203   0.905  16.378  14.939  0.1275 -0.0962  0.3725
 2943W        W19204   4.063   9.229  16.112 -0.1123  0.1273  0.0093
 2944W        W19205   9.360  17.568   2.459 -0.3358  0.1404  0.0608
 2945W        W19206   2.212  14.439  15.528 -0.1970  0.3944  0.2516
 2946W        W19207   2.911  14.196   3.430  0.1032  0.0226 -0.2455
 2947W        W19208   7.210  12.995  15.687 -0.3082 -0.0579  0.0524
 2948W        W19209  11.647  17.804  15.925  0.1081  0.1270 -0.0945
 2949W        W19210   5.198   6.705   2.663  0.0790  0.2084 -0.1122
 2950W        W19211   8.092   3.933   4.476 -0.0917 -0.0079  0.3596
 2951W        W19212  12.150   5.902   3.325 -0.1544  0.3263  0.2919
 2952W        W19213   0.368   7.467  14.079 -0.0003 -0.2718 -0.0940
 2953W        W19214  16.444   2.009  15.316 -0.2557 -0.0504  0.0143
 2954W        W19215  11.673   1.073   0.937 -0.0868  0.1154 -0.1278
 2955W        W19216   6.965  16.381  14.130 -0.3112 -0.2086  0.0213
 2956W        W19217   8.823  14.266  14.288  0.1079 -0.0038  0.1156
 2957W        W19218  13.872  11.789   1.656  0.3561 -0.0063 -0.2312
 2958W        W19219  14.238  12.423  11.664  0.1098 -0.3508  0.2350
 2959W        W19220  14.247   4.681  13.918  0.0851  0.0210  0.0632
 2960W        W19221   5.451  16.490  16.373  0.0742  0.1428 -0.1448
 2961W        W19222  12.666   6.746  14.368 -0.0465 -0.4182  0.3773
 2962W        W19223   2.223  11.299  12.085  0.1375 -0.1954  0.0149
 2963W        W19224   3.463  15.397   5.248 -0.0485 -0.0573 -0.0568
 2964W        W19225  12.560   6.867   3.134  0.1635  0.1719 -0.0309
 2965W        W19226   4.086   9.518   0.470  0.0273  0.0243  0.1423
 2966W        W19227   2.540   5.110  16.236  0.1857  0.1386 -0.5220
 2967W        W19228  15.014  13.502  12.302  0.2847 -0.2182  0.7533
 2968W        W19229   7.162  10.508  11.714  0.1334 -0.0227  0.2450
 2969W        W19230  17.079  11.065   1.428  0.0808  0.0874 -0.3611
 2970W        W19231   7.773  13.413  14.277 -0.0283 -0.4459 -0.2607
 2971W        W19232  17.438   8.642   2.936  0.3323  0.1315 -0.0251
 2972W        W19233  15.504   8.294  11.764  0.1960  0.2894 -0.0686
 2973W        W19234   4.147   9.100  14.411 -0.0260  0.1071 -0.0323
 2974W        W19235   3.774   2.090  11.979 -0.0107 -0.0282  0.2840
 2975W        W19236   5.789  16.808  16.180 -0.2216 -0.2537  0.1728
 2976W        W19237  13.881   7.244   5.470  0.1366  0.0229 -0.2672
 2977W        W19238   4.478  16.415   0.676  0.1747  0.0851 -0.0091
 2978W        W19239   8.637   9.093  10.802 -0.3600  0.0395 -0.1152
 2979W        W19240  15.173   4.270  12.131  0.0060  0.0234  0.1120
 2980W        W19241   4.860  12.782  13.017 -0.1721 -0.0327  0.0926
 2981W        W19242  13.053  13.441   4.833 -0.0971 -0.2342 -0.0271
 2982W        W19243   1.602  12.418  16.533  0.2474  0.1205  0.2867
 2983W        W19244   7.454   3.797   2.323  0.2167  0.3963 -0.2833
 2984W        W19245   7.635   3.357  15.357  0.1926 -0.2421  0.2894
 2985W        W19246   1.488   2.577   1.082  0.0393 -0.0117 -0.0210
 2986W        W19247  11.781  16.550  11.935  0.1478 -0.0951  0.0910
 2987W        W19248  16.951   8.667  11.358 -0.1538 -0.1548  0.1532
 2988W        W19249  10.658   7.123   4.767  0.0195 -0.0642  0.1325
 2989W        W19250   3.966   7.448   4.138 -0.1469  0.1377  0.1437
 2990W        W19251   2.151   1.712   3.047 -0.2777  0.4814 -0.0690
 2991W        W19252   5.019  17.260  12.257  0.0325  0.0399 -0.1630
 2992W        W19253   2.008  14.609  16.176 -0.0841  0.1667  0.2658
 2993W        W19254   3.904   4.575   1.583  0.1898  0.1816  0.2142
 2994W        W19255  11.362  12.113  16.387 -0.0407 -0.2010 -0.0536
 2995W        W19256  10.179   5.142   2.891  0.1169 -0.2617 -0.1970
 2996W        W19257   8.446   2.672  15.398  0.1748  0.0203 -0.3556
 2997W        W19258   7.199   9.798  15.757  0.0152 -0.0593  0.0084
 2998W        W19259  16.825  15.774   3.921 -0.1423 -0.0083  0.0283
 2999W        W19260   6.230   6.638  11.883 -0.0296  0.2132 -0.0910
 3000W        W19261   1.089  15.360   3.907  0.0858 -0.4925  0.2649
 3001W        W19262   0.742   2.669  12.892  0.3514  0.1219  0.1039
 3002W        W19263  10.913   4.646   0.063 -0.3066  0.2690 -0.0560
 3003W        W19264  12.894  12.830   0.030  0.2128 -0.0121 -0.1665
 3004W        W19265  14.939   1.231   0.376 -0.2110  0.2587 -0.1126
 3005W        W19266  15.083   5.798   3.260 -0.0756 -0.2146  0.0784
 3006W        W19267   4.007   2.641   2.134  0.3071  0.0203 -0.0438
 3007W        W19268   8.331  14.934   3.097  0.2463  0.1674  0.1580
 3008W        W19269  11.376  11.542   3.271 -0.0012 -0.3249  0.1441
 3009W        W19270  14.260   9.631   1.922 -0.0421 -0.1379 -0.1979
 3010W        W19271  10.727  15.860  13.126 -0.1234  0.1895 -0.2135
 3011W        W19272   5.573  17.396   5.339  0.1919 -0.0703 -0.0196
 3012W        W19273  13.677  12.751  14.683 -0.1234  0.0329 -0.0068
 3013W        W19274  15.578  17.118   0.508 -0.0055  0.2109  0.1242
 3014W        W19275   6.307   4.565   0.030 -0.0502  0.0526 -0.0178
 3015W        W19276  16.726  11.964   1.681 -0.0309  0.0297  0.1396
 3016W        W19277  15.664   4.435   5.292 -0.0881 -0.0717  0.2074
 3017W        W19278   9.874  13.524  14.990  0.0266 -0.1273  0.0710
 3018W        W19279   8.605  15.863  14.356 -0.1010 -0.3264  0.0485
 3019W        W19280   4.426  12.383  16.908 -0.1899 -0.1965 -0.0641
 3020W        W19281   7.507   3.548  14.308 -0.1165 -0.3052  0.2213
 3021W        W19282   3.494  14.556  16.902 -0.0235  0.1268 -0.1699
 3022W        W19283  12.348  17.409   0.279  0.0152  0.0230 -0.4164
 3023W        W19284  11.912  12.833   4.744 -0.0710 -0.1679  0.0543
 3024W        W19285  12.500   2.079  13.623 -0.0885 -0.0168 -0.2147
 3025W        W19286  17.170  12.872   1.473 -0.4651 -0.0949 -0.0906
 3026W        W19287  10.732   4.610   0.572  0.0773  0.0350  0.0873
 3027W        W19288   4.404  16.755   3.533  0.0045 -0.2956  0.0026
 3028W        W19289   4.467   0.477   5.509 -0.0953 -0.1779 -0.1502
 3029W        W19290  11.353  16.077   3.506  0.0579  0.0529 -0.4227
 3030W        W19291  17.710   0.148  12.481 -0.0781 -0.0203  0.0188
 3031W        W19292   3.985   2.670   2.637  0.0803 -0.0365  0.3105
 3032W        W19293  11.370   2.938  15.377 -0.1121  0.0562  0.1155
 3033W        W19294  15.897   2.246  14.253 -0.2881 -0.2510  0.1761
 3034W        W19295  17.227  10.383   3.426  0.2331 -0.0854  0.6316
 3035W        W19296   1.949   2.313   2.697 -0.3467 -0.1553 -0.0901
 3036W        W19297  13.393  12.773  13.522  0.2819  0.1587  0.1391
 3037W        W19298  16.991  11.285  16.262 -0.0826  0.0548  0.4821
 3038W        W19299   2.576   5.089  12.547 -0.1451  0.1323  0.0968
 3039W        W19300  13.378   1.417   2.570  0.1364  0.0467  0.0046
 3040W        W19301   6.679   6.047   1.779  0.1658  0.2184  0.2344
 3041W        W19302   0.722  12.822   5.574 -0.2669  0.3663  0.0600
 3042W        W19303   0.619  10.675   2.255  0.0591 -0.0184 -0.0788
 3043W        W19304  11.591  14.204  14.260  0.0571  0.0567 -0.1410
 3044W        W19305  17.568  13.399   3.313  0.1327 -0.0193  0.1150
 3045W        W19306   7.908   3.469  12.454  0.2476 -0.2613  0.1812
 3046W        W19307   5.092  14.487  14.948 -0.0047  0.0984 -0.1766
 3047W        W19308   4.048   2.295   1.188  0.2754 -0.0876  0.1794
 3048W        W19309   3.752   3.894   5.516  0.4255 -0.1030 -0.1679
 3049W        W19310   1.934  14.269  15.129 -0.0354  0.2727  0.0859
 3050W        W19311  13.110   0.398   3.646 -0.1517 -0.0049  0.1064
 3051W        W19312   5.716   2.172  15.943 -0.0236  0.3924  0.2023
 3052W        W19313   0.440  16.584  16.965 -0.0062 -0.0271 -0.1790
 3053W        W19314  14.553   0.534   5.825  0.2179  0.3288 -0.0654
 3054W        W19315   2.131   5.789   4.957  0.2718 -0.0054 -0.2472
 3055W        W19316   6.447   4.550  16.470  0.1730 -0.0023  0.1541
 3056W        W19317   7.866   7.780   2.977 -0.2590  0.0410 -0.1066
 3057W        W19318   1.780   5.709   0.253  0.1713  0.0189  0.0381
 3058W        W19319   8.137  15.660  15.799  0.0075 -0.3183  0.0305
 3059W        W19320  14.050   8.971  13.651 -0.0748  0.0538 -0.1603
 3060W        W19321   0.589   4.041   5.105 -0.0232 -0.3226  0.2299
 3061W        W19322   6.950   7.333   1.945  0.1116 -0.0722  0.0540
 3062W        W19323  14.733   5.751  15.823  0.2328 -0.1937 -0.0113
 3063W        W19324   1.308   8.177  16.612 -0.0307  0.3510 -0.2727
 3064W        W19325  13.241   0.863   3.472  0.1116  0.0456  0.0196
 3065W        W19326   6.663   6.945  12.457 -0.0390  0.0977  0.2177
 3066W        W19327   3.545  17.689  13.958 -0.0001 -0.2717  0.1267
 3067W        W19328   9.838  10.789  15.189  0.0202 -0.3169 -0.0545
 3068W        W19329  10.059  15.538   6.163  0.0814 -0.0645  0.0548
 3069W        W19330   5.229   8.939   2.358  0.0040  0.0259 -0.0046
 3070W        W19331   0.265  10.595   6.197  0.0148 -0.3337  0.2471
 3071W        W19332  14.910  12.749   2.729 -0.0166 -0.0828  0.2424
 3072W        W19333  11.994   6.048   0.310  0.0247  0.0375  0.1146
 3073W        W19334   4.867   7.240  11.781 -0.1735  0.0148 -0.1396
 3074W        W19335   0.259  15.373   4.047 -0.5814  0.1018 -0.2038
 3075W        W19336   7.641  13.567   2.195  0.3001  0.1944 -0.2261
 3076W        W19337   7.283  14.697  14.838  0.1611 -0.5096  0.1631
 3077W        W19338   4.963  16.117   3.010 -0.0181 -0.0155 -0.0180
 3078W        W19339  16.240  15.644   3.182  0.1502  0.1318 -0.1950
 3079W        W19340   0.958   9.065   1.209  0.1041  0.1657  0.1456
 3080W        W19341  14.045   5.593   1.706 -0.0019  0.2996  0.0214
 3081W        W19342  14.227   5.557   2.184  0.0500  0.1772  0.1520
 3082W        W19343   3.027   5.013  16.890 -0.0424 -0.0439 -0.0072
 3083W        W19344   3.344   4.640  13.215 -0.1085  0.1327 -0.2558
 3084W        W19345   0.814   9.856   2.657 -0.0310 -0.3368  0.2667
 3085W        W19346   4.711  15.973   5.746 -0.1660  0.2547  0.0361
 3086W        W19347  17.354  11.790   3.577 -0.0815  0.0383  0.2700
 3087W        W19348   3.710  13.186   2.728 -0.2083  0.1869  0.0843
 3088W        W19349   0.758   6.306  14.817  0.0166  0.2127  0.1171
 3089W        W19350  11.268  13.048  16.696  0.1768 -0.1863  0.2047
 3090W        W19351   4.054  11.322   2.920 -0.3026  0.0506  0.2807
 3091W        W19352   8.805   2.488  11.783  0.0253  0.1029  0.0543
 3092W        W19353  10.412   9.799  16.969 -0.2055  0.0033  0.1084
 3093W        W19354   4.599   8.900  12.017  0.1144  0.0728  0.0652
 3094W        W19355   1.169  10.928  13.427  0.0446  0.1065 -0.2940
 3095W        W19356   3.751   1.653   1.883  0.1544  0.1893  0.0052
 3096W        W19357   6.768  17.482  14.729 -0.2996 -0.1405 -0.1107
 3097W        W19358   3.899  10.806  14.677  0.3588 -0.0607 -0.1072
 3098W        W19359   3.229  15.243   4.228  0.2816 -0.3947  0.0216
 3099W        W19360   2.392   1.435   2.720  0.0734 -0.0924  0.1502
 3100W        W19361   7.884   0.402  16.048 -0.0138  0.1179 -0.0698
 3101W        W19362   0.312  13.872   1.553  0.3254  0.0997 -0.3071
 3102W        W19363   3.690   6.695   0.120 -0.0893 -0.0827  0.1395
 3103W        W19364   4.224  17.726   3.799  0.3522  0.0958 -0.1040
 3104W        W19365   3.831   9.592  15.412  0.1333 -0.2314 -0.3295
 3105W        W19366   0.487   2.765  12.328  0.1037 -0.1279  0.3037
 3106W        W19367  13.233   2.402   3.455  0.2858 -0.0771  0.1910
 3107W        W19368   2.627  14.715   1.124  0.0832 -0.1836  0.2641
 3108W        W19369   0.904  12.094  13.866 -0.1960  0.1508 -0.1244
 3109W        W19370  12.149   5.666   3.765  0.3036 -0.0049  0.1378
 3110W        W19371   1.590   9.495   3.982  0.0265 -0.0935  0.0417
 3111W        W19372   1.851  15.761  15.519 -0.0237 -0.1325 -0.2015
 3112W        W19373  10.333   2.126   4.235  0.0143 -0.0930 -0.1707
 3113W        W19374   5.296  14.813   4.142 -0.0492 -0.0019  0.0518
 3114W        W19375   3.939   4.442   0.440  0.0326 -0.0734  0.0364
 3115W        W19376   0.030  11.867  13.674 -0.2733 -0.0902  0.1874
 3116W        W19377   6.423   7.437  16.208  0.0976 -0.2159 -0.0545
 3117W        W19378  10.560   2.765  11.747  0.5406  0.2117  0.0115
 3118W        W19379   7.096  13.501   5.242 -0.1683  0.3342  0.2005
 3119W        W19380   0.883   7.607   2.126  0.2274  0.2347 -0.0339
 3120W        W19381   8.282   1.445  15.039  0.0382  0.4355  0.0052
 3121W        W19382   7.785   8.601  13.549 -0.0885  0.0890 -0.3893
 3122W        W19383   5.985   8.395   5.392  0.4010 -0.1530  0.0148
 3123W        W19384  12.550  15.849   3.659 -0.0885  0.1133  0.0300
 3124W        W19385   6.916  12.649  15.422  0.3492  0.1013  0.0226
 3125W        W19386  12.144   2.118  14.034  0.0144 -0.1156 -0.2531
 3126W        W19387   6.179   5.071   4.935  0.0920  0.0556 -0.0598
 3127W        W19388   0.437   5.297   5.257  0.0780 -0.1482  0.4031
 3128W        W19389  15.743  10.752   2.937 -0.3558  0.1425  0.0219
 3129W        W19390   9.493   8.998   5.946  0.1931 -0.3027 -0.1395
 3130W        W19391   0.818  14.441   2.963 -0.2855 -0.3795  0.1037
 3131W        W19392  17.626  16.745  15.108  0.1168 -0.0646  0.1789
 3132W        W19393   9.272  11.684   6.155 -0.1654 -0.0615  0.0490
 3133W        W19394  10.292   5.296  14.067  0.1958 -0.0035 -0.4653
 3134W        W19395   6.986  11.237   2.722 -0.1678  0.0650 -0.3739
 3135W        W19396   1.817  13.815  12.140  0.0597  0.3787  0.1320
 3136W        W19397  11.624  16.459   0.006  0.0425 -0.0969  0.1667
 3137W        W19398  10.654   9.674  15.931 -0.0073 -0.2426  0.1728
 3138W        W19399   5.098   2.674  16.353  0.1702  0.0123  0.0931
 3139W        W19400   2.527   4.511   1.087 -0.2170 -0.0583  0.0764
 3140W        W19401   2.756  15.684  11.872  0.1862 -0.0936  0.0668
 3141W        W19402   4.399   0.619  12.535  0.0285 -0.2264 -0.1540
 3142W        W19403   2.330   5.621   4.509 -0.0789 -0.1156 -0.3802
 3143W        W19404  14.311   0.159   3.197  0.2813 -0.1762 -0.0244
 3144W        W19405   1.234  15.644   4.327 -0.1369 -0.1603  0.1027
 3145W        W19406  14.645  14.857   0.511 -0.2057 -0.0910 -0.2170
 3146W        W19407  17.023   8.071  16.158 -0.0285  0.1052  0.1319
 3147W        W19408  16.250  17.861  15.032 -0.0567  0.3019 -0.1585
 3148W        W19409  14.132  10.717   3.714 -0.0891  0.0457  0.0513
 3149W        W19410  10.676  10.144  16.762  0.2008  0.0975 -0.1415
 3150W        W19411  12.081   2.002   2.551  0.1357  0.2785 -0.0696
 3151W        W19412  10.333   3.730   3.925 -0.0482 -0.0869  0.1314
 3152W        W19413  10.727   2.251   1.909  0.2757  0.1677 -0.3026
 3153W        W19414  13.496   5.894  11.875 -0.1125  0.2681  0.0913
 3154W        W19415   6.157   2.027  13.795 -0.0299 -0.0876 -0.0539
 3155W        W19416   5.616   8.621   2.504 -0.0131 -0.1138 -0.3367
 3156W        W19417   2.757  14.292  15.765  0.1566 -0.2241  0.0745
 3157W        W19418  17.781   6.492  15.256  0.0751 -0.1041  0.0466
 3158W        W19419   8.919   5.327  13.796  0.0969 -0.0318  0.0964
 3159W        W19420  17.517   9.400  14.586 -0.3252 -0.2067  0.1756
 3160W        W19421   9.373   6.988  12.189  0.2245  0.0056 -0.1306
 3161W        W19422  15.808   7.735  13.035 -0.0627 -0.3566  0.0067
 3162W        W19423  13.145   1.741   5.177  0.0605  0.0080  0.0013
 3163W        W19424   9.597  13.546  15.654  0.0122  0.0377 -0.0701
 3164W        W19425   3.016  10.339   0.825 -0.1901  0.2399 -0.1845
 3165W        W19426   3.060   3.857  14.633 -0.1251  0.3944  0.0645
 3166W        W19427   1.134   4.376  13.626  0.2766  0.0431  0.3221
 3167W        W19428  13.964  10.677   6.296  0.0129  0.1726  0.0922
 3168W        W19429   7.169   5.328   2.193  0.1769 -0.1965 -0.1214
 3169W        W19430  13.950   0.549  12.323 -0.0502  0.1166  0.1043
 3170W        W19431  14.519   1.667   5.782  0.2925 -0.0393 -0.2064
 3171W        W19432  17.185  11.302  13.728 -0.2371 -0.2820  0.1134
 3172W        W19433  10.222   9.785   5.017 -0.0715  0.1965 -0.0527
 3173W        W19434  13.523   7.745   1.080 -0.0046  0.2820 -0.2920
 3174W        W19435   6.360  12.673  15.636  0.3480  0.0172  0.3219
 3175W        W19436   0.914  10.318   1.832 -0.1372 -0.1908 -0.0481
 3176W        W19437  10.906  10.306  16.309 -0.1721 -0.1128  0.0069
 3177W        W19438   1.136   2.430   1.445 -0.0859 -0.0345 -0.2167
 3178W        W19439  15.169  17.388  13.643 -0.0915 -0.2009  0.2218
 3179W        W19440   5.281   9.396   3.130  0.0680  0.2747 -0.1233
 3180W        W19441   3.393  11.903  12.302  0.0028 -0.0248 -0.0805
 3181W        W19442   9.177  11.372   2.410  0.0698 -0.2841 -0.1233
 3182W        W19443  11.726  15.343  14.468 -0.0846 -0.2553  0.1772
 3183W        W19444  16.261   0.033   2.808  0.2633 -0.0023  0.0670
 3184W        W19445  11.057   8.021  16.553  0.0544 -0.1010  0.2549
 3185W        W19446  11.450   4.027   1.037  0.0219 -0.0210 -0.1358
 3186W        W19447  13.516   7.341  13.458 -0.1573  0.4095 -0.0274
 3187W        W19448   3.497  11.101  14.606  0.0335 -0.2129 -0.0216
 3188W        W19449  14.027  13.068   0.397  0.0109  0.0094  0.1569
 3189W        W19450   3.339  13.470  13.953 -0.1900  0.0502 -0.1448
 3190W        W19451   3.308   5.863  13.392  0.0863 -0.0017  0.0190
 3191W        W19452   3.202  12.356  16.155  0.3527 -0.0935 -0.1276
 3192W        W19453  13.157   2.566   1.155 -0.2947 -0.3048  0.2596
 3193W        W19454   4.540  12.208   1.916  0.2696  0.2047 -0.0535
 3194W        W19455  15.200  12.289  16.333  0.1982  0.0960 -0.3932
 3195W        W19456  10.856  16.008  10.491 -0.0819 -0.0314 -0.3027
 3196W        W19457  14.775  16.777   1.413 -0.1977 -0.0182  0.2294
 3197W        W19458   8.387   0.297   3.779 -0.3463  0.1831  0.1843
 3198W        W19459   3.363   4.866   0.281 -0.1669  0.0629 -0.1511
 3199W        W19460   9.782   6.604  11.727  0.2929  0.1076 -0.1219
 3200W        W19461   4.083   9.557   4.674 -0.0501  0.1609  0.0432
 3201W        W19462   5.387   7.086  12.608  0.2300  0.0818  0.0085
 3202W        W19463  17.802   7.932  12.385 -0.0363 -0.0391 -0.1358
 3203W        W19464   8.862   2.065   5.655 -0.1249  0.0830 -0.0078
 3204W        W19465  13.529  12.712   4.837 -0.2418 -0.1971 -0.0095
 3205W        W19466   2.110  16.652  14.008  0.2401  0.2405 -0.0759
 3206W        W19467   2.106   1.678   5.569  0.2650  0.1727  0.1012
 3207W        W19468   8.553  17.595   1.558 -0.0939 -0.3738  0.0520
 3208W        W19469   0.719  17.796   4.698  0.0370  0.3492  0.0457
 3209W        W19470   9.153   8.140   1.149  0.1044 -0.0812  0.0297
 3210W        W19471  16.156   0.407  14.704  0.3481 -0.0116  0.0876
 3211W        W19472  10.048  16.106   6.406  0.3161  0.1370  0.2009
 3212W        W19473   2.194   6.650   5.937  0.1159  0.3462 -0.1667
 3213W        W19474   5.893   7.290   0.670  0.0196 -0.2763 -0.2300
 3214W        W19475   9.069  13.568  12.548 -0.0444  0.0845  0.1595
 3215W        W19476  10.614  14.792  14.094  0.1276 -0.4059  0.1449
 3216W        W19477   8.046  14.789   1.785  0.1954 -0.2021  0.0453
 3217W        W19478   8.635  11.713   4.368 -0.0274  0.0366 -0.1049
 3218W        W19479   3.721  13.713  11.383  0.3692 -0.0359  0.1102
 3219W        W19480  10.337  10.936  15.942  0.2481  0.3430 -0.4616
 3220W        W19481   5.168  17.662  12.551 -0.0200 -0.1712  0.1137
 3221W        W19482  11.534  11.220   2.851  0.2789 -0.1544 -0.0515
 3222W        W19483   1.426  13.350  14.233 -0.0695 -0.0562 -0.1374
 3223W        W19484   2.635   2.952   5.190 -0.2808 -0.1533  0.0270
 3224W        W19485  14.665   1.404   3.361  0.2154 -0.1927  0.0627
 3225W        W19486  13.836   0.403  15.707  0.0771  0.1950 -0.0105
 3226W        W19487  13.504   9.063  13.182  0.2485  0.3336  0.1648
 3227W        W19488   3.971  12.272  11.701 -0.1687 -0.0974 -0.0006
 3228W        W19489  12.256   4.883   2.446 -0.0176  0.1682  0.1853
 3229W        W19490   6.574  12.626   2.672 -0.0410  0.0977  0.0558
 3230W        W19491   7.878   5.355  12.368  0.0154 -0.1484 -0.0885
 3231W        W19492   3.773  17.126  16.642  0.0958  0.0303 -0.0146
 3232W        W19493   6.251   9.676  14.695 -0.0946 -0.0982 -0.0070
 3233W        W19494   7.421  11.839   4.853 -0.3309  0.0455  0.1024
 3234W        W19495  14.485  17.052  16.006 -0.1917  0.3107 -0.0801
 3235W        W19496   1.893   9.372  11.986 -0.2765  0.0327 -0.3026
 3236W        W19497  16.340  11.054  16.830  0.2413  0.1694 -0.1162
 3237W        W19498   2.948  10.395  12.861 -0.1461 -0.2509  0.0475
 3238W        W19499   0.488  17.142  13.170 -0.0644 -0.1476 -0.1641
 3239W        W19500  15.594   8.161  16.733  0.0369  0.1470 -0.0361
 3240W        W19501  16.333   4.883  12.085  0.0239 -0.2872  0.1439
 3241W        W19502  15.737   0.988  16.435  0.1816  0.0006  0.0353
 3242W        W19503  15.548  13.216   0.093 -0.2610 -0.1079 -0.2438
 3243W        W19504  10.227   1.902   5.574  0.3132  0.2695 -0.0170
 3244W        W19505   4.620  11.258   3.177 -0.2866 -0.2076  0.0678
 3245W        W19506   0.191  10.472   2.434  0.0856 -0.1447  0.1149
 3246W        W19507  12.348  16.680   1.156 -0.1153  0.1514  0.0413
 3247W        W19508  14.324  16.443   0.178  0.0276 -0.1156 -0.4405
 3248W        W19509  13.950   2.922  14.940  0.1568  0.3346 -0.1933
 3249W        W19510  10.687   4.223   0.254  0.1470 -0.1856  0.0287
 3250W        W19511  15.225  16.614   0.072  0.0599 -0.1039  0.3960
 3251W        W19512  16.242   0.137   4.458 -0.0083 -0.1953  0.2363
 3252W        W19513  12.620   1.742  16.102  0.2056  0.1113 -0.4849
 3253W        W19514  16.314  16.857   2.948 -0.0707  0.0380 -0.4469
 3254W        W19515   3.875   3.005  16.906  0.0056  0.2074 -0.1119
 3255W        W19516   1.999  15.233  14.307  0.0312 -0.2408 -0.2433
 3256W        W19517   5.771   9.703   1.014  0.0501  0.0635 -0.1564
 3257W        W19518  14.049   8.457  12.934 -0.0187  0.0558 -0.0085
 3258W        W19519   8.866   5.556  15.196 -0.1123 -0.1380 -0.2921
 3259W        W19520   3.757  17.835   1.230 -0.0612  0.0287  0.3660
 3260W        W19521   5.684   9.697   0.477  0.1096 -0.0484  0.2378
 3261W        W19522  13.824   5.254  14.345 -0.0574  0.1745  0.0808
 3262W        W19523   6.928   3.652   4.861 -0.2538  0.1748 -0.3153
 3263W        W19524   6.969  11.575  12.751 -0.1229  0.1839  0.0740
 3264W        W19525   2.713  14.794   2.478 -0.0008 -0.1994  0.0985
 3265W        W19526   4.479   8.393  12.195  0.3121 -0.0223 -0.2441
 3266W        W19527   7.539  12.255  12.268  0.1074  0.2188 -0.1108
 3267W        W19528   8.099   9.899   1.308  0.0026 -0.0951  0.2395
 3268W        W19529   0.379   4.524   3.529 -0.3539 -0.1452  0.1148
 3269W        W19530  15.869  11.775  15.396  0.0841 -0.3347  0.0953
 3270W        W19531   6.463   5.067   0.622  0.1401  0.0534  0.3346
 3271W        W19532   5.965  16.492  10.752  0.1222  0.0664 -0.0005
 3272W        W19533   0.329   3.675  15.111  0.1404  0.1614  0.0038
 3273W        W19534  17.747  11.514   0.374  0.0184  0.0338  0.2389
 3274W        W19535  13.802   6.592  15.653  0.0340 -0.1228 -0.2694
 3275W        W19536  14.900  12.534   1.119  0.3455  0.2828  0.3061
 3276W        W19537   9.361  13.521  15.229  0.0769 -0.1669  0.0775
 3277W        W19538   8.397  15.309  15.194  0.0779 -0.3027 -0.4455
 3278W        W19539   2.186  12.691  12.808  0.1612  0.1310 -0.1396
 3279W        W19540  14.378  14.706  14.909 -0.0729  0.0428  0.1047
 3280W        W19541   0.592   4.620  12.800 -0.3181 -0.0584 -0.2589
 3281W        W19542   8.909  10.380  15.011 -0.1222  0.1535  0.1417
 3282W        W19543   1.862  14.028   4.736  0.1470 -0.0073 -0.3716
 3283W        W19544   4.031   9.698  15.871 -0.1685  0.1222  0.2329
 3284W        W19545  17.208  15.152  12.439 -0.0680 -0.0802 -0.1182
 3285W        W19546  17.013   9.078   0.941 -0.3530 -0.1442 -0.0148
 3286W        W19547   8.241   3.793  12.802 -0.0607 -0.0119  0.0463
 3287W        W19548   0.729   9.194  14.748 -0.0980  0.1663 -0.1537
 3288W        W19549   0.412   6.795  15.273  0.1604 -0.0184  0.2205
 3289W        W19550  11.898   6.578   0.884 -0.0265 -0.0710 -0.2268
 3290W        W19551   5.438  15.284   5.487  0.0523 -0.1947 -0.4082
 3291W        W19552   6.044  16.517  14.073  0.0500  0.0372  0.2685
 3292W        W19553  16.425   8.967   1.102 -0.1605 -0.0832  0.0452
 3293W        W19554   0.261   4.766  16.099 -0.0849 -0.2295  0.0762
 3294W        W19555   4.155  11.891   3.689  0.1829 -0.0075  0.4532
 3295W        W19556   7.553   4.471  16.227  0.1960 -0.0622 -0.0606
 3296W        W19557   7.631  10.916   5.742  0.0275 -0.0188 -0.0359
 3297W        W19558   5.961  15.353  13.472 -0.0374 -0.1438 -0.0947
 3298W        W19559  15.825  13.844   2.966  0.2787 -0.2026  0.1030
 3299W        W19560   2.734   9.792  14.376  0.0514 -0.0058  0.1893
 3300W        W19561   5.085   6.916   3.622 -0.1604  0.1518  0.0089
 3301W        W19562   4.177   3.309   0.907 -0.2267 -0.1087 -0.1700
 3302W        W19563   4.508   1.950   4.461 -0.0869 -0.3870 -0.0904
 3303W        W19564   8.509  17.602  15.930 -0.0352 -0.0196 -0.0583
 3304W        W19565  17.276  10.109   2.191 -0.0219 -0.0168  0.0189
 3305W        W19566  15.185   0.666  14.374  0.0563  0.0985 -0.1517
 3306W        W19567   5.225  16.023   5.677 -0.2362  0.2654 -0.2556
 3307W        W19568   9.106  15.486  16.630 -0.2707  0.1866 -0.0381
 3308W        W19569   2.673   5.920   4.873  0.0258 -0.2277 -0.3187
 3309W        W19570  17.330   2.093   3.849  0.1402  0.0551  0.3444
 3310W        W19571   9.894   4.936   2.212  0.0224  0.0680  0.1407
 3311W        W19572  12.708  13.839   4.157  0.0184 -0.0216  0.0576
 3312W        W19573   6.943   4.132   0.465  0.1052 -0.2919 -0.0082
 3313W        W19574   9.656  17.341   5.226  0.2689  0.0584 -0.0133
 3314W        W19575  15.620  14.652  14.141 -0.0184  0.1654  0.0516
 3315W        W19576   7.011   8.110  15.255 -0.0026 -0.1393 -0.2115
 3316W        W19577  17.723   7.822  16.919 -0.2910 -0.3150  0.0563
 3317W        W19578   0.550  16.866  14.191  0.0353  0.0522  0.1425
 3318W        W19579   9.830   9.679   1.984  0.1797 -0.0966 -0.0501
 3319W        W19580  14.853  14.021  13.190 -0.0910 -0.0470  0.3349
 3320W        W19581   3.784   6.443  14.582  0.1229  0.1006 -0.1471
 3321W        W19582  15.381   1.392   0.860  0.2808 -0.0871  0.0226
 3322W        W19583   3.429   3.094   0.130  0.1889  0.0513 -0.2216
 3323W        W19584  10.178   3.158   2.175  0.0712  0.0283  0.2779
 3324W        W19585  13.476   5.049  12.155  0.0996  0.2462 -0.1097
 3325W        W19586  12.619   3.468  16.819  0.0012  0.0134  0.1787
 3326W        W19587  11.285  16.992   3.334  0.2189  0.2686 -0.0675
 3327W        W19588  16.583  16.636  12.793  0.1816 -0.3242 -0.0259
 3328W        W19589   3.690   6.963   4.250  0.2374 -0.0368  0.0285
 3329W        W19590   8.098   8.347   0.358 -0.0580  0.0336 -0.0514
 3330W        W19591   1.304  10.690  11.389 -0.0616  0.0810  0.0232
 3331W        W19592   9.097   0.805   0.269 -0.2494  0.3644 -0.2618
 3332W        W19593   9.822   7.812   4.833 -0.0389 -0.3666 -0.0368
 3333W        W19594  10.124  12.346   3.760 -0.2152 -0.1318 -0.0723
 3334W        W19595   5.436  12.569  13.581 -0.0968  0.3330 -0.0718
 3335W        W19596  15.069   8.056   4.229  0.1947  0.1708 -0.3753
 3336W        W19597   0.637   1.217   4.276  0.0150  0.1724 -0.0793
 3337W        W19598  17.182   4.475  14.453  0.1263  0.0774 -0.0933
 3338W        W19599  14.945   9.018   5.250  0.2732 -0.2502 -0.1213
 3339W        W19600   2.693   8.833  16.861 -0.0702  0.1765  0.0797
 3340W        W19601  17.551  17.649   0.133  0.0492 -0.0221 -0.0617
 3341W        W19602   2.081   0.901   0.495 -0.3225  0.1704  0.1459
 3342W        W19603   4.220   2.597  12.625  0.2766 -0.0599 -0.1070
 3343W        W19604   5.382   0.351   2.428 -0.1016 -0.0249  0.2018
 3344W        W19605   5.547   0.661  15.786  0.1014 -0.2868  0.4089
 3345W        W19606  13.217   2.344   0.417 -0.2402 -0.0428 -0.0599
 3346W        W19607   6.423   9.631   2.322 -0.0272 -0.2152 -0.1638
 3347W        W19608   6.749   3.094   2.567 -0.1205 -0.1331 -0.1806
 3348W        W19609  17.453   8.708  12.910  0.1980  0.2113  0.2162
 3349W        W19610  15.242  12.296  12.099  0.1476  0.1337 -0.1294
 3350W        W19611   4.366   2.479  12.183  0.1587 -0.3386  0.2486
 3351W        W19612   2.244   3.679   2.123 -0.3216  0.1468 -0.0062
 3352W        W19613   0.393   7.950  16.936  0.0530 -0.0825 -0.0469
 3353W        W19614   5.680  16.192  14.996  0.1435 -0.0973 -0.0611
 3354W        W19615   4.248  11.692  14.389  0.0327  0.1565  0.0356
 3355W        W19616   8.886   0.855   2.327 -0.1384 -0.0625  0.0682
 3356W        W19617  12.900   9.421   4.389  0.2820  0.0597 -0.1013
 3357W        W19618  16.930  14.706  12.172 -0.0076 -0.2344 -0.2789
 3358W        W19619  11.173   6.953  12.202  0.2758 -0.2802  0.0825
 3359W        W19620  13.701   8.295  11.911 -0.3291  0.0621  0.0791
 3360W        W19621  13.957   3.627  12.858 -0.0956 -0.1186  0.3218
 3361W        W19622  10.790  11.899   2.462 -0.2912  0.0129  0.2191
 3362W        W19623   6.614   8.440  14.087 -0.2402 -0.3290 -0.3111
 3363W        W19624  17.183   4.885  16.367  0.0589  0.0472 -0.0598
 3364W        W19625   6.010  13.086  16.476 -0.0672 -0.0288  0.1497
 3365W        W19626  16.864   5.824  15.287 -0.2802 -0.1392 -0.2168
 3366W        W19627   4.355   9.919   5.098  0.0102  0.0123  0.3159
 3367W        W19628   4.947   3.890  16.188 -0.2492  0.0227  0.0881
 3368W        W19629  14.443  10.640   0.693  0.2408 -0.0306  0.1257
 3369W        W19630  16.951   9.542   5.180 -0.1079  0.2133 -0.1498
 3370W        W19631  17.266  15.830   4.160 -0.0079 -0.1263  0.1412
 3371W        W19632   1.094  10.588  12.566  0.1320 -0.1217  0.3910
 3372W        W19633   3.617   7.004   2.325  0.0996 -0.1844  0.1001
 3373W        W19634   0.504   6.395  16.893 -0.1074  0.0102 -0.1877
 3374W        W19635   9.574  16.901  11.469  0.2314  0.0736 -0.0394
 3375W        W19636  11.482  11.612  16.241 -0.2297 -0.1308 -0.2705
 3376W        W19637  15.696  11.739   2.847  0.0845  0.2708 -0.1903
 3377W        W19638  13.451  17.016   1.541  0.1921  0.1083  0.3923
 3378W        W19639  17.496   5.184   6.506 -0.0450 -0.0083  0.1257
 3379W        W19640   0.891  13.878  15.900 -0.1734 -0.0572  0.0432
 3380W        W19641   9.667   7.170   1.987 -0.3647  0.0582  0.1034
 3381W        W19642   8.621  13.931   1.243  0.0136  0.2488  0.3747
 3382W        W19643   3.890  11.018   2.185 -0.5124 -0.0881  0.1173
 3383W        W19644   7.110   5.130   4.625  0.1008  0.2923 -0.2745
 3384W        W19645  13.977  16.255   3.180  0.0568  0.2755  0.0272
 3385W        W19646  11.638  10.598  15.955 -0.0519  0.3757  0.0152
 3386W        W19647   8.382  11.727   2.841  0.2584  0.2712  0.2283
 3387W        W19648   4.546   6.509  14.000 -0.0316  0.3278  0.1719
 3388W        W19649   8.768  15.634   2.137 -0.2044  0.1441  0.0811
 3389W        W19650   1.136   4.436   1.764 -0.0877 -0.1508  0.1440
 3390W        W19651   2.435   7.598   1.985 -0.0646  0.0179  0.1437
 3391W        W19652  15.475   7.369   0.033 -0.3337  0.4946 -0.2117
 3392W        W19653   4.489   9.587  13.708 -0.0056  0.3076  0.0511
 3393W        W19654  10.124  12.286  11.767  0.0189  0.2194  0.2690
 3394W        W19655   2.425   3.221  14.044  0.2439 -0.1558  0.0641
 3395W        W19656   4.430  14.685  15.876  0.2469  0.0137 -0.3779
 3396W        W19657  12.253   8.759  11.460 -0.3091 -0.4212  0.1751
 3397W        W19658  13.488   3.650   3.822  0.1180  0.0938 -0.0184
 3398W        W19659   7.906   5.581   2.573  0.0587  0.1437  0.4169
 3399W        W19660   0.146  15.090  11.726 -0.2061 -0.2106 -0.2036
 3400W        W19661  10.935  10.018   1.180 -0.0077  0.2801 -0.0227
 3401W        W19662   5.026   1.609   2.410  0.0486 -0.1035  0.1054
 3402W        W19663  12.176   8.435  14.279  0.3243  0.1975  0.2609
 3403W        W19664  17.055   7.269   4.162  0.1210  0.3032  0.0696
 3404W        W19665  16.649  12.774   1.556  0.1793 -0.1795 -0.1876
 3405W        W19666  17.486   0.761   3.716 -0.1270 -0.1262  0.0693
 3406W        W19667   5.877   1.177  13.345 -0.0673 -0.0603  0.1676
 3407W        W19668  12.429  16.290   4.926  0.0632 -0.0998 -0.1205
 3408W        W19669   7.137  11.898  12.198  0.0744  0.0778  0.0660
 3409W        W19670   8.649  11.393   2.253 -0.0029  0.2210 -0.1258
 3410W        W19671  13.361   5.516   4.049 -0.4163 -0.3255  0.0870
 3411W        W19672   9.168   3.173  12.262 -0.0045  0.0118  0.0292
 3412W        W19673   9.475   9.059   1.301 -0.2224  0.2017  0.0608
 3413W        W19674   7.871   1.313   1.629 -0.0177 -0.0921 -0.0311
 3414W        W19675   3.011  12.215  10.106 -0.0709  0.5690  0.0348
 3415W        W19676   8.522  12.880  15.476 -0.0455 -0.0724  0.2291
 3416W        W19677  11.715   0.339  16.317 -0.1629  0.0687  0.3578
 3417W        W19678   8.815   5.960  15.482  0.0282  0.3429  0.1918
 3418W        W19679   1.830   2.773   6.644 -0.1567 -0.1689  0.1450
 3419W        W19680   1.006  14.352   1.933 -0.4272  0.0629 -0.0490
 3420W        W19681   5.412   9.899   0.142 -0.2035 -0.0210 -0.0410
 3421W        W19682   6.864  13.917  14.733  0.0731 -0.0761 -0.0302
 3422W        W19683  16.939  12.851  13.466 -0.2891  0.2197  0.3169
 3423W        W19684  14.832   8.628   2.967 -0.0794  0.1498  0.2677
 3424W        W19685   5.431  13.065  12.322  0.4557  0.2488  0.2038
 3425W        W19686  13.158  11.568   4.433  0.2386  0.2037  0.0643
 3426W        W19687  17.029  16.104  14.179 -0.0663 -0.5780 -0.1571
 3427W        W19688  15.302   5.331   2.609  0.1480 -0.0633  0.0296
 3428W        W19689   7.411  16.769  12.369  0.0236  0.1506  0.1688
 3429W        W19690  15.304   7.366   2.401 -0.2338 -0.0969 -0.1383
 3430W        W19691  14.287  13.588   1.765 -0.1305 -0.2114 -0.0116
 3431W        W19692   9.765   9.385  11.730 -0.4397  0.1001  0.4103
 3432W        W19693  14.537   1.321   4.896 -0.0288 -0.4177 -0.0105
 3433W        W19694  10.589  15.728   2.903  0.1323  0.2943  0.0344
 3434W        W19695   4.095   2.248   1.764 -0.0034 -0.0948 -0.2000
 3435W        W19696   2.578  17.653   6.265  0.0265  0.1369  0.1113
 3436W        W19697   2.929  17.700   5.228 -0.1025 -0.0136  0.0195
 3437W        W19698   8.734  14.336  14.811 -0.3450  0.0774  0.1143
 3438W        W19699   7.016   6.618  12.360 -0.0743 -0.2607 -0.1134
 3439W        W19700  12.816  15.002  12.959  0.2847 -0.1598 -0.0912
 3440W        W19701  10.855   0.620   4.479 -0.2926  0.1287 -0.0602
 3441W        W19702   9.566   0.624   0.822  0.2469  0.1601  0.1621
 3442W        W19703   3.650  11.578   2.721 -0.4024 -0.1591 -0.0721
 3443W        W19704   8.258   2.244   0.392 -0.0687  0.1820  0.0073
 3444W        W19705   3.846   6.684   3.827  0.1566  0.0025  0.1661
 3445W        W19706   1.528   7.525   1.555  0.1749  0.0916  0.0543
 3446W        W19707   2.887  14.294   1.177 -0.1005  0.3037 -0.1950
 3447W        W19708  12.830  16.243   1.800  0.2097 -0.0482  0.0607
 3448W        W19709  17.291   9.516  16.379  0.1864  0.0516  0.0137
 3449W        W19710   8.169  13.710  13.057  0.1379 -0.0592  0.0270
 3450W        W19711   1.876   1.945  15.763 -0.2201 -0.1182  0.2310
 3451W        W19712  16.426  11.798   4.482 -0.0825 -0.2297  0.0277
 3452W        W19713  16.729   7.326  15.841 -0.0841  0.2112  0.1347
 3453W        W19714   5.960   3.224   4.952 -0.1497  0.1280 -0.1142
 3454W        W19715   9.544   9.103  12.626  0.0046 -0.1092  0.0984
 3455W        W19716   8.757  15.377   4.806 -0.0467 -0.0961 -0.2100
 3456W        W19717   1.862  12.206  14.349  0.1526  0.1004 -0.1068
 3457W        W19718   6.684   2.284   3.133  0.2127 -0.4302 -0.0296
 3458W        W19719   3.088  17.211   0.451 -0.1251 -0.2483  0.0956
 3459W        W19720  15.545   9.040  14.185 -0.2745 -0.3932 -0.0925
 3460W        W19721   5.459  13.437   1.127  0.1115  0.1377 -0.1676
 3461W        W19722  15.868  10.218  13.688 -0.0806  0.0186  0.1089
 3462W        W19723   5.376   1.997  13.101  0.1656  0.0234  0.1107
 3463W        W19724   5.503  11.443  13.932  0.2842 -0.2411 -0.2881
 3464W        W19725   1.325   4.238  15.991  0.0035  0.2269 -0.2916
 3465W        W19726   3.356   1.490  12.148  0.1651  0.2165  0.2166
 3466W        W19727   0.568  13.598  11.768  0.2979  0.0576 -0.0399
 3467W        W19728   5.440   0.112  15.706 -0.0479  0.0413 -0.0253
 3468W        W19729   0.683   9.213  13.178  0.0106 -0.0973  0.0826
 3469W        W19730   9.861   2.228  16.726 -0.2285 -0.2284 -0.1180
 3470W        W19731   9.114   7.662   2.181  0.0490  0.0065 -0.2743
 3471W        W19732  12.011   8.828   4.634 -0.1596 -0.3320 -0.2241
 3472W        W19733  13.661   3.628  15.410  0.2158 -0.0139  0.1072
 3473W        W19734   7.545  11.556  16.618 -0.0459  0.1309 -0.0512
 3474W        W19735  12.298  14.696  14.680  0.1220 -0.1367 -0.0609
 3475W        W19736   0.315   3.992  14.102  0.0752 -0.0080  0.2997
 3476W        W19737   9.093  10.953   2.818  0.1146  0.1392  0.0515
 3477W        W19738  15.666  13.007   1.517 -0.1076  0.1425 -0.1983
 3478W        W19739   3.970  13.612   2.173  0.1629  0.2106 -0.1947
 3479W        W19740  11.160  11.482  12.354  0.0645  0.1458  0.0509
 3480W        W19741   1.561   5.463   4.137 -0.1307 -0.1968 -0.1585
 3481W        W19742  10.691   4.605  11.492 -0.3064 -0.0662  0.0874
 3482W        W19743  10.621  15.770  12.203  0.1220  0.2387 -0.1795
 3483W        W19744  12.298  16.480  16.341  0.3545 -0.1654  0.4122
 3484W        W19745   2.854  11.115  14.491  0.0134 -0.1633 -0.2730
 3485W        W19746   6.016   2.808  16.220  0.1912  0.3681 -0.4648
 3486W        W19747  12.948   0.025  12.686  0.1978 -0.4147  0.1615
 3487W        W19748   3.574   7.824  14.252 -0.2216  0.1099 -0.3867
 3488W        W19749   8.312   5.517  12.156  0.0086 -0.2232  0.0480
 3489W        W19750  17.429   3.156   1.104 -0.1120  0.1270  0.0811
 3490W        W19751   1.370   4.314  12.504  0.1569 -0.0147 -0.0512
 3491W        W19752  16.967   6.342   5.698  0.0780  0.0762  0.0631
 3492W        W19753  13.325   1.106  15.773  0.2310  0.3171 -0.0623
 3493W        W19754   5.047  12.928  14.335 -0.1018 -0.5859 -0.1895
 3494W        W19755  12.930  10.136   0.633 -0.1773 -0.2635 -0.0722
 3495W        W19756   1.511  12.523   4.361 -0.2824 -0.2143 -0.0221
 3496W        W19757  17.640   8.740   4.590 -0.2869  0.0388 -0.0728
 3497W        W19758  11.673  14.330  16.682  0.2155 -0.1718  0.3827
 3498W        W19759   4.065  17.624  13.134 -0.2571 -0.0270  0.0855
 3499W        W19760   8.330   5.052   0.337  0.0097 -0.0329  0.2148
 3500W        W19761  17.759  16.078   1.378  0.0955  0.1208 -0.2536
 3501W        W19762   0.210   0.953  12.946  0.3029  0.0614 -0.0493
 3502W        W19763   2.930  10.094  11.635 -0.0020 -0.2180  0.0512
 3503W        W19764   8.414  16.737   3.550 -0.0805 -0.0895 -0.1298
 3504W        W19765   5.705  10.058   4.632 -0.0417  0.0423  0.0560
 3505W        W19766   0.025   9.135   4.780  0.0536  0.0835  0.1141
 3506W        W19767  15.367  10.503  16.795  0.1054 -0.0446 -0.0093
 3507W        W19768  10.304   9.721   5.529  0.1479 -0.0169  0.1669
 3508W        W19769   1.822   0.595  13.351 -0.2919  0.1795 -0.2278
 3509W        W19770   7.014  15.860  12.179  0.0772  0.5546 -0.0355
 3510W        W19771   4.861  13.179   2.007 -0.0480 -0.0162 -0.1584
 3511W        W19772  11.815  16.985  11.707 -0.0398  0.1901  0.2634
 3512W        W19773  13.540   2.006   3.859 -0.1530  0.4974 -0.2708
 3513W        W19774  13.962   2.473   0.925 -0.1278 -0.4592  0.0530
 3514W        W19775   6.092   2.335  14.229 -0.0636  0.1435 -0.1691
 3515W        W19776  15.986   4.605  14.221  0.0890  0.0375 -0.1801
 3516W        W19777  17.801   5.009   4.411 -0.1998  0.2168  0.4605
 3517W        W19778   7.369   7.342   4.499 -0.0701  0.0159  0.0736
 3518W        W19779   3.864   4.898   0.153  0.1204  0.2217 -0.1636
 3519W        W19780   1.305   0.280   3.490 -0.0122  0.1212 -0.2769
 3520W        W19781   9.580  16.542   2.911  0.0072 -0.0319  0.3836
 3521W        W19782   0.074  12.966   3.340 -0.2146  0.1445 -0.0615
 3522W        W19783  14.872   4.432  14.160  0.4042  0.1954 -0.1475
 3523W        W19784   6.957  10.204   5.003  0.0765  0.2117 -0.1815
 3524W        W19785  12.620   6.520  16.282  0.2267 -0.2128  0.0353
 3525W        W19786   0.909  11.845   0.628  0.1185  0.1787 -0.0124
 3526W        W19787   0.620  14.300  13.100 -0.0744 -0.1674 -0.0425
 3527W        W19788   9.044  16.460  12.568 -0.1146  0.0624 -0.0973
 3528W        W19789   7.899   0.307   3.897 -0.1134  0.2540  0.1141
 3529W        W19790   0.345   4.737   4.432  0.2429 -0.2933  0.1489
 3530W        W19791   9.759  11.442   0.007 -0.2597 -0.0942 -0.2119
 3531W        W19792  17.478  14.310  14.154  0.3036 -0.2918  0.0938
 3532W        W19793  17.018   5.391  15.301 -0.0731  0.0917 -0.1602
 3533W        W19794   4.222  13.965   1.214  0.0595  0.0179 -0.2266
 3534W        W19795  14.342   3.558   2.687 -0.0554  0.0905 -0.2532
 3535W        W19796  12.110  15.439  15.885  0.1754 -0.3395 -0.0838
 3536W        W19797   3.140  15.377  11.723 -0.1172 -0.0631 -0.1446
 3537W        W19798  15.886   4.312  16.192  0.2458 -0.0939  0.3246
 3538W        W19799  14.190  14.018   0.187 -0.0372 -0.0171 -0.1493
 3539W        W19800  11.322   1.094   0.537  0.3590  0.1848  0.1665
 3540W        W19801  13.383  16.484   0.646 -0.0713  0.3994  0.2999
 3541W        W19802  10.468  16.466   1.223  0.0087 -0.0083  0.0946
 3542W        W19803  10.016   2.537   3.242  0.0117 -0.1319 -0.2839
 3543W        W19804  10.105   8.609  11.441  0.0761  0.0252 -0.2431
 3544W        W19805   4.666   3.376  11.803  0.0733 -0.1170 -0.0749
 3545W        W19806   5.940   3.326  12.845  0.2275  0.1961  0.0612
 3546W        W19807   8.948   4.384   3.689  0.0393  0.0831  0.1651
 3547W        W19808   3.639   0.355   4.382  0.0988 -0.0805 -0.3863
 3548W        W19809  15.114  15.130  16.690 -0.0988  0.0424 -0.1133
 3549W        W19810   2.374   2.652   1.058  0.0704  0.1257 -0.3295
 3550W        W19811   1.883   2.836  15.425  0.3304  0.0944  0.0885
 3551W        W19812   0.956   0.387  16.033 -0.0668  0.1312  0.1693
 3552W        W19813   9.598   6.533   2.787  0.2554  0.1574  0.0379
 3553W        W19814   7.962   0.069  15.297 -0.0827  0.1652  0.0800
 3554W        W19815   4.373   6.987  15.524  0.0865 -0.1624 -0.1787
 3555W        W19816   8.995  12.145   3.414  0.0206  0.0827  0.3898
 3556W        W19817   7.783  13.947  11.740  0.2544  0.1653 -0.1013
 3557W        W19818   9.189   5.409  12.427  0.1252  0.2299 -0.4690
 3558W        W19819   0.922  16.545   3.968  0.0508  0.4266 -0.2459
 3559W        W19820   5.317   3.302  15.691 -0.1310 -0.0642 -0.3319
 3560W        W19821  13.433  14.923  16.316 -0.1400  0.0036  0.2251
 3561W        W19822  16.191   9.108   0.619 -0.0061  0.0493  0.0859
 3562W        W19823   8.543   7.636  14.769 -0.0235 -0.0170 -0.0118
 3563W        W19824   9.629  11.745   5.038  0.1471  0.2245  0.0936
 3564W        W19825  15.372  13.412   5.827 -0.0693 -0.0541 -0.1104
 3565W        W19826   0.813  11.961   4.479  0.2780  0.0518 -0.2469
 3566W        W19827   9.347  13.077   1.098 -0.0679 -0.2141 -0.0728
 3567W        W19828   7.124  16.502  16.688  0.1188 -0.1787 -0.2216
 3568W        W19829   9.437  12.012   2.126 -0.0658  0.0059  0.1421
 3569W        W19830  11.997  13.897   5.590  0.0257 -0.0394 -0.1696
 3570W        W19831   0.415   3.414   2.118  0.1083  0.5786 -0.0325
 3571W        W19832   6.051  10.344   2.451  0.0133  0.0821  0.0062
 3572W        W19833   4.744   5.038  16.961  0.2475 -0.1895  0.1742
 3573W        W19834   9.242   2.528  14.711 -0.0736  0.3138  0.0286
 3574W        W19835  17.486  16.743   4.444 -0.2370 -0.3565 -0.2252
 3575W        W19836   8.558   4.493   3.981  0.0001  0.1317  0.0844
 3576W        W19837  12.076   1.445   5.548  0.1312  0.2140 -0.2472
 3577W        W19838  10.072   3.858   4.704  0.1318 -0.0622 -0.2130
 3578W        W19839  15.282   4.706   2.403  0.0779 -0.1477 -0.1056
 3579W        W19840   0.422  12.595  12.120 -0.0559 -0.1981 -0.2323
 3580W        W19841  16.098  13.358  12.897 -0.0182 -0.0583 -0.0609
 3581W        W19842  16.770  17.706   1.830 -0.1571 -0.2287  0.0946
 3582W        W19843   6.273   5.315   2.101  0.2905 -0.0677 -0.0448
 3583W        W19844  10.885   5.783  13.758  0.3459 -0.2567  0.4175
 3584W        W19845   0.437  15.881  12.927 -0.3217  0.0760 -0.1106
 3585W        W19846   9.050  13.205   3.294  0.1368  0.1153  0.0656
 3586W        W19847  10.267   8.473   4.353  0.1066  0.0132  0.0017
 3587W        W19848  13.401   6.481   5.703  0.0157  0.0174 -0.2177
 3588W        W19849  12.402  11.511  12.121 -0.1517 -0.1138  0.1593
 3589W        W19850   1.514  15.149  15.392 -0.4606 -0.0252  0.0838
 3590W        W19851   2.236  17.215   5.571  0.1838  0.0155 -0.0671
 3591W        W19852  11.041   6.569   4.326 -0.0003 -0.1571  0.2314
 3592W        W19853   6.708  15.949   1.965  0.1332  0.3148 -0.0547
 3593W        W19854   2.120   8.098   3.929 -0.0475 -0.0823  0.0633
 3594W        W19855  15.890  16.655  14.727 -0.0389 -0.0585  0.2991
 3595W        W19856   8.253   8.863  13.476 -0.0579  0.1374  0.2861
 3596W        W19857  11.688  10.801   2.265  0.0295  0.3663 -0.0993
 3597W        W19858  17.570  16.744  14.331 -0.1295 -0.2830 -0.0243
 3598W        W19859   2.606  12.478   4.900 -0.0085 -0.0368  0.2177
 3599W        W19860   1.075   3.985   2.670  0.0336  0.0846  0.0537
 3600W        W19861   0.592  15.493   4.862 -0.0046  0.2301 -0.0544
 3601W        W19862   2.322  15.980   5.036 -0.1318  0.1324 -0.0521
 3602W        W19863  14.020  15.723  16.178  0.2999  0.1093  0.2415
 3603W        W19864   1.320  11.530  14.626  0.1424 -0.2125  0.1093
 3604W        W19865  15.294  16.875   0.888  0.0161 -0.0184 -0.0277
 3605W        W19866   8.923  10.966  11.856  0.0334 -0.0861 -0.4360
 3606W        W19867   5.689   8.806  16.240  0.4583 -0.0167 -0.3738
 3607W        W19868  13.436   4.201   5.118 -0.3652  0.1148 -0.1182
 3608W        W19869  14.803  10.692   2.377  0.2733  0.1592 -0.3284
 3609W        W19870   4.595  15.938   0.794  0.0169  0.0087 -0.0487
 3610W        W19871   7.453   5.909   3.788  0.1030 -0.0981 -0.0707
 3611W        W19872   7.950  17.022   1.628  0.0859 -0.2135 -0.2604
 3612W        W19873  10.031   9.020  16.878 -0.2187  0.0061 -0.0299
 3613W        W19874  16.609  14.810  16.165 -0.0675 -0.0148  0.1997
 3614W        W19875  12.414   6.955   2.486 -0.0369  0.0270  0.2179
 3615W        W19876   2.371  12.329   5.408 -0.1848  0.0622  0.1676
 3616W        W19877   6.402  11.950   0.735  0.1806 -0.5220  0.0392
 3617W        W19878  16.355  17.236   3.842  0.1551 -0.0983  0.0567
 3618W        W19879   1.665  17.398   3.813  0.1609  0.2260 -0.1314
 3619W        W19880   1.341   1.656  12.136 -0.0454  0.1602 -0.1741
 3620W        W19881  16.190  10.895   1.076  0.0355 -0.1004  0.0308
 3621W        W19882  11.362   4.888   3.772 -0.0375 -0.4113 -0.0137
 3622W        W19883   7.992  12.521   0.008 -0.0764  0.0904 -0.3968
 3623W        W19884  10.053   5.089   0.252 -0.2546  0.1560  0.0347
 3624W        W19885  16.014  16.171   1.646 -0.1102  0.3296  0.2889
 3625W        W19886  11.936   7.961  15.997 -0.0364 -0.1015 -0.0810
 3626W        W19887   2.431   0.349  13.759 -0.1438  0.1105 -0.3589
 3627W        W19888  16.217  17.485   1.169 -0.1510  0.1407  0.0443
 3628W        W19889  11.714   3.078  13.015 -0.0578  0.1083  0.1287
 3629W        W19890   0.475   6.489   4.140  0.0475  0.3664 -0.0242
 3630W        W19891   6.077   5.258  14.659  0.1128  0.2097 -0.1351
 3631W        W19892  12.776   8.635  13.968  0.4260  0.0790 -0.1107
 3632W        W19893  11.415   3.339   2.741  0.3882  0.0107  0.3807
 3633W        W19894   9.850  13.261  14.503  0.0962 -0.1786  0.2091
 3634W        W19895  15.222   0.500   0.009  0.0979 -0.1821  0.1115
 3635W        W19896  15.996   4.221   0.341 -0.0286  0.0063  0.2623
 3636W        W19897  10.569   3.679   5.127 -0.1254  0.0315 -0.0549
 3637W        W19898  13.693  15.450  13.651  0.3667  0.2853  0.0545
 3638W        W19899  16.894   1.558   6.039  0.4575  0.0470 -0.0741
 3639W        W19900  11.823  14.789   3.166 -0.0385  0.2667  0.1769
 3640W        W19901   0.276   5.366  12.671  0.0831  0.0828 -0.0929
 3641W        W19902   9.510   3.693   1.711 -0.0852  0.0445 -0.0952
 3642W        W19903  12.867   3.752   6.475  0.0805 -0.0566 -0.0496
 3643W        W19904   9.227  15.329   4.870 -0.0792 -0.0514  0.0928
 3644W        W19905   1.008   7.008   0.953 -0.1771  0.0251 -0.2206
 3645W        W19906   9.884   1.837  12.594 -0.0992  0.3927  0.0615
 3646W        W19907  13.526   9.392   4.369 -0.0812 -0.1611  0.3799
 3647W        W19908  15.315   8.339  13.581 -0.0516  0.1086  0.1072
 3648W        W19909   9.357   1.738   4.046 -0.1292 -0.1751  0.2558
 3649W        W19910   0.117   6.185  15.956  0.0353  0.2446 -0.5281
 3650W        W19911   7.218   3.479  13.206 -0.3177 -0.2441  0.0913
 3651W        W19912  17.658  11.313   3.748 -0.0570 -0.2683  0.1672
 3652W        W19913  12.669   3.822   4.825  0.1076  0.3246  0.1753
 3653W        W19914   9.534  13.091  15.421  0.3844 -0.2500 -0.1639
 3654W        W19915   3.162   6.723   4.779 -0.1982 -0.0884 -0.2941
 3655W        W19916   4.488  12.939  12.259 -0.0913  0.3573 -0.1502
 3656W        W19917   4.852  10.586   2.761  0.0451  0.0577  0.0883
 3657W        W19918   1.117  16.807   3.540 -0.1143 -0.1259  0.3340
 3658W        W19919   6.128   0.820   5.588 -0.2976  0.2657  0.1271
 3659W        W19920  11.177  12.812   4.615  0.2183  0.0781 -0.0026
 3660W        W19921  15.728  10.262   2.103  0.0832  0.0581 -0.0132
 3661W        W19922   4.647  12.090   3.501 -0.2345 -0.1973 -0.2140
 3662W        W19923   3.629  11.092  15.422  0.1786 -0.2099  0.0602
 3663W        W19924   1.093   2.223   0.121  0.1739 -0.0639  0.3836
 3664W        W19925  16.605  14.788   6.043  0.0170  0.1566  0.0073
 3665W        W19926  13.924  17.068  12.587 -0.2283  0.2065  0.1114
 3666W        W19927   5.913   2.510   0.696 -0.0922 -0.2444  0.1585
 3667W        W19928   7.672   5.769   0.397  0.1525  0.1684 -0.2107
 3668W        W19929   9.090   3.523   6.468  0.1154  0.2685  0.1123
 3669W        W19930   2.427  13.385   1.949 -0.1991  0.0669  0.2168
 3670W        W19931  10.467   5.544  12.078 -0.1471 -0.1481  0.0471
 3671W        W19932  11.620   7.084   3.798 -0.2237 -0.0636 -0.2697
 3672W        W19933  14.651   5.932  14.104 -0.0080  0.0940  0.0149
 3673W        W19934   2.833   9.376  14.131  0.0481 -0.1885  0.0277
 3674W        W19935  14.386  14.744   1.356  0.0550  0.0755 -0.0657
 3675W        W19936  16.438   3.562   2.231  0.0624 -0.1015  0.1378
 3676W        W19937   3.565   0.371   3.550  0.0470 -0.3025 -0.1249
 3677W        W19938  11.393  17.857  16.500  0.3337  0.0024  0.3291
 3678W        W19939   3.550   7.140  15.073 -0.0261 -0.2288  0.0774
 3679W        W19940   7.161  15.681   0.484 -0.1695  0.1811 -0.1058
 3680W        W19941  10.211   9.045  15.387 -0.0770  0.2711  0.1357
 3681W        W19942   3.485   5.039  12.818  0.1824  0.1620  0.1250
 3682W        W19943   8.515   8.207   1.663 -0.0067  0.1205 -0.0507
 3683W        W19944   1.831   3.470  14.844 -0.2206  0.1015 -0.1151
 3684W        W19945   7.657   7.925   5.900 -0.0143 -0.2111 -0.0013
 3685W        W19946  16.515   2.216   5.744  0.3121  0.3486  0.1343
 3686W        W19947  12.804  14.852   5.435  0.2300  0.2360  0.0672
 3687W        W19948  16.162   1.221  12.980  0.0552 -0.0167 -0.0729
 3688W        W19949   6.254  16.358  16.930  0.1607  0.2217  0.1274
 3689W        W19950   0.040  12.525  12.530  0.2575  0.0844  0.1868
 3690W        W19951   9.635  13.084  11.924  0.2497 -0.0327 -0.0284
 3691W        W19952  14.000   9.979   1.690  0.2234  0.0271  0.1117
 3692W        W19953   9.834   9.917  16.281  0.1402  0.0015  0.1107
 3693W        W19954   3.963   8.775   3.460 -0.2523 -0.0374 -0.1245
 3694W        W19955   3.660  10.833  13.455  0.0981 -0.2943 -0.1265
 3695W        W19956   4.717   0.227   1.297  0.0352  0.1512 -0.0778
 3696W        W19957  13.925   4.968   5.556  0.1388 -0.2019 -0.0464
 3697W        W19958  13.917   3.624   2.457  0.2363  0.2699  0.0256
 3698W        W19959  17.171   1.493  15.680  0.3659 -0.0222  0.0169
 3699W        W19960  13.272   1.435  14.777 -0.0529  0.1331 -0.0668
 3700W        W19961   8.376   2.376  14.372 -0.3581 -0.0063 -0.0362
 3701W        W19962   4.391   0.916  15.931 -0.2477  0.1156  0.1462
 3702W        W19963  13.296   4.100  15.930 -0.0371  0.0277  0.2032
 3703W        W19964  11.081   3.327  16.438  0.3195  0.0948  0.2559
 3704W        W19965  13.830  14.718   0.787 -0.2182 -0.2057  0.2632
 3705W        W19966   3.592  12.083  15.915  0.1245 -0.2031  0.1067
 3706W        W19967  14.722   8.867  13.616 -0.1363  0.0215  0.0281
 3707W        W19968   1.109  16.332  11.875 -0.1736 -0.1206  0.1881
 3708W        W19969   3.234   4.394   3.013  0.1900  0.0438 -0.0672
 3709W        W19970  10.500   3.286   3.824  0.4369 -0.1773  0.0746
 3710W        W19971  14.654  12.270  12.073  0.1749  0.1713 -0.0018
 3711W        W19972   2.052  10.469  13.610 -0.0815  0.2011  0.2502
 3712W        W19973   8.774   6.024   3.913  0.1046  0.0074  0.0740
 3713W        W19974   2.216  13.572  12.268  0.0327 -0.1425  0.0151
 3714W        W19975  10.857  14.274   3.823 -0.1109 -0.0123 -0.0406
 3715W        W19976   2.626   2.322   1.336 -0.0809  0.0645  0.1353
 3716W        W19977   3.323  17.238  16.577  0.3780  0.2447 -0.0738
 3717W        W19978   3.423  15.602  14.701  0.1673  0.0211  0.2068
 3718W        W19979   3.887   5.268   5.390  0.1075  0.3003  0.0590
 3719W        W19980  14.887   2.379   1.339  0.0074  0.2338 -0.0224
 3720W        W19981  11.446  11.678  13.286 -0.0764 -0.1485  0.1610
 3721W        W19982  12.772  17.174   5.482 -0.0454  0.0385 -0.0829
 3722W        W19983   6.033   0.558   3.599  0.2176 -0.0412 -0.2719
 3723W        W19984  14.256   6.607  14.829 -0.0246  0.0271 -0.0144
 3724W        W19985   4.780  17.511  16.413 -0.0004  0.2101  0.0202
 3725W        W19986   4.866   7.051  15.336 -0.1004 -0.2015  0.0618
 3726W        W19987  16.389  14.752  12.085 -0.1242 -0.0611  0.3016
 3727W        W19988   1.304  10.019  14.514  0.2211  0.0055 -0.2668
 3728W        W19989   8.609   3.547   2.850  0.0198 -0.2508 -0.0489
 3729W        W19990   5.971  10.985  16.496 -0.0812  0.1540  0.0673
 3730W        W19991   2.860   7.828  15.287  0.2632 -0.2123  0.0736
 3731W        W19992   0.612  16.286   3.649 -0.1187 -0.1777  0.0016
 3732W        W19993   2.042  11.833  15.380  0.0371 -0.1046 -0.0384
 3733W        W19994   5.351   8.195  16.958 -0.0784 -0.1038 -0.2142
 3734W        W19995  15.260   9.667  16.484  0.4624 -0.2797 -0.1955
 3735W        W19996  16.175   1.097   2.962 -0.2554 -0.1850 -0.0703
 3736W        W19997   9.489  12.918   5.150 -0.0948 -0.1005  0.1625
 3737W        W19998   1.219   6.840  15.430 -0.2615  0.0701  0.2132
 3738W        W19999   5.303  14.386  16.698 -0.0648 -0.0844 -0.1030
 3739W        W20000  10.090  17.187   1.523  0.1725  0.1556 -0.1807
 3740W        W20001  11.465  13.432  16.428  0.1998  0.1902  0.0576
 3741W        W20002   6.977  14.437  15.138 -0.2669  0.0846  0.2749
 3742W        W20003   1.787  10.219   0.227  0.2095 -0.0847 -0.1293
 3743W        W20004   5.340  13.172  11.645 -0.0388 -0.0929  0.2337
 3744W        W20005   2.920   4.862   1.033  0.0923  0.1488  0.0684
 3745W        W20006  10.110   3.300  16.140  0.2359 -0.0083 -0.0133
 3746W        W20007  16.003   6.445   4.997  0.1860  0.0128  0.1587
 3747W        W20008   0.824  14.947   0.552  0.0204 -0.2164  0.1884
 3748W        W20009   0.230   8.590   3.674  0.3132  0.1626  0.0542
 3749W        W20010   2.644  14.758  13.809  0.0816  0.1727  0.0961
 3750W        W20011  17.492  16.782  12.748 -0.1613  0.1066  0.2584
 3751W        W20012   1.325  12.316  12.956  0.0969 -0.1205 -0.0267
 3752W        W20013   0.393  16.421   4.647  0.0705 -0.0409 -0.1042
 3753W        W20014   2.034   4.021   1.667  0.0981 -0.1112 -0.1184
 3754W        W20015  11.222   0.601   2.244  0.3763  0.0471 -0.0527
 3755W        W20016   7.745  13.360   2.664  0.0087 -0.0419  0.1528
 3756W        W20017   1.234   3.361   0.770 -0.1867  0.0089 -0.0902
 3757W        W20018  17.219  12.870   2.722 -0.2573  0.0326  0.0039
 3758W        W20019   0.577  12.914   2.066  0.0823 -0.1412  0.0562
 3759W        W20020   0.266  12.165  12.728  0.0494 -0.1024 -0.2746
 3760W        W20021   6.905  13.746   5.574  0.2003  0.1806 -0.1154
 3761W        W20022   7.038   2.304  15.741 -0.1023  0.1781  0.1577
 3762W        W20023   5.132  13.543  15.436 -0.0133 -0.0444  0.2584
 3763W        W20024   4.249  10.712  12.820 -0.1465  0.0116 -0.0151
 3764W        W20025   5.111  13.788   5.225  0.0214  0.0530 -0.1242
 3765W        W20026   7.378   5.782  13.573 -0.1061 -0.2544 -0.1481
 3766W        W20027  13.045  10.855  14.138  0.0414 -0.2354  0.3145
 3767W        W20028   0.524   0.760   4.063  0.1830 -0.1345  0.0970
 3768W        W20029  13.969  15.622   2.431  0.0559 -0.0283  0.4287
 3769W        W20030   5.242   4.194   2.041 -0.1790 -0.3277  0.2529
 3770W        W20031  14.869  14.485   0.843  0.1294  0.1406  0.1561
 3771W        W20032   2.634   0.314  14.239 -0.3430  0.0606 -0.0125
 3772W        W20033  16.746  10.541   4.501  0.1099  0.2176  0.0537
 3773W        W20034  15.511   6.265  13.088  0.3628  0.1891  0.2394
 3774W        W20035  14.316  17.452  15.164 -0.0284 -0.1874  0.2571
 3775W        W20036   2.418  15.511  14.357  0.0542 -0.1825 -0.2525
 3776W        W20037   0.662  16.726  15.992  0.1287 -0.1192 -0.4222
 3777W        W20038   1.924   5.942  16.091 -0.2042  0.1456  0.0545
 3778W        W20039  15.483  13.570  12.199 -0.0691  0.1597 -0.0294
 3779W        W20040  10.948   5.835   1.580  0.1586  0.1084 -0.0831
 3780W        W20041  12.402   2.129  15.803 -0.0739  0.0622  0.0830
 3781W        W20042   0.725   7.971  16.571  0.0122 -0.0526 -0.1206
 3782W        W20043   8.017  17.788   5.305  0.0331  0.2263 -0.1196
 3783W        W20044   8.420  10.958   1.949 -0.1534 -0.3642  0.2258
 3784W        W20045  10.770  10.206   3.253 -0.2349 -0.4025 -0.0468
 3785W        W20046  12.460  11.533  15.363 -0.0887  0.1155 -0.0920
 3786W        W20047   9.209  13.539   4.298 -0.3201 -0.0301 -0.0057
 3787W        W20048  15.197   0.619  13.059 -0.2834 -0.0571  0.0802
 3788W        W20049   8.074   6.620  16.869  0.0093 -0.1535  0.1597
 3789W        W20050   0.629   7.419  14.543  0.2708  0.0034 -0.2319
 3790W        W20051  17.519  16.247  14.167 -0.1089  0.0173 -0.0239
 3791W        W20052   5.543  11.541   1.504 -0.1533  0.1886  0.0245
 3792W        W20053   7.982  12.694  11.456  0.2790 -0.3500 -0.2859
 3793W        W20054  12.740   9.093   3.095 -0.2084  0.1325  0.1314
 3794W        W20055  17.668   2.501  14.695 -0.3472 -0.1055  0.1099
 3795W        W20056  17.541  11.405   4.900 -0.0296 -0.1477  0.0365
 3796W        W20057  17.443   0.786  16.155  0.0272 -0.2327 -0.1920
 3797W        W20058  10.641   3.527  15.587 -0.5755 -0.3342 -0.1211
 3798W        W20059  10.063  12.350   2.128  0.1249 -0.3191  0.0415
 3799W        W20060   2.626   3.241   0.621  0.3247 -0.0450  0.2762
 3800W        W20061   7.071   7.273  15.962 -0.0453 -0.0718  0.0359
 3801W        W20062   8.161  16.436  12.788  0.0917  0.4161  0.0336
 3802W        W20063  10.896  12.914  12.591 -0.1413 -0.1169  0.1476
 3803W        W20064  17.049   3.589  14.249  0.1134  0.0614 -0.0707
 3804W        W20065   8.969  12.316  13.199 -0.0930  0.1180  0.0813
 3805W        W20066   5.432   1.486  11.762  0.1457 -0.0295 -0.0304
 3806W        W20067  14.743  16.719  15.599 -0.1223 -0.0884  0.0795
 3807W        W20068  14.245   9.934   5.980 -0.4776  0.0008  0.2335
 3808W        W20069  12.075   2.919   0.681  0.0629  0.1951 -0.4187
 3809W        W20070   1.345   8.601   2.109 -0.1621 -0.1509 -0.4339
 3810W        W20071   5.711   6.291  12.326 -0.1163  0.1263 -0.1778
 3811W        W20072  12.505  17.343   4.493 -0.1817  0.0984 -0.1421
 3812W        W20073  10.985   8.048   0.108  0.1162  0.0142  0.0399
 3813W        W20074   8.555  14.341   5.777  0.3379 -0.0888  0.0928
 3814W        W20075  16.350  12.733   4.597 -0.0421  0.2796 -0.2486
 3815W        W20076   7.179   9.774   0.738  0.3675 -0.2644  0.0663
 3816W        W20077   3.639   1.469  16.056 -0.3127 -0.2730 -0.0372
 3817W        W20078  11.687  13.004  10.590  0.0903 -0.2541 -0.3227
 3818W        W20079   5.884   3.824   3.280 -0.0788  0.3185  0.4424
 3819W        W20080   6.135  11.993  13.675  0.1497  0.1112  0.1695
 3820W        W20081   2.441   2.522  16.412  0.0808 -0.1568 -0.0860
 3821W        W20082  16.632  12.288   6.386 -0.0341  0.1256  0.0098
 3822W        W20083   6.225  16.259  14.981 -0.0038 -0.0494 -0.0470
 3823W        W20084   6.461   6.391  16.725  0.1286  0.0623 -0.0252
 3824W        W20085   4.135   1.221  11.756  0.1193  0.2222 -0.0294
 3825W        W20086  15.410   9.168  16.399 -0.0046  0.0923  0.0886
 3826W        W20087  10.250   4.888   5.688 -0.2051  0.0825 -0.0742
 3827W        W20088  11.558  10.175  16.508 -0.2947 -0.1976 -0.1117
 3828W        W20089   5.495  11.351   3.187 -0.0404 -0.0859  0.0895
 3829W        W20090  14.749   1.113   3.804  0.3392 -0.3444  0.0157
 3830W        W20091   4.207  10.436   1.120 -0.3309 -0.0170 -0.1357
 3831W        W20092  12.018  13.514   2.437 -0.0870  0.4290  0.3183
 3832W        W20093   8.625  17.830   5.120  0.1495 -0.0174  0.2114
 3833W        W20094   2.591   0.773  12.038 -0.0001 -0.0491 -0.0341
 3834W        W20095  17.206  12.881   5.689 -0.1829 -0.0035 -0.0598
 3835W        W20096   6.593   6.564  15.879 -0.0464  0.1191  0.1393
 3836W        W20097   3.187   5.145   1.803 -0.0082 -0.1762 -0.0631
 3837W        W20098   9.507   7.118  12.659 -0.1726 -0.0586  0.0931
 3838W        W20099  16.084   0.704   2.105 -0.0093 -0.0763 -0.0229
 3839W        W20100  12.242   1.461  14.404  0.2366 -0.2026 -0.1996
 3840W        W20101  14.102  11.492   2.009 -0.0179 -0.1407 -0.0045
 3841W        W20102  10.809   2.197   5.080 -0.0444  0.0787  0.0402
 3842W        W20103  15.732   8.541   0.046 -0.0334 -0.3758  0.0617
 3843W        W20104   4.156  17.110   3.865  0.0144  0.0605 -0.1680
 3844W        W20105   7.362   0.445  14.783 -0.0283  0.3453  0.1988
 3845W        W20106  13.838  13.603  14.719 -0.2179 -0.0185 -0.0812
 3846W        W20107  14.305  15.541   4.198  0.3131  0.2710 -0.0905
 3847W        W20108   1.010  16.201  14.463  0.1727  0.0871  0.2145
 3848W        W20109   4.798  17.650   3.373 -0.1234  0.0371  0.3328
 3849W        W20110   9.245  10.835  11.504 -0.0176  0.0251  0.3036
 3850W        W20111  11.921   0.980   5.440  0.1848  0.2709  0.2316
 3851W        W20112  14.104   6.254  15.325  0.1001  0.1425 -0.3396
 3852W        W20113   1.690   0.744  15.455  0.1893 -0.1163  0.1626
 3853W        W20114  12.857   8.995  12.979  0.0443  0.2914 -0.3414
 3854W        W20115  13.212   3.505  14.566 -0.1549 -0.0980 -0.0143
 3855W        W20116  13.081   3.682  13.124  0.1452  0.1036 -0.2550
 3856W        W20117   3.292   7.656  13.390  0.0309 -0.2000 -0.3809
 3857W        W20118  14.479  15.136   4.971  0.2586 -0.1645 -0.0135
 3858W        W20119   4.771  13.469  12.022 -0.3380 -0.3627 -0.5189
 3859W        W20120  14.470   8.681   3.821  0.1348  0.0709 -0.0913
 3860W        W20121  14.311   3.413  14.878  0.0783  0.2170 -0.0520
 3861W        W20122  15.716  16.116   3.953  0.0784 -0.0073  0.0869
 3862W        W20123  15.229   6.227   0.184  0.2655 -0.0793 -0.1786
 3863W        W20124   3.466   6.128  14.813 -0.0265 -0.2162 -0.0399
 3864W        W20125  14.190  15.054   3.945  0.3422 -0.0710 -0.0588
 3865W        W20126  10.867  14.872   2.935 -0.1891  0.1390  0.0946
 3866W        W20127   6.827   6.589  11.541 -0.1418 -0.2458  0.0030
 3867W        W20128   3.793  12.148  15.244  0.1418 -0.1193  0.0648
 3868W        W20129  15.118   0.534   1.724  0.0585 -0.2288 -0.0646
 3869W        W20130  16.947  14.595  14.113 -0.0795  0.2712 -0.0049
 3870W        W20131  16.091  11.734   0.333 -0.0140 -0.2671 -0.0252
 3871W        W20132   4.627   0.588  16.292  0.2934 -0.0602  0.2594
 3872W        W20133   4.074   8.194  13.035  0.1119  0.2163  0.1559
 3873W        W20134   0.954  11.450  16.380 -0.0961  0.4496 -0.2770
 3874W        W20135   8.375   4.308   4.946 -0.0569 -0.0749  0.0786
 3875W        W20136   7.779   9.178   6.304 -0.1108  0.0366  0.4289
 3876W        W20137   5.027  17.829   5.041  0.0190  0.2108  0.0878
 3877W        W20138   5.478  16.457  16.914  0.1746  0.2339 -0.2583
 3878W        W20139   9.275   9.236   4.186 -0.0619  0.2139 -0.2058
 3879W        W20140   0.188  11.072   0.516  0.0093 -0.0837 -0.2002
 3880W        W20141  10.830  12.689  11.936 -0.1987 -0.1767 -0.2721
 3881W        W20142  13.985   6.748   0.656  0.1514  0.1782 -0.2936
 3882W        W20143  14.557  12.713   5.573 -0.1385  0.1381 -0.2361
 3883W        W20144   8.921   1.866  11.458  0.0136 -0.1029 -0.0052
 3884W        W20145   0.184   1.162   1.707 -0.0387  0.2799  0.1175
 3885W        W20146  16.505   6.258   2.264  0.0533  0.0357 -0.1594
 3886W        W20147   6.733   5.913  13.074  0.0542 -0.0370 -0.0497
 3887W        W20148   1.881  17.406   4.311 -0.1985 -0.1786 -0.2341
 3888W        W20149  10.156  17.369   2.878  0.0557 -0.3705 -0.2629
 3889W        W20150   3.335  10.786  12.930 -0.1838  0.1751  0.3202
 3890W        W20151  17.828  13.186  12.717  0.2002 -0.2805 -0.0755
 3891W        W20152   8.999  11.545  12.456  0.0190  0.0664  0.0732
 3892W        W20153   3.372   7.705  11.930  0.1211 -0.2584 -0.2461
 3893W        W20154  16.401  16.209  14.366 -0.3127  0.2533 -0.0221
 3894W        W20155   1.199   9.616   5.013 -0.1912 -0.0357 -0.0340
 3895W        W20156   7.506  14.847  15.263  0.2609 -0.1203 -0.0226
 3896W        W20157   2.745  12.024   3.694 -0.0037  0.2763 -0.0269
 3897W        W20158  12.025  12.301   3.283  0.1926  0.0535 -0.0634
 3898W        W20159   4.018   4.779   5.491  0.2522 -0.2638  0.1555
 3899W        W20160   5.272  15.681  15.865 -0.0397 -0.0892 -0.5513
 3900W        W20161  16.471   6.175   4.916  0.0200 -0.0140  0.1334
 3901W        W20162  16.484  15.865   0.158 -0.0805  0.0755 -0.3805
 3902W        W20163   6.201  10.013  14.257 -0.1743 -0.0217  0.2005
 3903W        W20164  14.257   6.939  15.870 -0.3830 -0.0861  0.2156
 3904W        W20165   5.513   6.864   4.404 -0.4723  0.2199 -0.1006
 3905W        W20166   7.444   0.555  14.254  0.0313  0.1414  0.0275
 3906W        W20167   9.306  12.279  14.022 -0.1322  0.0019  0.1377
 3907W        W20168   9.557   1.017   0.505 -0.0886 -0.3696 -0.0552
 3908W        W20169  12.581   9.359   5.211  0.1401 -0.0737  0.1926
 3909W        W20170   4.930  13.608  13.999  0.4940  0.1140 -0.0939
 3910W        W20171  10.072   5.812   2.672  0.1675  0.2006  0.1493
 3911W        W20172   8.383  11.414   3.214  0.1261  0.0376  0.2033
 3912W        W20173   8.083   1.387  16.507  0.4251 -0.1636  0.2569
 3913W        W20174  14.618   9.352   4.342 -0.0424  0.1093 -0.0000
 3914W        W20175  17.687  13.411   6.400 -0.0602 -0.0852 -0.2071
 3915W        W20176  14.327  12.028  14.564  0.1061 -0.2765  0.0096
 3916W        W20177   0.173   9.958   1.601  0.0858  0.2186 -0.0361
 3917W        W20178  13.101   8.192  14.214  0.2327 -0.1283  0.1110
 3918W        W20179   2.493  12.436   1.600  0.2130  0.0061 -0.0753
 3919W        W20180  11.349   6.547   2.815 -0.3176 -0.1849  0.3115
 3920W        W20181   1.951   3.691  13.773 -0.1960  0.1338  0.1086
 3921W        W20182  17.169   3.722   2.219  0.0440 -0.1518 -0.3496
 3922W        W20183   9.256  16.903   3.162 -0.3586 -0.1911  0.1502
 3923W        W20184  11.851  11.342   2.304  0.0648 -0.0511  0.2603
 3924W        W20185  17.457   4.895  13.794  0.0165  0.2683  0.2289
 3925W        W20186   7.163   7.830   6.399 -0.0896  0.1927 -0.0032
 3926W        W20187  11.667   4.155   3.041 -0.2698 -0.1165 -0.2723
 3927W        W20188   7.161   2.430   4.543 -0.0416 -0.2978  0.0471
 3928W        W20189  10.964   3.832   0.446 -0.0912  0.0837  0.0875
 3929W        W20190   9.047   7.569  14.866 -0.1881 -0.1693  0.1372
 3930W        W20191   4.533  10.955  11.595  0.3121 -0.1035  0.2576
 3931W        W20192  12.440   0.063  15.651  0.2662 -0.0232 -0.3411
 3932W        W20193   0.550   4.893  13.246  0.0681  0.3165  0.0139
 3933W        W20194   4.662   0.411  14.704 -0.0486 -0.0578  0.0964
 3934W        W20195   3.690   1.727   5.940 -0.1225 -0.0815  0.1397
 3935W        W20196   5.785  16.809   2.465  0.2799 -0.0240 -0.0589
 3936W        W20197  17.466   3.838   5.049 -0.1556  0.0173  0.2957
 3937W        W20198  11.677  17.195  14.376  0.1967 -0.0845  0.0370
 3938W        W20199  10.787   4.520  12.798 -0.2143  0.1099  0.2613
 3939W        W20200   5.215  13.645  14.947  0.1855 -0.2095 -0.0780
 3940W        W20201   4.583   8.170  13.143 -0.1864 -0.3366  0.2385
 3941W        W20202   2.821   4.338   5.832  0.0510 -0.2698  0.0984
 3942W        W20203  15.746   2.233   3.014  0.2640  0.0776 -0.0287
 3943W        W20204   8.393  15.677  11.816 -0.1706 -0.1564 -0.0162
 3944W        W20205   2.300   9.967   1.204  0.1228 -0.1678  0.0535
 3945W        W20206  10.898  12.758  14.608  0.0955  0.1661 -0.0116
 3946W        W20207   9.862  10.898  16.215 -0.0138  0.0736 -0.1458
 3947W        W20208   7.249  15.394  12.309 -0.1687 -0.1611  0.1908
 3948W        W20209   9.248  14.288  13.537  0.2319 -0.1121 -0.0534
 3949W        W20210   6.686  12.144   0.336 -0.0403 -0.0362 -0.2426
 3950W        W20211  11.396   3.128   1.409 -0.0715 -0.2510  0.0294
 3951W        W20212   2.531   0.109   2.030  0.0216 -0.4572 -0.0342
 3952W        W20213   2.353   5.253   2.455  0.2573 -0.3086  0.0019
 3953W        W20214   7.314   5.605   0.825 -0.1027 -0.1169 -0.3887
 3954W        W20215   1.086  15.395  11.791 -0.0270 -0.1614  0.0377
 3955W        W20216   0.172  14.607   4.590 -0.1035  0.1021 -0.0241
 3956W        W20217  10.945  15.846  16.967  0.2492  0.5168  0.1572
 3957W        W20218   6.304  17.339  14.659 -0.1133  0.1614 -0.2846
 3958W        W20219   0.457   6.697   1.641 -0.0169 -0.2392  0.2063
 3959W        W20220  13.816   0.496  15.134 -0.0366  0.2231  0.4764
 3960W        W20221  13.357   7.876  14.509  0.0087 -0.0881 -0.0303
 3961W        W20222   1.942   1.923   5.029  0.2242  0.0175  0.1630
 3962W        W20223   2.292   1.767   2.226  0.1371 -0.2150 -0.0851
 3963W        W20224  15.879  17.799   4.909 -0.3699 -0.1344  0.1826
 3964W        W20225  11.737   2.535   1.723  0.0315  0.0061 -0.0514
 3965W        W20226   1.157   6.006   3.904 -0.0092 -0.1582  0.2504
 3966W        W20227   1.919   2.352   5.323 -0.1882 -0.0863 -0.2435
 3967W        W20228  15.814   2.210  12.774  0.0967  0.2482 -0.3819
 3968W        W20229   8.008   6.680   0.751  0.0463 -0.2279  0.0685
 3969W        W20230   7.815   8.858   0.204  0.0156  0.0018  0.0981
 3970W        W20231   7.668  10.522  12.100  0.1041  0.1995 -0.4224
 3971W        W20232  16.518  11.496  13.564  0.1106  0.4005 -0.0363
 3972W        W20233   0.390  15.206   1.893  0.0352  0.0570  0.1287
 3973W        W20234  10.897   7.563   0.403 -0.3190  0.2949  0.2327
 3974W        W20235  10.360  10.155  16.035  0.0316  0.0534  0.4311
 3975W        W20236  10.877   5.401   4.614  0.2271  0.0680  0.1431
 3976W        W20237  13.863   3.988  12.276 -0.1530 -0.1576 -0.0902
 3977W        W20238   7.289  16.056   3.893 -0.1176  0.1323  0.0647
 3978W        W20239  15.100   6.687  14.098  0.1349 -0.1291 -0.0531
 3979W        W20240   0.818   6.019   4.864  0.2615  0.3818  0.0446
 3980W        W20241   6.679   5.843  14.624  0.1893 -0.1991 -0.2413
 3981W        W20242  10.652  16.302  11.380 -0.0572  0.2630 -0.1250
 3982W        W20243   0.341   0.310   0.675  0.3171 -0.2248  0.0889
 3983W        W20244   6.062  11.643  14.597 -0.0733  0.2784 -0.1048
 3984W        W20245  10.360  16.841   3.612 -0.2456 -0.0594  0.1279
 3985W        W20246  14.972   8.835   2.154 -0.0718  0.2106 -0.1365
 3986W        W20247   9.503  17.373   0.764  0.3373 -0.1661 -0.2482
 3987W        W20248  10.068  16.257  11.835 -0.0918 -0.1202 -0.0444
 3988W        W20249   1.383   1.338   6.075  0.0700 -0.1309 -0.1118
 3989W        W20250  13.365  14.967   5.040  0.3459  0.0226 -0.2593
 3990W        W20251  17.293   7.494  13.154 -0.2644 -0.2168 -0.1024
 3991W        W20252   3.927   7.280   2.628 -0.2599 -0.1676 -0.1297
 3992W        W20253  11.641   4.782   5.413  0.2482 -0.0279 -0.2716
 3993W        W20254   0.331  17.857  13.797  0.1099  0.1227 -0.1179
 3994W        W20255  12.954  11.091   5.424 -0.0545 -0.0661  0.0609
 3995W        W20256   4.659   7.936   2.517  0.0348 -0.0657  0.3339
 3996W        W20257   1.356   4.976  13.927  0.2179  0.0376 -0.1589
 3997W        W20258  15.783   8.861  13.494  0.2902 -0.1183  0.1089
 3998W        W20259   7.469   7.856  14.994 -0.0565 -0.2076 -0.1758
 3999W        W20260  15.146  15.603   5.907 -0.2696 -0.0371 -0.2233
 4000W        W20261   5.446  17.788   4.056 -0.0305 -0.0453  0.0007
 4001W        W20262   1.299   1.829   3.464  0.0155 -0.1711 -0.0932
 4002W        W20263   1.241   2.827  12.815  0.0391  0.1543 -0.0446
 4003W        W20264  17.689   5.361  12.982  0.3817  0.2780  0.0240
 4004W        W20265  15.559   5.942  13.788 -0.1085  0.1619 -0.0471
 4005W        W20266  15.478   0.865   0.922  0.4145 -0.0685  0.2074
 4006W        W20267   9.668   1.892   1.531 -0.0644  0.1187  0.0650
 4007W        W20268   9.880  10.529  16.572  0.0018 -0.0566 -0.2582
 4008W        W20269  11.070  14.845  16.524  0.2348 -0.7068  0.2524
 4009W        W20270  15.807   8.121   0.545 -0.0936  0.3411 -0.1449
 4010W        W20271  12.879   5.108  13.161  0.3588 -0.1064 -0.1236
 4011W        W20272  15.808  10.184   3.143 -0.1466  0.1782 -0.0442
 4012W        W20273   8.612   6.602   0.248  0.2456  0.0684  0.2432
 4013W        W20274   7.088  12.898   1.037  0.0859  0.1691 -0.1143
 4014W        W20275  10.815  10.388   2.218  0.1377 -0.1102  0.1901
 4015W        W20276  15.677  13.049  12.925  0.2574 -0.1006 -0.0366
 4016W        W20277  10.515   6.392  15.622 -0.3277  0.1367  0.0081
 4017W        W20278  15.659   3.029  12.829 -0.0577 -0.2019  0.2010
 4018W        W20279   6.387   9.955  11.487  0.0280  0.1857  0.0226
 4019W        W20280  12.591   1.318   2.197 -0.1089 -0.2421 -0.1419
 4020W        W20281  11.199  13.527   0.848 -0.0141 -0.0755 -0.1926
 4021W        W20282   0.235  16.308   5.212 -0.0419  0.1819 -0.4502
 4022W        W20283  13.580   1.895   1.763 -0.1101 -0.2013  0.0524
 4023W        W20284   6.182   9.885   6.488  0.0372 -0.0196  0.0253
 4024W        W20285  13.717  11.000  13.331 -0.1167 -0.1405 -0.0708
 4025W        W20286  16.830   3.401  15.999  0.1534  0.2176 -0.2841
 4026W        W20287   3.423   2.461  11.875  0.2734  0.1180  0.1875
 4027W        W20288   3.550  11.099   0.923 -0.3879  0.0925 -0.0065
 4028W        W20289  15.732   3.648  16.551  0.1713 -0.0271 -0.0795
 4029W        W20290  14.356  14.518   2.191  0.0441  0.0959 -0.0677
 4030W        W20291  15.648  13.032  14.155  0.0463 -0.2648 -0.1043
 4031W        W20292   6.035   0.050  14.147 -0.1208 -0.1595 -0.0188
 4032W        W20293   9.916  13.163   5.241  0.0758 -0.1296 -0.0291
 4033W        W20294  13.909   2.342   6.451 -0.1785 -0.3212  0.0789
 4034W        W20295   2.995   3.771  13.640 -0.2699  0.2058 -0.0929
 4035W        W20296  17.795   1.036  14.666  0.1325 -0.0001  0.1474
 4036W        W20297  12.734   1.479  12.859  0.1820 -0.1789  0.1498
 4037W        W20298  15.215  10.971  12.629 -0.1316  0.0161 -0.2182
 4038W        W20299   9.435   4.782   0.873  0.1212 -0.0329  0.2026
 4039W        W20300   1.278  14.487  16.952 -0.3380  0.0721 -0.1955
 4040W        W20301  11.292  13.912   4.469 -0.1032 -0.0147 -0.2502
 4041W        W20302   2.540   5.791  14.683  0.0264  0.0383 -0.0331
 4042W        W20303   8.166  14.148   0.890  0.1248 -0.0658  0.1163
 4043W        W20304   5.931  10.140   0.626 -0.3456 -0.2331  0.3404
 4044W        W20305   0.876   3.273  16.367 -0.1790  0.0391 -0.2809
 4045W        W20306   6.744   7.366  14.982 -0.2857 -0.1598 -0.0677
 4046W        W20307  14.396   5.060   3.154  0.3756  0.0280 -0.3321
 4047W        W20308   9.845   4.411  14.075 -0.1841 -0.2759 -0.1696
 4048W        W20309  12.795   5.499   3.166 -0.0637 -0.2337 -0.0173
 4049W        W20310   0.152  12.949  13.187  0.0318 -0.0283  0.0485
 4050W        W20311  16.617  13.462   0.671 -0.0927  0.0504 -0.0750
 4051W        W20312  14.743  14.453  12.886  0.1528 -0.1176 -0.2123
 4052W        W20313   2.696  10.882  11.366 -0.1006 -0.0959  0.0640
 4053W        W20314   4.047   3.444  14.293  0.2247 -0.0926  0.0234
 4054W        W20315   0.071   1.527  14.533  0.1483  0.3141 -0.0572
 4055W        W20316   1.568  15.659   6.209  0.2839  0.0725  0.1082
 4056W        W20317  13.582   6.209  15.320 -0.0491 -0.0617 -0.1406
 4057W        W20318   7.224   7.809  12.967 -0.0841 -0.1014 -0.2048
 4058W        W20319   2.493   1.857  14.711  0.2372 -0.1613  0.0358
 4059W        W20320  15.566  15.647  13.532 -0.2696  0.0346  0.1561
 4060W        W20321  15.506  14.239  15.479 -0.1953  0.2915 -0.2252
 4061W        W20322  16.730  14.159   2.910  0.0999 -0.0817 -0.0875
 4062W        W20323   9.151   9.274   2.550  0.2324 -0.0641 -0.1285
 4063W        W20324   6.730  14.335   4.222 -0.0997 -0.0108  0.2181
 4064W        W20325   5.940   7.592  13.173 -0.0107  0.1577  0.2442
 4065W        W20326  14.575   6.480  14.056 -0.3138  0.2322  0.0925
 4066W        W20327  17.156   5.090   3.707  0.1564  0.2562 -0.3055
 4067W        W20328   1.793   3.529  12.463 -0.0326 -0.2632 -0.1290
 4068W        W20329  11.100   8.080  15.537 -0.2175  0.1195  0.0330
 4069W        W20330  12.813   2.255  13.272 -0.2666 -0.1251 -0.0025
 4070W        W20331   3.159  17.242   4.045 -0.3352  0.3888 -0.1015
 4071W        W20332   3.446   6.835  13.200  0.1414  0.0894 -0.4885
 4072W        W20333   6.717   5.831  14.072 -0.0750 -0.2907 -0.1332
 4073W        W20334  11.186   0.568   0.375 -0.0240  0.1614 -0.0121
 4074W        W20335  16.346   6.640  13.136  0.1070 -0.1957 -0.1593
 4075W        W20336   5.939  17.229  12.282  0.1172 -0.1676 -0.0736
 4076W        W20337  14.609   8.496   1.975  0.0641  0.1640  0.0883
 4077W        W20338  15.013   9.972  14.756 -0.0996 -0.0209 -0.1854
 4078W        W20339   1.490  14.873   1.488 -0.0261  0.0127  0.2861
 4079W        W20340   7.328   8.412   2.960  0.0296  0.3811  0.2008
 4080W        W20341  16.451   7.466  12.164 -0.0997  0.1062 -0.1350
 4081W        W20342   1.573   8.878  13.623  0.0769  0.0183  0.0098
 4082W        W20343  11.604   8.714   5.881  0.1395  0.0406 -0.3063
 4083W        W20344  15.052   9.108  15.172  0.0625  0.0472 -0.0486
 4084W        W20345   8.430   6.453   0.707 -0.2977  0.1252 -0.2023
 4085W        W20346   9.621  17.506  13.364 -0.1031  0.1690  0.0640
 4086W        W20347  16.559   4.047   5.031 -0.0543  0.2058 -0.1134
 4087W        W20348  14.368   1.641  16.310  0.1679 -0.2533  0.1891
 4088W        W20349   4.189  11.683  10.593 -0.2284  0.0373 -0.0646
 4089W        W20350   2.344  10.757  11.737 -0.0280 -0.0261 -0.0144
 4090W        W20351  15.434  15.222   2.580 -0.2696 -0.1653 -0.1851
 4091W        W20352   3.451   7.932  13.793  0.2192  0.0788 -0.1160
 4092W        W20353  14.285   0.604  11.080 -0.0925 -0.0812 -0.2638
 4093W        W20354   1.840  16.803   3.815  0.2940  0.3743  0.3215
 4094W        W20355  16.509   2.523  16.198  0.0256  0.0816  0.1689
 4095W        W20356  16.119   2.148  16.921  0.3010 -0.2982  0.0024
 4096W        W20357  13.922  13.325  15.442  0.2252  0.0047  0.2296
 4097W        W20358   8.955  16.723  15.922 -0.0247  0.0220 -0.1210
 4098W        W20359   0.629   6.237  13.232 -0.0433 -0.1183 -0.2590
 4099W        W20360   1.865  13.853   4.210 -0.3629 -0.4077  0.4431
 4100W        W20361  15.366  12.823  13.725 -0.4966  0.3314 -0.3439
 4101W        W20362   2.253   0.912   3.384  0.0741  0.0523 -0.0449
 4102W        W20363   2.294  15.230   0.503  0.5335  0.0647 -0.2555
 4103W        W20364   1.222   5.349   2.347  0.1423 -0.2137  0.1626
 4104W        W20365  16.846   4.138   5.797 -0.0242  0.0234 -0.2006
 4105W        W20366   9.690   3.508   5.050  0.1153  0.3877  0.1890
 4106W        W20367   7.280   1.493   4.250 -0.1246 -0.1123 -0.1075
 4107W        W20368  17.344   3.208   2.491 -0.0038 -0.2424  0.1623
 4108W        W20369   2.370  17.407  16.867  0.0534  0.3332 -0.1301
 4109W        W20370   3.137   2.630   1.432  0.0206 -0.0984 -0.0083
 4110W        W20371   5.136  14.789  13.423 -0.0452  0.2050  0.0371
 4111W        W20372  13.753  15.035  15.889  0.1056 -0.0060  0.2311
 4112W        W20373   7.783   1.071   3.684  0.2324 -0.1271 -0.0719
 4113W        W20374   4.762   5.350   2.869 -0.0749 -0.1809 -0.2311
 4114W        W20375   5.484  14.029   4.453 -0.1839  0.0173  0.1506
 4115W        W20376  15.875  10.480   0.981  0.0624  0.0294  0.0817
 4116W        W20377   8.810   0.022   2.760  0.0390 -0.0716 -0.2832
 4117W        W20378   5.255  10.990  12.794  0.2833  0.0926 -0.0310
 4118W        W20379   8.751   8.635  15.954  0.0082  0.0990  0.0368
 4119W        W20380   2.977   1.245  16.478  0.2481  0.0347 -0.3287
 4120W        W20381   2.313  11.849   3.468  0.1897  0.0971 -0.4052
 4121W        W20382  15.541  11.883  11.718 -0.3040 -0.0561  0.0355
 4122W        W20383  10.049   1.980  12.119 -0.1903 -0.1009  0.2237
 4123W        W20384  17.799  13.203  16.772  0.1270  0.1930 -0.0380
 4124W        W20385  11.371  10.244   3.817  0.1873 -0.0261  0.1498
 4125W        W20386   2.606  15.884  16.761  0.0751  0.2947  0.0896
 4126W        W20387  11.561   4.120  13.733  0.0147 -0.0615 -0.3244
 4127W        W20388  13.079   9.841  13.920  0.0711 -0.1023  0.2144
 4128W        W20389  11.924   1.568   3.774 -0.1097  0.0780  0.2199
 4129W        W20390   5.771   0.951   4.967  0.0530  0.1019  0.1340
 4130W        W20391   9.680  10.812  12.983 -0.0828 -0.2084  0.1093
 4131W        W20392   1.755   6.692   6.253  0.1889 -0.0497 -0.2423
 4132W        W20393  15.003   6.229  13.898  0.0812 -0.2369 -0.0139
 4133W        W20394   6.526   6.392   3.805 -0.1274  0.0110  0.3784
 4134W        W20395   3.264  15.481   4.718 -0.0800 -0.5942 -0.1167
 4135W        W20396  17.740  10.315  12.787  0.2027 -0.3896 -0.2789
 4136W        W20397  14.683   3.692   0.958  0.1176  0.0912 -0.2799
 4137W        W20398   4.419  12.493  15.917  0.1564  0.1332  0.2951
 4138W        W20399  12.162  15.474   3.880  0.1633  0.0224 -0.1120
 4139W        W20400  17.614  10.857   0.472 -0.3382  0.2201 -0.1705
 4140W        W20401   0.233   8.201   4.437 -0.0246 -0.0728 -0.0596
 4141W        W20402  13.892   1.522  11.511  0.1522 -0.1611 -0.1664
 4142W        W20403   3.974  11.528  12.722  0.3029  0.2715 -0.4029
 4143W        W20404   1.258   4.722  15.877 -0.0938 -0.1933 -0.0605
 4144W        W20405  10.019   0.375  13.677 -0.3169  0.1243  0.1477
 4145W        W20406  16.406  13.657   0.105  0.2541  0.0544 -0.2219
 4146W        W20407  15.097   0.724   2.861 -0.0513 -0.3649  0.3428
 4147W        W20408  15.729   5.476  16.884  0.0176  0.3049  0.2491
 4148W        W20409   5.822   0.164  15.413 -0.1740 -0.0674  0.0899
 4149W        W20410  14.202   8.778  12.493 -0.3263  0.3826 -0.0514
 4150W        W20411   8.244  15.259  12.105  0.0705 -0.0032  0.0805
 4151W        W20412  15.335  14.073   3.033 -0.1218  0.0506 -0.2209
 4152W        W20413   9.324  11.817  12.251 -0.1184 -0.1473 -0.2334
 4153W        W20414  15.028  10.790  15.344  0.0361  0.1143  0.4868
 4154W        W20415  12.800   3.334   1.030  0.0995 -0.0794  0.3704
 4155W        W20416  11.068   4.516   3.640  0.1472 -0.1582  0.0135
 4156W        W20417   2.571   4.903   0.133  0.0134  0.2845 -0.0436
 4157W        W20418   9.734   4.826   5.695 -0.0283 -0.1234  0.1228
 4158W        W20419   2.864  16.944   0.816 -0.1869  0.1802 -0.0205
 4159W        W20420  15.456   4.919  12.673 -0.0043  0.2344  0.0241
 4160W        W20421  15.076  12.746   2.194 -0.0342 -0.0713 -0.1705
 4161W        W20422   2.671  14.091  11.799  0.0205  0.0268 -0.1776
 4162W        W20423   2.193   4.857   2.859 -0.2694  0.2941 -0.0258
 4163W        W20424   4.449   7.039  15.045 -0.0859 -0.1600 -0.0107
 4164W        W20425   3.940  16.988  12.503  0.0275 -0.2250 -0.0442
 4165W        W20426   4.668   4.252   5.487  0.1577 -0.2762  0.0712
 4166W        W20427   5.170   3.471  16.963 -0.0884  0.0963  0.0118
 4167W        W20428   0.808  10.014  14.738 -0.0564 -0.0062  0.1722
 4168W        W20429  12.454   1.884   5.324 -0.1089 -0.0476  0.0683
 4169W        W20430   1.612   0.906   2.969  0.1154 -0.1165 -0.1208
 4170W        W20431  15.118   5.634  16.457  0.0213 -0.0580 -0.1286
 4171W        W20432  12.945   7.027  15.324  0.1926 -0.0617 -0.1180
 4172W        W20433  15.294  13.688   3.343  0.0408  0.1113  0.1314
 4173W        W20434  12.914  14.641   4.982 -0.3815  0.3244 -0.0986
 4174W        W20435   4.940   0.845  15.981 -0.1781 -0.0558 -0.4300
 4175W        W20436   4.084   3.650  13.805 -0.1024  0.0352 -0.1316
 4176W        W20437   6.336  12.867  11.435 -0.1200 -0.2677 -0.1380
 4177W        W20438   7.666   7.238  13.413 -0.1486  0.0009 -0.0579
 4178W        W20439  10.803   5.483   5.900  0.0601 -0.2002  0.1470
 4179W        W20440  15.191  17.818  12.502  0.0830  0.2078 -0.4771
 4180W        W20441   0.823   3.947  15.784  0.0770  0.0885 -0.2802
 4181W        W20442  13.245   9.171  12.682  0.3585 -0.0267  0.1385
 4182W        W20443   8.013  16.408  11.304 -0.1569 -0.0939 -0.0312
 4183W        W20444  17.263   7.470  14.691 -0.1667 -0.0426 -0.2659
 4184W        W20445  10.875   5.048  12.900  0.0808 -0.0086  0.2322
 4185W        W20446   1.021   8.089   4.883 -0.1978 -0.0403  0.1823
 4186W        W20447   9.019   4.620  12.731 -0.0366 -0.0668 -0.0437
 4187W        W20448   4.479   4.798  15.771 -0.4073  0.0885 -0.0959
 4188W        W20449  12.527   2.422  12.378 -0.3969  0.0179  0.0780
 4189W        W20450  16.808  17.104   2.751 -0.0733  0.0154 -0.1310
 4190W        W20451   3.563   3.420   5.481 -0.1995  0.0106 -0.1314
 4191W        W20452   9.318   5.656   5.555 -0.0387 -0.1533 -0.0401
 4192W        W20453  12.697  14.256   4.767 -0.1302  0.0206 -0.0731
 4193W        W20454   4.904   4.470   3.359 -0.1315 -0.1696 -0.1475
 4194W        W20455  14.627  11.158   0.036  0.1271  0.0114  0.0740
 4195W        W20456  10.167  10.759   4.204  0.3358  0.0136  0.1628
 4196W        W20457  13.523  16.689  12.953 -0.0901  0.2093  0.1077
 4197W        W20458   5.039  12.750  11.607 -0.0378 -0.0165 -0.1276
 4198W        W20459  10.020  16.701   1.191  0.3702 -0.2927 -0.1056
 4199W        W20460   8.734   7.997  15.196  0.2427  0.1020  0.2715
 4200W        W20461   8.039  14.612   1.302 -0.0949  0.0575 -0.2656
 4201W        W20462  13.974   5.967   5.023 -0.3296 -0.0733  0.0501
 4202W        W20463  12.083  14.369   1.801  0.2792 -0.0122 -0.0283
 4203W        W20464   6.732  10.380   5.996  0.2939  0.1517 -0.0309
 4204W        W20465   3.361  14.969  14.837 -0.0973 -0.0415  0.0053
 4205W        W20466   4.314  17.468   1.967 -0.1650 -0.0860 -0.0348
 4206W        W20467  16.341   3.541   4.479  0.0608  0.1976 -0.5095
 4207W        W20468  14.023   9.998   2.198 -0.1658 -0.3124  0.1160
 4208W        W20469   3.073   5.952  14.345  0.1703 -0.3722  0.2559
 4209W        W20470  12.295  11.483   1.553  0.0276  0.0754 -0.0091
 4210W        W20471  16.595  12.860   3.607  0.1124 -0.2673  0.3114
 4211W        W20472   8.875   6.960  16.300 -0.1179  0.0781  0.3988
 4212W        W20473  16.043   6.221   3.353 -0.0757  0.0810  0.0362
 4213W        W20474  12.073  17.823  16.810 -0.2193 -0.1179 -0.2314
 4214W        W20475  17.499   6.529  16.737  0.0291 -0.0407 -0.0056
 4215W        W20476  10.619  17.170   5.335  0.2032  0.2462  0.0069
 4216W        W20477  13.117  16.989  14.011 -0.0617 -0.2438 -0.2542
 4217W        W20478  16.382   3.173   1.089  0.2779 -0.2762  0.1884
 4218W        W20479   8.005   2.691  15.217  0.2860  0.0883 -0.1134
 4219W        W20480   7.053   6.016  14.962 -0.3332  0.2122 -0.0760
 4220W        W20481  17.350  11.056  12.768  0.1901 -0.0072 -0.0654
 4221W        W20482  16.532   8.464  11.701  0.0409  0.0908  0.0659
 4222W        W20483  12.536  15.826   0.064  0.0669  0.0407 -0.0782
 4223W        W20484  16.704   3.435   5.317 -0.2078 -0.0816  0.0299
 4224W        W20485   2.178  16.101   4.301 -0.2161  0.1509 -0.0773
 4225W        W20486   8.679   5.996  16.370  0.4971 -0.0690  0.1940
 4226W        W20487  10.952  13.075   3.039 -0.3191 -0.0222 -0.1486
 4227W        W20488  16.542   9.116   4.557 -0.3018 -0.0902  0.3972
 4228W        W20489  17.722   9.009  13.273 -0.1875  0.1224 -0.2336
 4229W        W20490  12.388  17.500  16.390 -0.1938 -0.0541  0.1748
 4230W        W20491  12.553   3.953   6.089  0.0927  0.3568 -0.1358
 4231W        W20492  10.428  14.040   0.981  0.1770  0.0565 -0.1467
 4232W        W20493  13.257   2.944   1.540 -0.1433 -0.1897 -0.1107
 4233W        W20494   5.351  16.054  12.573  0.0741 -0.0075  0.1433
 4234W        W20495   5.098  13.788   4.205 -0.0198  0.0660 -0.1169
 4235W        W20496   5.770   8.520   1.060 -0.0638  0.0507 -0.2782
 4236W        W20497  15.701  17.629   1.990  0.2527  0.2939  0.0422
 4237W        W20498   7.994   5.100   2.857 -0.1660 -0.0571 -0.3154
 4238W        W20499   8.446   4.583   5.386 -0.2642  0.0616 -0.1314
 4239W        W20500  11.324   6.778   5.575 -0.0836  0.3470  0.2670
 4240W        W20501   3.370  11.945   1.287  0.0642  0.2789  0.0534
 4241W        W20502  15.517  14.284  15.993 -0.1157 -0.2933 -0.2008
 4242W        W20503  10.102  12.665   5.999  0.0509 -0.2389 -0.2042
 4243W        W20504  11.752   8.144   4.041  0.2233 -0.1385  0.1370
 4244W        W20505   9.220   3.383   0.903 -0.0247 -0.0107  0.2646
 4245W        W20506  11.541  13.698  14.433  0.0775 -0.5278 -0.0803
 4246W        W20507  15.816   4.103   1.274 -0.0503 -0.3592 -0.1547
 4247W        W20508   4.508   3.110  12.884 -0.1550  0.0206  0.1484
 4248W        W20509   2.845   3.549  14.954  0.1568 -0.0563  0.2799
 4249W        W20510   0.565   6.885  16.671  0.2208  0.2012 -0.1539
 4250W        W20511  17.407   2.787   1.997 -0.3282 -0.2260 -0.0732
 4251W        W20512   5.040   2.406   3.103 -0.1494  0.3831 -0.0876
 4252W        W20513   6.694   8.124   4.448  0.0518  0.1131 -0.4547
 4253W        W20514   4.339  10.120   0.314 -0.2235  0.2387 -0.2893
 4254W        W20515  13.756   0.572   2.347  0.1670  0.2118 -0.1944
 4255W        W20516   4.988  17.188   3.312  0.2101  0.0734  0.0783
 4256W        W20517  14.350  17.145   2.643 -0.0268 -0.2010  0.0801
 4257W        W20518  11.753   2.902   5.432 -0.0554  0.3411 -0.3621
 4258W        W20519   7.184  13.751   3.398 -0.0198 -0.0417 -0.0789
 4259W        W20520   2.217   9.991   0.323 -0.0209  0.3707 -0.1354
 4260W        W20521  17.217   2.957  12.592  0.1042  0.1968 -0.0476
 4261W        W20522  10.117   7.059   4.520  0.0672 -0.3481 -0.1472
 4262W        W20523  15.037  12.304   4.128 -0.4903 -0.3342  0.1154
 4263W        W20524  16.257  11.495   3.297  0.1449 -0.3212 -0.1624
 4264W        W20525   2.495  11.311  11.629 -0.0948  0.1978 -0.4162
 4265W        W20526  10.426   9.940  15.578  0.0346  0.0742  0.0320
 4266W        W20527  12.021   8.956   2.670 -0.2651 -0.3013 -0.1452
 4267W        W20528   8.806  16.608  11.423 -0.0037 -0.0477 -0.2290
 4268W        W20529  12.593   0.511  15.797  0.0636  0.0776  0.2411
 4269W        W20530  17.581  12.802   0.031  0.2490 -0.0549 -0.0150
 4270W        W20531   8.722  14.730  14.479  0.0702  0.3293  0.0448
 4271W        W20532   8.897  15.931  16.318  0.1113 -0.0858 -0.3165
 4272W        W20533  12.192   4.378   2.234  0.3163 -0.1381  0.3045
 4273W        W20534  15.815   1.298  15.976  0.2553 -0.1904  0.0498
 4274W        W20535   5.450   8.154   3.156  0.0297  0.0633 -0.0238
 4275W        W20536  11.182   5.227   6.123  0.2165  0.3687 -0.4254
 4276W        W20537   5.211   9.225  13.501  0.1291 -0.0817  0.0374
 4277W        W20538   9.109   5.330  14.300  0.1489 -0.2277 -0.0598
 4278W        W20539   8.217   0.936   3.955 -0.0330  0.1035 -0.2928
 4279W        W20540  16.160   0.064   1.894 -0.3843  0.1984 -0.2172
 4280W        W20541  10.156   1.377   2.124 -0.2222  0.0351  0.1929
 4281W        W20542  13.754   6.404   2.279 -0.2879  0.0545  0.4333
 4282W        W20543  14.575   7.541  14.944 -0.1004  0.0896  0.0692
 4283W        W20544   8.196  12.272   3.481  0.0807  0.0330 -0.1872
 4284W        W20545  11.557  14.450   2.411  0.1913 -0.3792  0.0802
 4285W        W20546  11.002   4.818   1.335  0.0296 -0.0218  0.0697
 4286W        W20547   5.816  16.765  13.254  0.1425 -0.2634 -0.0888
 4287W        W20548  10.833   6.541   5.598  0.7272  0.2065 -0.0774
 4288W        W20549   1.087   7.781   5.749  0.0510  0.0287  0.0944
 4289W        W20550   9.255   1.418   4.748 -0.0763 -0.2459  0.0038
 4290W        W20551  10.704   2.124  13.397  0.0988 -0.0597 -0.2158
 4291W        W20552   4.802   1.668  16.437 -0.1128 -0.1477  0.2367
 4292W        W20553  12.163  12.178   0.101 -0.0905  0.0346  0.1198
 4293W        W20554  13.550  16.694   3.373 -0.0907 -0.2532 -0.2067
 4294W        W20555  15.183  13.754   1.903 -0.1820 -0.2666  0.0062
 4295W        W20556  15.763   1.216  16.951  0.0383  0.2345 -0.0694
 4296W        W20557  12.842   0.572  13.836  0.0849 -0.1386 -0.1081
 4297W        W20558  10.158  17.701   4.627 -0.2196 -0.1527 -0.2306
 4298W        W20559   4.689  10.020   2.618  0.1035  0.1991 -0.1343
 4299W        W20560   5.012  10.069   0.437  0.1644  0.1815 -0.2693
 4300W        W20561   2.780   8.028   1.845  0.0614  0.2219 -0.2594
 4301W        W20562   1.774   4.600   4.576  0.0297  0.2320 -0.2154
 4302W        W20563  11.023   7.790   2.111 -0.0581 -0.1701  0.1238
 4303W        W20564  15.975   3.933   5.823 -0.0910  0.0218  0.1479
 4304W        W20565  13.167  14.110   2.861 -0.0299 -0.0973  0.1645
 4305W        W20566  15.954  10.033   5.548  0.0640 -0.2224 -0.0440
 4306W        W20567  12.723   7.448  15.090  0.3751  0.0090 -0.2387
 4307W        W20568   3.908  13.134  13.174 -0.1539 -0.1348  0.0666
 4308W        W20569   7.420   9.080   0.565 -0.0441  0.0732 -0.1022
 4309W        W20570  10.616   2.343  15.321 -0.1522 -0.1785 -0.0331
 4310W        W20571  15.163  16.660  14.298  0.1414  0.1930  0.0467
 4311W        W20572  17.646   9.219  16.040 -0.0272  0.1108 -0.0304
 4312W        W20573   9.129   6.771   5.036  0.1970 -0.1137  0.0666
 4313W        W20574  15.394   4.627  16.658  0.0238  0.0237  0.2169
 4314W        W20575   0.251   7.690  15.034 -0.1887 -0.1859 -0.0278
 4315W        W20576  15.981   9.778   3.843 -0.0685 -0.1251 -0.0705
 4316W        W20577   2.631   4.728   4.400  0.2145  0.0502 -0.0166
 4317W        W20578   9.640  10.444  12.568 -0.3132 -0.2083  0.0071
 4318W        W20579   5.006   3.069   3.052  0.1571  0.0920  0.2524
 4319W        W20580  11.315  13.865   5.001 -0.1653 -0.2156  0.0415
 4320W        W20581   9.183  12.415   5.135 -0.0772  0.3443 -0.0753
 4321W        W20582   1.766   4.425  15.953  0.2455 -0.0516 -0.0485
 4322W        W20583   7.017   4.442   3.480  0.3377 -0.1230 -0.0248
 4323W        W20584   8.274  12.335  13.624 -0.2449  0.0025 -0.1141
 4324W        W20585   5.785   1.428   1.078  0.1514 -0.1055  0.2336
 4325W        W20586  16.578   0.722  13.784  0.3790 -0.2457  0.2110
 4326W        W20587   2.608   4.548   3.551 -0.2960 -0.0521  0.5629
 4327W        W20588   5.249   8.942   1.034 -0.2240 -0.1886  0.0068
 4328W        W20589  16.969  12.180  16.730 -0.4661  0.0830 -0.1747
 4329W        W20590   7.028  15.158   4.046  0.0283 -0.0158 -0.0424
 4330W        W20591  15.397   1.065  15.601 -0.1588 -0.2811  0.1138
 4331W        W20592  17.204   8.713   4.902 -0.1708  0.1221 -0.1474
 4332W        W20593  16.689  10.109   4.865  0.2968 -0.3595 -0.2655
 4333W        W20594   6.532   5.603   0.317 -0.2757 -0.0699  0.1225
 4334W        W20595   2.850   2.949  14.131  0.3215  0.0670 -0.3367
 4335W        W20596  16.797  15.936  13.467 -0.3916 -0.2436  0.1001
 4336W        W20597  16.568   0.333  15.873 -0.3008  0.2209 -0.2222
 4337W        W20598   0.539   1.347   2.780  0.2363 -0.1875  0.2085
 4338W        W20599   4.090  14.412  16.129  0.1379 -0.0670  0.2605
 4339W        W20600  10.295  12.678   1.740 -0.1088  0.1333  0.0319
 4340W        W20601   9.505   2.767   2.538  0.2371  0.3348 -0.1218
 4341W        W20602  17.678  13.269   4.227 -0.1389  0.2159  0.3258
 4342W        W20603   1.390  13.812   4.914 -0.0795 -0.1859 -0.2947
 4343W        W20604   7.058   0.019  15.614  0.2865  0.3278 -0.0651
 4344W        W20605   3.052   7.894   5.482  0.1582 -0.3688 -0.1968
 4345W        W20606   0.422  17.528   3.221  0.1892  0.1206  0.1276
 4346W        W20607   2.346   2.988   5.575  0.1202  0.2186  0.0432
 4347W        W20608  17.072   9.865  16.751 -0.2188 -0.1332 -0.1655
 4348W        W20609   1.312  10.338   3.826 -0.4202 -0.1868 -0.2998
 4349W        W20610  17.262   1.889  11.753 -0.0516  0.0761  0.0024
 4350W        W20611   6.320   1.396  15.940 -0.1880  0.2024  0.0353
 4351W        W20612  17.787  17.080   5.301 -0.0728  0.0520  0.1235
 4352W        W20613  11.456  12.162   4.147  0.2003 -0.0827 -0.0145
 4353W        W20614   3.689  16.847  12.863  0.1829  0.0284 -0.1948
 4354W        W20615  11.289   6.291   3.255  0.0579  0.0482 -0.0740
 4355W        W20616   8.689   5.661   2.026  0.1607 -0.1255  0.1299
 4356W        W20617  12.774   9.174   0.916  0.2450 -0.0772 -0.1401
 4357W        W20618  16.143  13.366   2.909 -0.1109  0.1409 -0.0070
 4358W        W20619   4.585  17.579   5.098  0.2175  0.1102  0.0488
 4359W        W20620  14.702  15.201  15.954 -0.0775  0.2349  0.4206
 4360W        W20621   6.093   4.216   3.733  0.2302  0.0094 -0.2293
 4361W        W20622  12.265   8.600   6.473 -0.0754  0.2181  0.2155
 4362W        W20623   4.926   4.846   4.231  0.0244  0.1205  0.0840
 4363W        W20624   4.894  12.586   3.516  0.0392  0.2234  0.1503
 4364W        W20625   7.717   5.768  16.286  0.0447 -0.0880 -0.0937
 4365W        W20626  12.071   9.464  13.947  0.0287  0.1638 -0.1363
 4366W        W20627   8.812  14.177   1.725 -0.2709 -0.0999 -0.0555
 4367W        W20628  12.285   9.468   1.569  0.3634  0.0345 -0.5423
 4368W        W20629   5.345  15.369  15.203  0.0272  0.0988 -0.0609
 4369W        W20630  15.705   4.036  12.583 -0.1631  0.2066 -0.0893
 4370W        W20631   0.362  14.889   2.308  0.0152 -0.0189 -0.0622
 4371W        W20632   8.854   0.609   3.241 -0.0402 -0.0916 -0.1196
 4372W        W20633   6.883   7.284  11.824  0.0062 -0.2541  0.2781
 4373W        W20634  14.710  11.090  14.062 -0.3234  0.2124 -0.1770
 4374W        W20635  17.062  10.706  13.619 -0.0098 -0.1087 -0.0473
 4375W        W20636   5.096  10.217   2.971  0.2401  0.1791  0.0456
 4376W        W20637  17.164  13.218   5.216  0.1820 -0.0511 -0.0487
 4377W        W20638  13.482  16.176   3.155 -0.1765 -0.1336  0.0890
 4378W        W20639   2.383   1.272   0.672  0.1047 -0.0290  0.0713
 4379W        W20640  12.899   3.614  12.594  0.0910 -0.3164  0.1036
 4380W        W20641   4.123   5.402   4.996  0.1675 -0.1302  0.0949
 4381W        W20642   0.702  15.701  13.323 -0.2764 -0.0081 -0.2043
 4382W        W20643   2.681   9.209  13.688 -0.2033  0.0544 -0.0376
 4383W        W20644  15.463   9.555  16.014  0.0992 -0.2357 -0.2181
 4384W        W20645  13.518   7.197  11.850  0.1427 -0.1348 -0.0354
 4385W        W20646  12.422   0.262  13.994 -0.1399 -0.2346  0.2247
 4386W        W20647  12.434   6.560  12.315 -0.1541  0.0915  0.1472
 4387W        W20648   6.976   7.518   5.577 -0.0473  0.1573 -0.0137
 4388W        W20649   1.314   3.143  13.223 -0.2509  0.1216 -0.3198
 4389W        W20650   4.486   1.552   1.519 -0.2228 -0.2274 -0.3893
 4390W        W20651   0.498  11.539   4.756 -0.0787 -0.2801  0.0029
 4391W        W20652   2.159  10.268   5.810 -0.2083 -0.2581 -0.1958
 4392W        W20653   6.066   8.658   3.328 -0.1008  0.0052  0.0357
 4393W        W20654  11.558   8.494   5.369 -0.0592  0.0647 -0.5358
 4394W        W20655   3.181   1.267  15.824 -0.2627  0.4959 -0.1912
 4395W        W20656  15.648  14.886  16.696  0.0863 -0.0190  0.1703
 4396W        W20657   0.784   9.800  12.946  0.0499 -0.3259 -0.1946
 4397W        W20658   8.217  12.120   0.304 -0.1935 -0.1264  0.0481
 4398W        W20659  12.923   6.023   5.765  0.2989  0.2160 -0.2565
 4399W        W20660   2.463   1.385  16.314 -0.1030  0.0561 -0.0825
 4400W        W20661   8.647   0.304   0.394 -0.1959 -0.0339 -0.1203
 4401W        W20662   3.076  16.127   1.384  0.0649  0.1603  0.0067
 4402W        W20663   8.292   5.100  14.659 -0.1338  0.1048 -0.0442
 4403W        W20664   2.653  14.565  11.609  0.1736 -0.2060  0.0374
 4404W        W20665   4.872  11.289  16.889  0.3983  0.1520 -0.0729
 4405W        W20666   4.403   1.878   2.553 -0.1150  0.0260  0.4142
 4406W        W20667  13.136   5.977  16.625 -0.0634 -0.0598 -0.1133
 4407W        W20668   8.786  10.572  14.529 -0.0299 -0.2171  0.3746
 4408W        W20669  10.019   8.939  12.832  0.1868  0.2031  0.1591
 4409W        W20670   1.376  12.851  12.230  0.1500 -0.4488 -0.0803
 4410W        W20671  11.732   9.795  15.563  0.0322 -0.0932  0.3244
 4411W        W20672   7.303   0.061   1.439 -0.1237 -0.0197  0.2747
 4412W        W20673   6.013   5.422  13.284 -0.1184 -0.1420  0.0384
 4413W        W20674   1.569   7.198  14.066 -0.1836  0.0930  0.1145
 4414W        W20675  14.220   7.698  13.246  0.1130  0.0655 -0.1359
 4415W        W20676  12.052  10.572   2.947  0.1695  0.1031  0.1323
 4416W        W20677   8.705  12.252  16.444 -0.0027 -0.1534  0.1723
 4417W        W20678  17.090   8.002  15.031 -0.0642  0.3116 -0.0590
 4418W        W20679  17.827  17.723   3.859  0.0700 -0.2057  0.0069
 4419W        W20680  15.095   4.874  14.243  0.1176 -0.0445 -0.3242
 4420W        W20681  10.613  10.375  13.694  0.2994 -0.3069 -0.0680
 4421W        W20682  10.489   6.718   4.396  0.1401  0.1462 -0.3292
 4422W        W20683  17.806   1.150   0.792  0.2300 -0.1188  0.1861
 4423W        W20684  16.444  10.473  16.954 -0.3797 -0.2824  0.0340
 4424W        W20685   7.208  12.832   2.664  0.1941  0.0156  0.2972
 4425W        W20686  12.283   7.798  12.912  0.2262  0.1063 -0.0249
 4426W        W20687   9.139  14.935  11.201  0.1324 -0.0453 -0.2770
 4427W        W20688  16.670   9.622  14.679  0.1173 -0.2265  0.1407
 4428W        W20689  15.996  11.314   1.221 -0.3439 -0.0928 -0.3342
 4429W        W20690  13.413   8.365   4.902 -0.0665  0.0739  0.1134
 4430W        W20691  15.836  12.724  16.825 -0.0231 -0.1199  0.0429
 4431W        W20692  14.230   0.238   5.628  0.1268  0.0577 -0.2474
 4432W        W20693  16.317  13.366   1.941 -0.3339  0.0505  0.1004
 4433W        W20694   9.195   1.313  15.290  0.1256  0.4619  0.3109
 4434W        W20695   0.020  15.550   1.277  0.0313  0.0629 -0.1242
 4435W        W20696  15.675  11.369   6.273  0.0296  0.0982 -0.0009
 4436W        W20697  17.306  14.716   5.768  0.4581  0.2608  0.1200
 4437W        W20698   1.385   6.385  13.966  0.0142  0.1468  0.2569
 4438W        W20699   2.468  15.649   0.888  0.0609  0.0872  0.2754
 4439W        W20700   6.653  11.944  15.882 -0.3947 -0.0456  0.2386
 4440W        W20701   4.176  11.107   5.675  0.0770  0.2174  0.1031
 4441W        W20702   6.913   6.025  12.537  0.0742 -0.0299  0.0743
 4442W        W20703   7.338   5.201  15.138  0.1435  0.0480 -0.1210
 4443W        W20704  16.248   7.522  13.041  0.1824  0.0233 -0.0620
 4444W        W20705   3.527   7.602   1.748 -0.0720  0.0614 -0.2609
 4445W        W20706   7.637   4.960  11.953 -0.2109 -0.0104  0.0801
 4446W        W20707   1.060   4.565  14.073  0.1488 -0.2720 -0.2254
 4447W        W20708   0.154  15.338  12.873 -0.4192 -0.0785 -0.0692
 4448W        W20709   6.497   7.074   0.579 -0.1286  0.0503  0.1317
 4449W        W20710  10.343  10.469  11.773  0.1985 -0.1560 -0.1607
 4450W        W20711  16.676  11.622   2.015  0.0803 -0.0120  0.1919
 4451W        W20712   2.178   3.154  15.151 -0.1075  0.2206  0.2354
 4452W        W20713   6.376   9.491  14.215  0.1135  0.0952  0.2446
 4453W        W20714   0.350   4.427  14.396 -0.1169 -0.3333  0.0577
 4454W        W20715   1.020   1.329  16.695 -0.2354  0.1784  0.0381
 4455W        W20716  11.343  17.780  11.931  0.1096  0.3562 -0.0855
 4456W        W20717  13.517  10.823  15.922 -0.0925  0.0251 -0.2225
 4457W        W20718   7.416   1.978  16.430 -0.1195  0.0818  0.1965
 4458W        W20719  11.104   6.431   5.212  0.0200 -0.4093  0.0314
 4459W        W20720   4.684   5.963  15.872  0.0085 -0.0269  0.1516
 4460W        W20721  12.026  11.136   1.882  0.0833  0.1734  0.0055
 4461W        W20722   7.773   1.945   1.267 -0.0700  0.0219 -0.0551
 4462W        W20723   3.443  11.065   1.982 -0.2870 -0.3853  0.0947
 4463W        W20724  16.225   5.838  13.277 -0.4007  0.2846 -0.0004
 4464W        W20725   2.835  17.442   0.913  0.0030  0.0169 -0.1509
 4465W        W20726  13.366   8.369  15.392 -0.0261 -0.0555 -0.1943
 4466W        W20727  16.458   7.698  15.676 -0.1202 -0.0184  0.0704
 4467W        W20728  17.132   6.845   5.611 -0.1787  0.3373  0.0891
 4468W        W20729   8.618   1.755  13.171 -0.2790  0.0655  0.4528
 4469W        W20730  16.018   5.028   5.658  0.2118  0.2023 -0.2230
 4470W        W20731   4.551   5.266   1.974  0.1722 -0.1947 -0.1530
 4471W        W20732   6.012  15.257   4.204 -0.5309 -0.0692 -0.1617
 4472W        W20733  13.456   5.338  11.765 -0.0296  0.0387  0.0109
 4473W        W20734  16.593  17.645  15.881 -0.0664 -0.2347 -0.3174
 4474W        W20735  15.604   3.190   2.847  0.1468  0.0006 -0.0041
 4475W        W20736   0.703   9.295  13.647 -0.1769 -0.2116 -0.1186
 4476W        W20737   1.858  10.617  16.872  0.0891 -0.0724  0.2504
 4477W        W20738  10.324  15.918   1.188  0.0382 -0.0797  0.2578
 4478W        W20739  10.014   8.022  15.591 -0.0056  0.1070  0.0388
 4479W        W20740   9.687   5.427   5.286  0.0238  0.0871 -0.0319
 4480W        W20741   6.196   9.389   1.038 -0.0622  0.0649 -0.4563
 4481W        W20742   9.382   8.467  16.026 -0.4370  0.1656 -0.0899
 4482W        W20743  17.756  11.013  16.931 -0.0074  0.4272 -0.0482
 4483W        W20744  17.183  11.757  15.375 -0.2548 -0.1339  0.2315
 4484W        W20745   1.708  10.792  13.409  0.1333 -0.0816  0.2973
 4485W        W20746   8.448  16.266   1.778 -0.2794 -0.0320  0.1608
 4486W        W20747   2.730  12.959  12.760 -0.2252 -0.0331  0.2473
 4487W        W20748  13.145  14.078   4.021 -0.0193 -0.0647 -0.2269
 4488W        W20749   8.321   8.361   5.633  0.2454 -0.0285  0.2707
 4489W        W20750  17.111  14.696   5.216  0.1245 -0.2606 -0.3469
 4490W        W20751   4.453  15.558  16.057 -0.0842 -0.0351  0.1936
 4491W        W20752  10.710   4.379   1.615 -0.1018 -0.1146 -0.1729
 4492W        W20753  11.276   4.621   0.978 -0.1278 -0.1859  0.0654
 4493W        W20754   9.192  16.169  12.156 -0.1390  0.0450  0.3195
 4494W        W20755  15.875   4.869  12.037  0.0432 -0.1085 -0.0892
 4495W        W20756  11.054   0.846   1.432 -0.2189 -0.0001 -0.1019
 4496W        W20757  14.047   8.692   4.116 -0.1955 -0.2202  0.1416
 4497W        W20758  11.271   5.419  12.390  0.2571  0.1667 -0.0607
 4498W        W20759   3.611  16.600   3.263 -0.2074 -0.1472  0.1635
 4499W        W20760   2.072  11.433   3.621  0.1220  0.0364 -0.0610
 4500W        W20761  12.582   8.739   5.195 -0.0031  0.3099 -0.1623
 4501W        W20762   2.413  17.772   1.196 -0.0931  0.0658 -0.2136
 4502W        W20763   4.238  11.583  16.027  0.1641 -0.0476  0.0182
 4503W        W20764  16.577  13.187   0.232 -0.2044 -0.1014 -0.0595
 4504W        W20765  13.813   7.889  14.220  0.0500  0.1522  0.1109
 4505W        W20766   1.070   3.131   3.358  0.0386 -0.0590  0.2165
 4506W        W20767  10.514   5.919   0.395  0.2647 -0.1306 -0.0589
 4507W        W20768   7.693  11.640   4.499  0.3691  0.1655  0.3540
 4508W        W20769   5.237  12.027   0.060 -0.1770  0.1058  0.2162
 4509W        W20770  13.468   7.555   0.575  0.0004 -0.2271  0.1479
 4510W        W20771  14.837  15.025  13.508 -0.1095  0.0423  0.1183
 4511W        W20772  14.539   8.882   4.309  0.0792  0.1133  0.0483
 4512W        W20773  11.443  16.880  15.268 -0.0755  0.0507  0.2286
 4513W        W20774  10.374   7.886   1.880  0.0360 -0.0175  0.2923
 4514W        W20775   8.896   9.606  11.982  0.2429 -0.2061  0.0938
 4515W        W20776  14.046  17.469  16.126 -0.0898  0.0455  0.3468
 4516W        W20777   6.776   9.164   1.661 -0.2514 -0.2642 -0.2811
 4517W        W20778   0.694  16.733   2.850  0.0463  0.1767  0.1896
 4518W        W20779  16.940  12.025   2.449 -0.1886 -0.0715 -0.2354
 4519W        W20780   8.631   7.863   4.622 -0.1607  0.1488  0.0584
 4520W        W20781  11.442  16.089  16.236 -0.0672  0.1202 -0.1386
 4521W        W20782  10.642   3.422   0.974 -0.1413  0.3310 -0.1225
 4522W        W20783   4.568   6.478   3.287 -0.0273 -0.1520  0.1872
 4523W        W20784  17.719  10.742   4.310  0.0128 -0.2859  0.3093
 4524W        W20785   1.186   5.725  11.870 -0.3067  0.0856 -0.0565
 4525W        W20786   6.407  15.328   4.673 -0.1496  0.1179  0.2078
 4526W        W20787   5.807   2.647  16.792 -0.1022  0.4252  0.0166
 4527W        W20788  17.664   7.500   1.691 -0.0093 -0.3905  0.0893
 4528W        W20789  11.672   4.269   4.785 -0.0099  0.1015 -0.3260
 4529W        W20790  10.135   8.901   4.136 -0.1518  0.2824  0.0253
 4530W        W20791   6.322   7.164  15.096 -0.0234  0.0854 -0.0198
 4531W        W20792   5.388   2.578  14.106  0.1680 -0.1586  0.1031
 4532W        W20793   7.366   0.258   4.789 -0.0059 -0.0086 -0.0294
 4533W        W20794  13.937  14.212   6.036  0.1447 -0.0114  0.0664
 4534W        W20795   6.130   9.396   5.070  0.0439 -0.1072  0.2829
 4535W        W20796   0.384   8.464   0.085 -0.4300  0.0476  0.3344
 4536W        W20797   1.795  11.328   4.957 -0.0532  0.0827  0.2665
 4537W        W20798  13.400   9.592  11.928 -0.1741 -0.0529 -0.1531
 4538W        W20799   4.180   1.947  15.643  0.0154  0.1303  0.1635
 4539W        W20800  15.028   6.988  12.326  0.0726  0.1329  0.2058
 4540W        W20801   9.967   5.928   0.085 -0.3335 -0.0149  0.1537
 4541W        W20802   4.369   7.961  12.679 -0.3263  0.0832  0.0052
 4542W        W20803   8.833   8.712   1.414  0.2343 -0.2085 -0.0704
 4543W        W20804  13.280  14.793  15.884  0.0993 -0.0956 -0.0199
 4544W        W20805   3.670   6.387   2.117 -0.2187 -0.2790  0.1009
 4545W        W20806   0.479  11.952  14.824  0.1039 -0.0465 -0.0007
 4546W        W20807   2.456  10.976  13.915  0.2774 -0.2996  0.0142
 4547W        W20808   2.304  11.291   0.172 -0.1674 -0.2184 -0.1179
 4548W        W20809   0.306  11.021  15.336  0.0566  0.1706  0.1047
 4549W        W20810  15.977   5.896   3.703  0.0187 -0.0049 -0.1533
 4550W        W20811  12.600  17.215  14.552 -0.1213 -0.1352  0.1295
 4551W        W20812  15.325  13.370  12.721 -0.3114  0.1681 -0.1420
 4552W        W20813  12.581  17.431   0.751  0.0467  0.0033  0.1954
 4553W        W20814   0.478  14.252   1.271 -0.3000 -0.0959 -0.1352
 4554W        W20815   6.340  15.392   5.188 -0.0455  0.0392 -0.1505
 4555W        W20816   8.735  11.072  14.447 -0.0242  0.0834 -0.1790
 4556W        W20817   4.586  16.612  11.918 -0.0058  0.1820  0.0028
 4557W        W20818   1.983   4.477   0.780 -0.1143  0.1053 -0.0426
 4558W        W20819   7.158   0.986   3.473  0.2132 -0.0848 -0.1814
 4559W        W20820  15.953  15.407   2.349  0.1919  0.0545 -0.0120
 4560W        W20821   6.166   9.365  12.006 -0.0588  0.2810 -0.0059
 4561W        W20822  14.146  11.590  14.502 -0.1343  0.2122  0.0421
 4562W        W20823  15.606   9.870  14.018 -0.0731  0.0012  0.2343
 4563W        W20824  16.790  14.272   1.253  0.0310  0.0639  0.2888
 4564W        W20825  10.583  10.108   0.361  0.1616 -0.1963 -0.2777
 4565W        W20826  13.978   0.971   6.436  0.2328  0.3310 -0.2841
 4566W        W20827   8.717  14.675  11.102 -0.0864 -0.2131 -0.0673
 4567W        W20828   0.428  11.217   2.064 -0.0401 -0.2664  0.1747
 4568W        W20829  14.244  15.875  14.811 -0.3903 -0.1423 -0.0037
 4569W        W20830  10.867  16.850   2.575 -0.1790  0.3315 -0.1814
 4570W        W20831  15.112   6.970   0.099 -0.1463 -0.0128  0.1626
 4571W        W20832   0.788   8.169   5.902  0.2814 -0.1305  0.0538
 4572W        W20833   5.916  10.565   2.849 -0.1335  0.1221  0.2038
 4573W        W20834   9.610   9.694  14.972 -0.0811 -0.0316 -0.0822
 4574W        W20835   7.395  10.877   1.519  0.0994 -0.0359  0.1548
 4575W        W20836  13.419  15.939   2.541 -0.1558 -0.1291  0.0634
 4576W        W20837  14.469  14.032   3.761 -0.4592  0.0462  0.0721
 4577W        W20838  15.741   8.923  16.705  0.2622  0.2408  0.0752
 4578W        W20839  13.885  10.402  16.052 -0.1769  0.2378 -0.1104
 4579W        W20840   0.591   2.175   4.081 -0.1999 -0.1151 -0.1145
 4580W        W20841   8.578   8.079  12.662 -0.0329 -0.0317  0.3012
 4581W        W20842   2.346   6.030  12.252  0.1259 -0.4281  0.1661
 4582W        W20843   9.569   3.091   1.332  0.1171  0.3331  0.0894
 4583W        W20844   7.840  16.872  14.927 -0.2728  0.1471  0.1149
 4584W        W20845  13.337   2.405  13.100 -0.2694  0.1273 -0.1455
 4585W        W20846  14.589   8.135   4.518 -0.1240 -0.0593  0.1675
 4586W        W20847  10.625   4.473  13.862  0.0811 -0.2526 -0.0078
 4587W        W20848   7.265   3.667   3.351 -0.4464  0.0490 -0.3546
 4588W        W20849   5.479   7.288   4.778 -0.2900 -0.0177 -0.1920
 4589W        W20850   7.486   7.316   5.464 -0.2121  0.0603 -0.0173
 4590W        W20851  16.308  16.942  12.450  0.2215  0.0498  0.1366
 4591W        W20852  12.104   9.713  13.452 -0.0228  0.0647  0.0219
 4592W        W20853   6.967  12.342   6.260 -0.0175  0.0545 -0.2566
 4593W        W20854  10.708  14.248  14.931  0.0837 -0.0256  0.0928
 4594W        W20855  17.605  15.771  11.592 -0.0374 -0.1410  0.0172
 4595W        W20856   0.482   0.913  13.493 -0.3368  0.3641 -0.3197
 4596W        W20857  17.468   9.172  14.130  0.4001  0.0738  0.1394
 4597W        W20858   8.748  17.044   3.152  0.1147 -0.0012  0.2394
 4598W        W20859  12.444  14.809  11.932  0.2644 -0.2125  0.0468
 4599W        W20860  13.803   5.183   1.548  0.0892  0.3203  0.2500
 4600W        W20861   1.355  11.101   2.125  0.0688  0.0075  0.1243
 4601W        W20862  11.314  14.401   5.983  0.0060 -0.0200  0.3024
 4602W        W20863  13.026   7.511   2.332 -0.0235 -0.1180  0.1436
 4603W        W20864   3.720  17.759   5.570  0.1695 -0.0668 -0.0126
 4604W        W20865   2.627   5.366  16.708  0.1688  0.0544 -0.2054
 4605W        W20866   6.158  17.635   2.103 -0.1222 -0.1544 -0.1397
 4606W        W20867  10.755   4.144   3.676 -0.0149  0.0690  0.3076
 4607W        W20868  13.962  16.736  14.715 -0.1536 -0.1118 -0.2257
 4608W        W20869   4.050  15.557   1.784 -0.0431 -0.1178 -0.1566
 4609W        W20870  11.231   8.351   4.513 -0.1611 -0.1756 -0.1831
 4610W        W20871   1.364   8.617   3.642  0.0661  0.2185 -0.2932
 4611W        W20872   2.525   1.683  14.014 -0.1435 -0.1361 -0.0371
 4612W        W20873  14.723  16.035  16.920 -0.0169  0.0527 -0.2213
 4613W        W20874  13.807   4.493   4.988 -0.0240 -0.0658 -0.0051
 4614W        W20875  15.171   4.035  14.038  0.0731  0.0393 -0.1044
 4615W        W20876   7.953   0.013  12.750  0.0504  0.2683  0.0548
 4616W        W20877  17.216   9.287   2.628 -0.0382  0.0228 -0.1907
 4617W        W20878   5.908  14.179  13.831  0.0097  0.0903 -0.1507
 4618W        W20879  16.130  15.820  11.597  0.0866  0.1420  0.0390
 4619W        W20880   3.355  17.576   5.915 -0.0558  0.1990 -0.2644
 4620W        W20881   6.666  14.776   3.936  0.3505 -0.2357  0.0558
 4621W        W20882   9.268   3.466   4.777 -0.1139 -0.1015  0.0580
 4622W        W20883  17.252   9.172  13.096  0.1554  0.0167 -0.1728
 4623W        W20884   1.492  10.207  13.414  0.0502  0.1143  0.2168
 4624W        W20885  10.833   2.758   5.356 -0.2090  0.0560  0.0034
 4625W        W20886   3.376   9.704   3.537 -0.1251  0.2815  0.0923
 4626W        W20887  12.930   0.837  15.727 -0.2304  0.1115  0.2422
 4627W        W20888   2.976  12.909   5.763 -0.0758 -0.0146 -0.1806
 4628W        W20889   6.895   8.235  16.220  0.2457 -0.4090 -0.0549
 4629W        W20890  12.094   6.494   5.113  0.2521 -0.2151 -0.3037
 4630W        W20891  17.291   5.788  12.714  0.2104  0.1343 -0.1089
 4631W        W20892   4.141   0.103   5.504  0.0007 -0.2558  0.0839
 4632W        W20893  17.767   4.213  14.450 -0.0915 -0.0278 -0.1916
 4633W        W20894   0.397  13.158  15.235  0.1113  0.0671  0.0724
 4634W        W20895   9.009   9.097   1.182 -0.2264  0.0830 -0.1952
 4635W        W20896   5.229   9.181   3.923 -0.0597  0.1845 -0.2914
 4636W        W20897   7.239   6.109   5.834 -0.1235  0.2011 -0.0054
 4637W        W20898   5.577   5.202   1.519 -0.1453  0.3949  0.0502
 4638W        W20899   8.111   1.778  11.901 -0.0793  0.1059 -0.0028
 4639W        W20900  17.722   6.934   0.403 -0.1363 -0.2118 -0.2147
 4640W        W20901   0.825  15.075   2.264 -0.0456  0.3607  0.2630
 4641W        W20902   0.050   8.082   3.506 -0.1699 -0.0232  0.1934
 4642W        W20903  15.136   2.815   5.170 -0.1260 -0.0933 -0.3771
 4643W        W20904   8.205  14.916  14.321  0.2187 -0.1823  0.0532
 4644W        W20905  11.730  10.635   4.815  0.0818 -0.1576 -0.3042
 4645W        W20906  15.662   6.887  16.137  0.4210  0.5798  0.1578
 4646W        W20907  12.247   8.724   2.255 -0.1600 -0.0378  0.3474
 4647W        W20908   2.496  15.077   1.557  0.1100 -0.0473 -0.2463
 4648W        W20909  14.422   2.697   3.757  0.0341  0.1383 -0.2151
 4649W        W20910  10.198  14.840   4.214 -0.0334  0.2291 -0.3086
 4650W        W20911   0.111   0.158  15.751 -0.2807  0.1616  0.0485
 4651W        W20912   9.576   2.973  15.196  0.0186 -0.1122  0.1276
 4652W        W20913  12.982   9.563   2.932 -0.1118 -0.2927  0.1950
 4653W        W20914   8.451  10.516  14.931 -0.1665 -0.1868  0.1198
 4654W        W20915  15.204   2.704   5.674  0.0948 -0.0657 -0.2470
 4655W        W20916   8.815  15.653   6.170 -0.0482 -0.2459 -0.0184
 4656W        W20917  15.655   4.755   4.440  0.1303  0.0532 -0.0655
 4657W        W20918   0.048   9.925  13.672  0.0989 -0.2374  0.3345
 4658W        W20919   8.259   7.318   2.557 -0.1103 -0.0297 -0.1838
 4659W        W20920  14.026   5.698  16.794  0.0319  0.1395 -0.0845
 4660W        W20921   5.622  13.922  16.695  0.0983  0.3508 -0.0656
 4661W        W20922  13.194  10.402  13.996  0.2427  0.1783  0.1165
 4662W        W20923   5.092   5.959  12.401 -0.0531 -0.0026 -0.0789
 4663W        W20924   4.559   2.004  12.124  0.2105 -0.3349  0.0698
 4664W        W20925  13.823  16.179  13.069 -0.0447 -0.1742  0.4297
 4665W        W20926   2.289   0.924   1.031  0.0912 -0.2280  0.1382
 4666W        W20927  13.022   1.988  12.883 -0.0150 -0.1387 -0.2539
 4667W        W20928  17.663  17.567   0.629  0.0433 -0.2004  0.2033
 4668W        W20929   3.061   8.989  16.448  0.1674 -0.0512 -0.0156
 4669W        W20930  15.682   4.036  15.299  0.0396  0.0599 -0.2236
 4670W        W20931   7.685  12.632   5.266  0.0220 -0.0969  0.1954
 4671W        W20932   2.850  16.218   3.776  0.1304  0.1170  0.1679
 4672W        W20933  10.889  17.274  13.739 -0.3148 -0.1105 -0.1181
 4673W        W20934  15.249   5.172   5.201 -0.0023 -0.0167 -0.0242
 4674W        W20935   5.451   8.852   4.711  0.0408  0.1887  0.2399
 4675W        W20936  16.080   4.468   4.412 -0.2279 -0.0040  0.2345
 4676W        W20937   2.799  12.618  13.124  0.1668  0.3243  0.0290
 4677W        W20938   1.429   7.616  14.975  0.0355 -0.4399 -0.2661
 4678W        W20939  13.390  17.818   3.726  0.4763 -0.2672  0.0332
 4679W        W20940   2.574  12.375  15.801  0.1766 -0.1401 -0.0984
 4680W        W20941  13.103  14.472   0.334  0.1706  0.2083  0.0488
 4681W        W20942  12.871   7.940  11.571 -0.1208 -0.0859 -0.0435
 4682W        W20943   9.159   5.764  12.787 -0.0092 -0.0299  0.0538
 4683W        W20944  10.351  14.209  16.584 -0.0021 -0.0375  0.4216
 4684W        W20945  14.718  17.204  15.319  0.1453 -0.0240  0.2756
 4685W        W20946  15.842   8.741  15.569  0.0919 -0.3752 -0.1419
 4686W        W20947   3.643  16.354   4.144  0.1523 -0.4175  0.0204
 4687W        W20948   2.122  11.263  15.427 -0.0716  0.0175  0.0098
 4688W        W20949   0.659  12.030   0.977  0.2639 -0.1986  0.0566
 4689W        W20950  16.652  14.443  14.888 -0.0367  0.0486 -0.0308
 4690W        W20951   8.202  15.135   5.370 -0.0294 -0.0614  0.1379
 4691W        W20952  10.850   6.103   5.990 -0.0206  0.0295 -0.3556
 4692W        W20953   6.201  15.822  11.943  0.1596  0.1949  0.2135
 4693W        W20954  15.460  15.365   0.350  0.0836  0.0673  0.1247
 4694W        W20955  14.979  14.162  16.857 -0.3047 -0.1648  0.0169
 4695W        W20956   1.955  13.452  14.509  0.1320 -0.0470  0.1128
 4696W        W20957  14.721   8.014   2.900  0.0174  0.2707 -0.0827
 4697W        W20958   4.732   1.137   4.504 -0.3064 -0.0809 -0.1419
 4698W        W20959  17.700   3.301   0.701  0.0184 -0.1078  0.3306
 4699W        W20960  11.541   0.208   1.553 -0.2792  0.2660  0.1402
 4700W        W20961  16.658   1.428   0.393 -0.2678  0.2196 -0.1763
 4701W        W20962   2.942   6.809  14.489 -0.1434 -0.2725  0.2831
 4702W        W20963  10.509   9.546  14.288 -0.0148  0.3092 -0.0879
 4703W        W20964   2.726  15.809   3.410 -0.0501  0.1209 -0.1179
 4704W        W20965   9.159   0.974   2.925  0.1198 -0.2369  0.0290
 4705W        W20966  14.252  12.446   2.046  0.0121 -0.0856 -0.1029
 4706W        W20967   2.098  10.419   4.764 -0.2123  0.1076 -0.1470
 4707W        W20968   4.001   2.496   3.756 -0.0497 -0.0693 -0.1488
 4708W        W20969   8.362   9.123   2.630 -0.1043  0.0575  0.2494
 4709W        W20970   7.133   9.920  13.252 -0.2409 -0.4365  0.0093
 4710W        W20971   2.618   6.800  14.877 -0.2061 -0.1280  0.1805
 4711W        W20972   5.323   8.991  12.028  0.0921  0.2813 -0.0266
 4712W        W20973   3.548   2.266   0.913  0.0274  0.4597 -0.4340
 4713W        W20974   6.006   5.258   4.507 -0.2453  0.1203  0.3221
 4714W        W20975  11.241   5.835   3.058 -0.2978  0.2782 -0.1494
 4715W        W20976   2.600  14.616   4.535 -0.1107  0.1167 -0.2648
 4716W        W20977   9.738   3.549  15.831 -0.0460  0.1306 -0.0360
 4717W        W20978  14.010  11.348  16.412  0.0364  0.1396  0.0753
 4718W        W20979  16.372   1.791   4.482 -0.0598  0.1747 -0.0211
 4719W        W20980   6.838  11.448   6.294  0.4169 -0.2602 -0.0843
 4720W        W20981  12.469   9.778   2.452 -0.0625 -0.0655 -0.0454
 4721W        W20982   5.193   4.361   1.581  0.2263  0.1994 -0.2246
 4722W        W20983  16.452   6.639  11.919 -0.0158 -0.1170 -0.0218
 4723W        W20984   8.719   9.875  12.991 -0.2073 -0.2270  0.1120
 4724W        W20985  15.849  15.182   4.877  0.1025 -0.2941  0.0977
 4725W        W20986   3.938  13.664  13.111  0.0047 -0.1949  0.0205
 4726W        W20987   5.979   0.447  11.693  0.2853 -0.0514 -0.0888
 4727W        W20988  15.264   8.862  13.656 -0.1877  0.0339 -0.0017
 4728W        W20989  15.839   5.558  12.007  0.0077  0.2282 -0.1331
 4729W        W20990   6.340   3.345   0.363 -0.1937  0.1744 -0.3282
 4730W        W20991   1.541   7.876  16.960  0.1894 -0.2782  0.2081
 4731W        W20992   3.866   8.184   3.547  0.1326 -0.0758 -0.0748
 4732W        W20993   1.115  12.938   4.286  0.1055 -0.1035  0.2033
 4733W        W20994   0.906  13.332  14.043 -0.1686  0.0006 -0.0637
 4734W        W20995   4.916  17.324   1.429  0.0968  0.3298  0.1253
 4735W        W20996  16.198   9.551  14.549 -0.1917  0.1173 -0.2140
 4736W        W20997   4.378   3.337   5.619  0.2360 -0.1156  0.2212
 4737W        W20998  10.223  12.440   4.657  0.1691 -0.6393  0.0487
 4738W        W20999   6.573   1.572  12.935  0.2737 -0.0935  0.2097
 4739W        W21000   9.038  17.289  12.575 -0.2643 -0.0661  0.0297
 4740W        W21001   1.901   0.678   1.393 -0.3557 -0.3892  0.1371
 4741W        W21002  14.010   8.056  16.519 -0.3787  0.0704 -0.2250
 4742W        W21003  15.989  17.617   2.481 -0.1616  0.0190  0.1575
 4743W        W21004   4.819  16.569   2.852 -0.0802  0.2163  0.0107
 4744W        W21005  17.352   4.416  15.401  0.3844 -0.1579 -0.1626
 4745W        W21006  14.403   7.822  16.020  0.0560  0.1106 -0.1511
 4746W        W21007   7.097  13.856  16.015 -0.0114 -0.2087 -0.0589
 4747W        W21008   8.705   3.490   1.124  0.0961 -0.1026 -0.0304
 4748W        W21009  17.115  17.597   4.224 -0.0810  0.1922  0.2728
 4749W        W21010   1.599  17.847   4.129 -0.0199  0.0509  0.1484
 4750W        W21011  15.750   0.306  15.825  0.1506  0.0363 -0.1688
 4751W        W21012   1.790   9.275  16.731 -0.4393  0.0375  0.2180
 4752W        W21013   9.382  15.837   4.746 -0.1325  0.1394  0.0564
 4753W        W21014  16.820   8.243  16.776 -0.3646  0.2774  0.0863
 4754W        W21015  14.738   1.250  14.180 -0.1212 -0.3270 -0.2381
 4755W        W21016   3.506  16.494  16.159  0.0534  0.0540 -0.1182
 4756W        W21017   8.301  16.607   0.235 -0.2127  0.1236  0.0429
 4757W        W21018   8.615   0.399  14.099 -0.1733 -0.0460 -0.2674
 4758W        W21019  13.308   6.429  12.554 -0.0376  0.2838  0.3225
 4759W        W21020   5.552  12.706   0.250  0.1642 -0.2268  0.1454
 4760W        W21021   5.382  13.285   3.871 -0.1895 -0.1383 -0.3759
 4761W        W21022   9.502   4.948  12.543  0.1405  0.2583  0.0196
 4762W        W21023   9.524   8.068  15.632  0.1636 -0.0251 -0.1353
 4763W        W21024   1.554   9.633   2.621  0.2117 -0.1919  0.1008
 4764W        W21025   0.221  13.216  11.844 -0.1829 -0.1597 -0.1159
 4765W        W21026   5.990   7.349  15.899  0.0211 -0.2825 -0.0734
 4766W        W21027   4.787   6.086   3.489  0.4257  0.0056  0.2262
 4767W        W21028  17.154  10.067  13.934  0.3199  0.1516 -0.0367
 4768W        W21029  13.986   8.300   5.037 -0.2648 -0.0653  0.3101
 4769W        W21030  10.992  15.738   1.715 -0.1096  0.1931 -0.1540
 4770W        W21031   0.432   8.245   2.660  0.0559 -0.0722  0.0908
 4771W        W21032   1.345   5.832   6.601  0.0612 -0.1663 -0.0427
 4772W        W21033   9.208   2.571   1.061 -0.1674 -0.0236  0.1628
 4773W        W21034   4.340   5.455  11.370  0.2215 -0.2436  0.0233
 4774W        W21035  13.802   1.977  13.672 -0.0105  0.0301 -0.0318
 4775W        W21036   0.069  15.813   6.143 -0.1832  0.2419  0.2456
 4776W        W21037  15.218  10.393  14.463  0.0934 -0.1004  0.0269
 4777W        W21038   2.244   6.175   3.433  0.3404 -0.0568 -0.0188
 4778W        W21039  13.601  16.104   4.566  0.1182 -0.1152 -0.2616
 4779W        W21040   2.873   1.928   4.890  0.1773  0.1516  0.2729
 4780W        W21041   7.016   2.767  15.341 -0.0520 -0.1361  0.0306
 4781W        W21042   6.725  11.832   2.613  0.1662 -0.2501  0.0619
 4782W        W21043   7.082   9.194  13.585 -0.6082 -0.2389  0.1156
 4783W        W21044   5.393  17.177   2.551 -0.0938  0.2536  0.1078
 4784W        W21045   5.267  14.252   2.231 -0.1468 -0.2139  0.2722
 4785W        W21046  12.713   2.282   5.175  0.1477  0.1304 -0.0985
 4786W        W21047   0.610   1.868   1.584  0.1380  0.4382  0.0996
 4787W        W21048  10.589  10.565   3.893 -0.0842 -0.0739  0.1857
 4788W        W21049   8.786   7.113   5.878  0.1262  0.1874  0.1956
 4789W        W21050  17.338   5.535   3.782  0.0354 -0.2542  0.1265
 4790W        W21051   5.237   3.161  12.261  0.0969  0.1833  0.0390
 4791W        W21052   0.061  10.331  14.623 -0.0431  0.2517 -0.0487
 4792W        W21053  13.883  16.096  16.578 -0.0113  0.0667  0.1804
 4793W        W21054   2.077  12.986   0.612  0.0171 -0.0309 -0.0993
 4794W        W21055   5.402   6.692   5.507  0.0839 -0.0981  0.3950
 4795W        W21056  11.352   1.683  12.120  0.2775 -0.1704 -0.2774
 4796W        W21057  17.335   9.309   4.844 -0.0220  0.1677  0.2117
 4797W        W21058  11.795   5.061   3.569 -0.2282  0.1340  0.0112
 4798W        W21059   2.017   7.246  14.490  0.0506 -0.0468  0.3620
 4799W        W21060  14.357  16.171  15.374  0.1621  0.1470 -0.4359
 4800W        W21061  15.507   7.062   4.807 -0.0929  0.0627 -0.4072
 4801W        W21062  14.345  14.633   4.202  0.1307 -0.0037  0.0670
 4802W        W21063   8.852  16.592   3.232 -0.0154  0.1682  0.0889
 4803W        W21064   3.112   1.479  10.738 -0.4300  0.1762  0.2706
 4804W        W21065  16.632  12.529   0.949  0.0655 -0.1012  0.0806
 4805W        W21066   2.657   0.279  12.037 -0.0149 -0.3341 -0.1371
 4806W        W21067   8.157   8.893   5.230 -0.5296 -0.0097  0.0533
 4807W        W21068  10.977   3.155   3.750 -0.0101  0.2016  0.2557
 4808W        W21069  10.356  16.310   3.714  0.0848  0.1691  0.1661
 4809W        W21070  10.364   3.800   0.212  0.3110 -0.2477 -0.2290
 4810W        W21071  10.625  11.653  13.772 -0.0124 -0.1259  0.4322
 4811W        W21072   3.613   6.815  12.079  0.1505  0.0484  0.1165
 4812W        W21073  11.774   0.332  11.805  0.2262  0.3607 -0.0626
 4813W        W21074   5.819  16.123  16.708  0.0544 -0.0441  0.2865
 4814W        W21075  15.165   9.065   6.409  0.1508 -0.1781  0.0675
 4815W        W21076  17.633   4.998  12.589 -0.3833 -0.0980 -0.1177
 4816W        W21077  13.423  11.252  12.906 -0.0018  0.0871 -0.0876
 4817W        W21078  15.001   5.892   1.964  0.0835 -0.0226  0.1328
 4818W        W21079   4.300  14.405   0.306  0.1127  0.0337  0.3016
 4819W        W21080   3.028   2.186  12.672  0.1841  0.1286 -0.2003
 4820W        W21081  14.609  12.288   3.365 -0.0762  0.3038  0.2925
 4821W        W21082  14.236  12.793  12.903 -0.2536  0.0827  0.2741
 4822W        W21083   7.798   7.538  15.733 -0.0864 -0.0627 -0.2813
 4823W        W21084   7.053  16.569  12.773  0.0232  0.0492 -0.0335
 4824W        W21085   3.881   5.208  13.033 -0.1539 -0.0698 -0.0583
 4825W        W21086  10.248  16.701   1.642  0.1340  0.0039  0.0254
 4826W        W21087   4.313  14.093  14.864  0.0883  0.0277  0.2824
 4827W        W21088   4.484   5.437  13.023 -0.0548  0.0686  0.3272
 4828W        W21089  17.711  13.851  15.687  0.2066  0.1041  0.2762
 4829W        W21090   5.050  14.993   5.700 -0.0960 -0.3436 -0.0909
 4830W        W21091  16.880   4.758   3.981 -0.1829  0.2922  0.0152
 4831W        W21092  17.590  10.592   3.100  0.2113  0.1219  0.2540
 4832W        W21093  14.443   4.439   2.181  0.2574 -0.0652  0.1290
 4833W        W21094  12.852  10.973   3.171 -0.0542  0.2103 -0.1499
 4834W        W21095   2.946   7.476   0.457 -0.0112  0.1047  0.0388
 4835W        W21096   6.767   6.082   5.553  0.0177  0.0294  0.0885
 4836W        W21097  11.856  14.943  12.980  0.1071  0.0923 -0.0173
 4837W        W21098   9.316   2.550  15.344 -0.3085 -0.0461  0.0082
 4838W        W21099   1.092   7.436   1.290 -0.0625 -0.1988  0.1518
 4839W        W21100  15.874   1.011  15.329 -0.0000 -0.0844 -0.2429
 4840W        W21101  13.714   4.321  16.130 -0.2345 -0.2128  0.0537
 4841W        W21102  15.341   5.532  13.519 -0.1551  0.0492  0.1283
 4842W        W21103   2.856   2.632  15.039  0.0734 -0.0182  0.1403
 4843W        W21104  16.257  10.353  14.110 -0.0008 -0.3268  0.0479
 4844W        W21105  15.257  17.695   1.796 -0.0678 -0.0765  0.0545
 4845W        W21106   4.360   9.724   3.546  0.1230 -0.1019 -0.1533
 4846W        W21107  14.378   9.496  16.088 -0.1258  0.0791  0.1270
 4847W        W21108  17.195  13.875  12.816  0.2778  0.0047  0.1524
 4848W        W21109   3.727  14.988   3.980 -0.1214 -0.3137 -0.0767
 4849W        W21110   7.073  11.042   4.373 -0.0551 -0.2064 -0.0248
 4850W        W21111  10.560  16.971  14.501 -0.0949  0.0415  0.2734
 4851W        W21112  17.056  14.667   1.608 -0.0820  0.0444  0.1860
 4852W        W21113   0.186   7.436   3.452 -0.0533 -0.1115 -0.3847
 4853W        W21114  10.628  10.786  14.889 -0.1850 -0.1779 -0.2136
 4854W        W21115   2.232   9.585   5.255  0.0255 -0.1573  0.0979
 4855W        W21116  15.161   9.785   4.729  0.0305 -0.1159  0.0319
 4856W        W21117  16.088  15.668   5.128  0.0816  0.1667 -0.0793
 4857W        W21118  12.255  16.104  16.641 -0.0324 -0.3162 -0.0651
 4858W        W21119  15.775   1.783   2.838  0.0996 -0.1125 -0.0136
 4859W        W21120  17.436  17.543  13.541 -0.3254  0.3212  0.1262
 4860W        W21121   5.883  10.144  11.506 -0.0042  0.2774  0.0643
 4861W        W21122   2.154  10.661   4.253  0.1903 -0.4686 -0.3543
 4862W        W21123   0.526   7.056   2.855 -0.0048  0.1046  0.0532
 4863W        W21124   8.607   9.431   4.994  0.2617  0.1677 -0.0671
 4864W        W21125   6.045  15.697  16.133  0.3190  0.1615 -0.0261
 4865W        W21126   7.249  11.787  15.104  0.0532  0.0568  0.0150
 4866W        W21127   5.668  14.824   0.822  0.2973  0.1918  0.3490
 4867W        W21128   9.744   3.465  15.182  0.1569  0.0253  0.2038
 4868W        W21129   3.672  11.496  12.120  0.1087 -0.0604  0.0275
 4869W        W21130   8.802  10.959  12.867  0.0703 -0.0744  0.0488
 4870W        W21131   1.065   1.186   1.061 -0.1290  0.2929 -0.0525
 4871W        W21132  13.750   7.271   4.118 -0.1783 -0.2410  0.1828
 4872W        W21133  10.785  17.225   0.984 -0.0898 -0.0085 -0.0131
 4873W        W21134   5.553   8.124   5.618 -0.2382  0.0924  0.1250
 4874W        W21135   1.976   5.876  14.747  0.1382 -0.0812  0.0843
 4875W        W21136  15.748  15.837   4.695 -0.2272 -0.0927 -0.0905
 4876W        W21137   8.603   0.804   5.197 -0.2206 -0.0879 -0.2782
 4877W        W21138   3.151   4.426   4.865  0.0897 -0.1198 -0.0873
 4878W        W21139   0.444   7.184  13.316 -0.1804  0.0958 -0.1632
 4879W        W21140  17.455  16.128   2.705 -0.0767  0.2774 -0.1293
 4880W        W21141   5.370   9.555  14.243  0.1436  0.1396 -0.3759
 4881W        W21142   4.689  10.260   1.226 -0.0864 -0.0937 -0.1144
 4882W        W21143   1.093   3.996  15.185 -0.2133 -0.1540 -0.0564
 4883W        W21144   0.154   1.206  13.996  0.0878  0.1742  0.0503
 4884W        W21145  16.362  10.666  15.388 -0.2207  0.3278 -0.1416
 4885W        W21146   1.743   1.740   4.074 -0.2500  0.2089 -0.2067
 4886W        W21147   9.324   6.454  12.089  0.0031 -0.3206 -0.2726
 4887W        W21148   8.981   1.723   0.708 -0.1775  0.6302  0.2060
 4888W        W21149  11.046   6.187  15.570 -0.2617 -0.1350  0.0959
 4889W        W21150  14.630   7.390  13.083 -0.2160  0.0380  0.0674
 4890W        W21151   8.293   2.190   1.209 -0.1175 -0.0356  0.0159
 4891W        W21152   5.817   4.311   4.819 -0.0527  0.1116  0.1221
 4892W        W21153  11.160  17.417   1.401 -0.1283  0.0526 -0.1382
 4893W        W21154  13.336   3.131   0.409 -0.2433 -0.0764  0.0458
 4894W        W21155   0.760  17.826   0.716 -0.1026  0.1090  0.4521
 4895W        W21156  11.691   5.343  14.351  0.0261 -0.1728  0.0200
 4896W        W21157   3.377   2.809   4.907 -0.0401 -0.2439 -0.1613
 4897W        W21158  13.406   1.331   5.100  0.2335  0.1225 -0.2313
 4898W        W21159   3.333  13.887  14.510 -0.1309  0.0790 -0.1975
 4899W        W21160   8.501  13.386  11.949 -0.0981  0.0509 -0.1396
 4900W        W21161  17.467  13.914   4.692 -0.2600  0.0198 -0.0559
 4901W        W21162  13.842   0.556   4.057 -0.2946  0.2715 -0.2944
 4902W        W21163   6.475  13.853   0.384 -0.1674  0.0655  0.0743
 4903W        W21164  14.298   1.113   1.579  0.3322  0.0627 -0.1738
 4904W        W21165  15.206  12.391  11.081 -0.1297 -0.0189 -0.3637
 4905W        W21166  11.301  13.215  13.238 -0.1975 -0.1123  0.1216
 4906W        W21167   9.068  11.664   1.984  0.0946 -0.0186  0.0463
 4907W        W21168  12.980  15.531   1.752 -0.0397 -0.2744  0.0858
 4908W        W21169   1.595  10.380  15.599  0.0029 -0.1507  0.3814
 4909W        W21170   1.706   2.016  15.066  0.1728  0.1331  0.1892
 4910W        W21171   0.338  13.433   0.141 -0.2595 -0.1055 -0.0432
 4911W        W21172  13.316   6.490   2.067  0.0093  0.0892  0.1349
 4912W        W21173   5.195  12.413   4.683 -0.1214 -0.1658 -0.0448
 4913W        W21174  10.832   0.297  15.667  0.1746 -0.1759 -0.0801
 4914W        W21175   1.414   8.915   2.485  0.1319 -0.2702 -0.2279
 4915W        W21176   7.747  13.594  12.397  0.1903  0.0625  0.2095
 4916W        W21177   2.833   3.029  13.087 -0.0677  0.0455 -0.0138
 4917W        W21178  12.493   1.928   2.164  0.0261 -0.1433  0.1016
 4918W        W21179  15.380   4.860   2.874 -0.0488 -0.3459 -0.0655
 4919W        W21180  14.181   4.188   5.222 -0.2776 -0.1742  0.2691
 4920W        W21181   7.882  17.569   0.230  0.0517  0.3045  0.0140
 4921W        W21182   0.925   1.027  13.676  0.2240 -0.0641 -0.5017
 4922W        W21183  14.436   8.304  12.640  0.1916  0.0494 -0.0926
 4923W        W21184  12.370   2.360   2.734  0.1686  0.1689  0.0215
 4924W        W21185   5.187  10.802   0.630  0.3446  0.2247  0.1866
 4925W        W21186   4.821   2.195  13.324 -0.3317  0.2409 -0.2256
 4926W        W21187  12.290   6.300  15.983 -0.1644  0.4748  0.0589
 4927W        W21188  12.774  15.248   0.653 -0.0616  0.0478  0.2684
 4928W        W21189   5.377   3.460  13.593 -0.1804  0.0252 -0.0672
 4929W        W21190  17.179   1.456   4.271  0.0496 -0.0292 -0.1508
 4930W        W21191   6.981  10.271   4.482 -0.1970 -0.1001 -0.2729
 4931W        W21192  15.427  12.764  11.937 -0.1405  0.3839 -0.1436
 4932W        W21193  13.771   9.156   4.831 -0.2371  0.1110  0.2104
 4933W        W21194   2.207   5.226   4.771 -0.0984  0.1138 -0.0597
 4934W        W21195   8.338   8.062   0.019  0.3962 -0.1540  0.1349
 4935W        W21196   2.197  10.786   0.263  0.1358 -0.0208 -0.2109
 4936W        W21197  16.535   3.074   3.482  0.3260 -0.2072  0.0045
 4937W        W21198  15.867   7.032   6.222  0.1319  0.3632  0.0662
 4938W        W21199   4.376   3.172  12.368 -0.0623 -0.0870  0.3600
 4939W        W21200  13.597  11.769  12.144 -0.2078  0.0761  0.0604
 4940W        W21201  14.754  11.572   3.541 -0.2017  0.0741 -0.2005
 4941W        W21202  12.944   0.254   0.585 -0.1425 -0.1555 -0.1471
 4942W        W21203  16.184   2.513   1.896  0.1787 -0.1491  0.4698
 4943W        W21204   4.433   6.962  16.027 -0.1518 -0.1465 -0.1995
 4944W        W21205  14.499   7.741  15.425  0.0407 -0.0022  0.2307
 4945W        W21206   7.036  16.319   1.847  0.4157 -0.0153 -0.2253
 4946W        W21207  13.657  11.785  11.622 -0.2352  0.0892 -0.2418
 4947W        W21208  16.736   1.833   4.847  0.1236  0.0735  0.3051
 4948W        W21209  15.573  10.188   5.790 -0.0187  0.1847  0.0740
 4949W        W21210  13.479   3.161  15.228  0.0377  0.1276 -0.1620
 4950W        W21211   3.764  10.817   4.178 -0.0512  0.3220  0.0808
 4951W        W21212  12.497  13.741   2.473 -0.0860 -0.0969 -0.0709
 4952W        W21213   8.939   0.928  10.252 -0.1123 -0.0489  0.0685
 4953W        W21214  13.959  14.272   2.322  0.0963  0.0380 -0.1764
 4954W        W21215  13.920  17.662   3.467 -0.0642 -0.0188  0.5450
 4955W        W21216   6.064   3.021   5.453  0.0879  0.3093 -0.0556
 4956W        W21217  13.350  10.675   0.349 -0.2045 -0.0943 -0.1533
 4957W        W21218  10.056  13.227  15.446 -0.0397 -0.0517 -0.1202
 4958W        W21219   8.116   2.643  15.793  0.2435 -0.1127  0.0085
 4959W        W21220  15.720  16.708  16.469 -0.1004 -0.1907 -0.1593
 4960W        W21221  12.683   0.701  15.301 -0.3252  0.2518 -0.2478
 4961W        W21222   7.675  16.957   4.122 -0.1366 -0.0446 -0.0600
 4962W        W21223  17.293  11.201  15.509  0.2198  0.0043 -0.1352
 4963W        W21224   5.477  17.238   3.956  0.0156  0.1960  0.0968
 4964W        W21225   5.577  14.482   5.025 -0.1469  0.1025 -0.3116
 4965W        W21226   9.843  13.988  11.871 -0.0310  0.0626 -0.0124
 4966W        W21227  13.693  16.584   2.916 -0.1115 -0.1892 -0.0717
 4967W        W21228  10.760   4.693  13.318 -0.0693  0.0679  0.1647
 4968W        W21229  11.501   6.527  14.293  0.1662  0.1051  0.2428
 4969W        W21230   8.642  16.355   2.761  0.0285 -0.0638  0.0549
 4970W        W21231   1.342  15.419   0.105 -0.0226 -0.0040  0.0309
 4971W        W21232  17.381   4.931   2.866 -0.0100 -0.2605 -0.0408
 4972W        W21233  14.548  11.478  13.701 -0.0676 -0.0061  0.1859
 4973W        W21234  16.981  17.571  13.299 -0.0861 -0.0249  0.0168
 4974W        W21235   2.134  17.306  14.313  0.2239  0.0811 -0.0637
 4975W        W21236   9.971   2.741   2.465  0.1055  0.2946 -0.0622
 4976W        W21237   4.733   6.704   4.811 -0.2482 -0.2166  0.0209
 4977W        W21238   5.212  16.894   0.078  0.1104  0.0207 -0.1858
 4978W        W21239  13.219  17.339   3.940 -0.2489  0.2139  0.0301
 4979W        W21240   0.101   7.368  14.558 -0.0774 -0.0370  0.0794
 4980W        W21241   4.384   2.171   0.300  0.0243 -0.1587 -0.2106
 4981W        W21242  14.098   1.825   6.440 -0.0329  0.0616  0.3982
 4982W        W21243   2.845  12.130  13.013  0.2301  0.1626  0.0979
 4983W        W21244   0.834   3.284   3.790  0.3228  0.2097  0.2929
 4984W        W21245   7.193  15.486   3.119 -0.2073  0.3549 -0.2781
 4985W        W21246   3.789  15.764  16.761  0.2917 -0.3410  0.1374
 4986W        W21247   9.997  16.416   2.695  0.1174 -0.0019 -0.0136
 4987W        W21248   5.665   4.079   0.422 -0.2143 -0.1661  0.0990
 4988W        W21249  15.689   1.805  16.087 -0.2102  0.2122 -0.2094
 4989W        W21250   6.489   9.499  13.720 -0.0567  0.1222  0.0717
 4990W        W21251   3.031   8.523   3.833 -0.0838 -0.2379 -0.0250
 4991W        W21252  14.228   4.343  14.389 -0.1410 -0.3651 -0.1775
 4992W        W21253   4.461   6.508  12.993 -0.0513 -0.1267 -0.1343
 4993W        W21254   2.667   0.508  16.150 -0.1172 -0.2177  0.2608
 4994W        W21255   3.804   7.717   0.739 -0.2310 -0.1069 -0.0315
 4995W        W21256  10.406  14.426  11.727  0.3105 -0.3053  0.2881
 4996W        W21257  15.800   9.871  12.569  0.0893  0.4032  0.3170
 4997W        W21258  12.240   5.238  16.034 -0.2092  0.1776 -0.2542
 4998W        W21259  17.250   6.767   0.717 -0.4738  0.1767  0.1426
 4999W        W21260  13.617  10.579  16.518 -0.1928  0.1060 -0.0935
 5000W        W21261   3.637  16.559  13.801  0.1756 -0.1111  0.1871
 5001W        W21262  15.942  12.918  13.687  0.1247  0.1988 -0.3667
 5002W        W21263   3.791  13.083  16.483  0.0228 -0.3852 -0.0223
 5003W        W21264  12.217   4.604   4.983 -0.1466  0.0495  0.4007
 5004W        W21265   1.277  15.907   1.470  0.1671  0.0081 -0.0019
 5005W        W21266   9.338   3.545   5.723 -0.0163 -0.0898 -0.1435
 5006W        W21267   9.207   4.315   0.940  0.0945  0.2075 -0.0866
 5007W        W21268   5.702   7.680  15.528 -0.1626  0.4119 -0.0597
 5008W        W21269  16.219  11.765  13.265 -0.0956 -0.1145 -0.0552
 5009W        W21270   4.774  12.393  14.388  0.2129 -0.2233  0.2238
 5010W        W21271   9.530   7.318   3.123 -0.0670 -0.0557  0.0427
 5011W        W21272   0.031   4.125   3.628 -0.0675 -0.1474  0.0190
 5012W        W21273  13.716   1.820  16.900  0.2688  0.1080 -0.0926
 5013W        W21274   1.075  17.369  15.207 -0.1739 -0.2165 -0.0714
 5014W        W21275   9.921  15.660   5.386 -0.2467 -0.0416 -0.1812
 5015W        W21276  16.698  17.652   5.760  0.2084  0.0764 -0.2398
 5016W        W21277   9.615  16.445   5.902 -0.1883  0.0500  0.1868
 5017W        W21278  11.939   4.547   3.413  0.1417 -0.0685  0.1180
 5018W        W21279   0.501  14.946  15.052 -0.1329 -0.3975  0.1656
 5019W        W21280  17.066   2.629  15.012  0.0042 -0.0059  0.2924
 5020W        W21281   5.460  17.107  13.126  0.1771  0.1027 -0.1551
 5021W        W21282   8.516   7.464   4.952 -0.2339 -0.0037  0.1044
 5022W        W21283   6.608   3.822  12.585 -0.0192  0.1603 -0.1405
 5023W        W21284  12.961  13.786  12.364 -0.0408  0.0600 -0.4135
 5024W        W21285   9.546  10.474   4.751  0.0495  0.1277  0.0467
 5025W        W21286  17.022   5.873  16.590  0.1465  0.1910 -0.1524
 5026W        W21287   7.931  10.360  15.625  0.0791 -0.2672 -0.0145
 5027W        W21288   0.267   9.320  13.420 -0.1139  0.1471 -0.3434
 5028W        W21289   4.325   2.826   3.589  0.2196  0.3771 -0.0494
 5029W        W21290  14.126   9.344  16.791  0.0169 -0.0499 -0.3061
 5030W        W21291   3.446   8.601  16.244  0.3338  0.5149  0.3201
 5031W        W21292   2.059   7.479   3.903 -0.1962 -0.2423  0.1655
 5032W        W21293   7.145   7.629  15.506  0.0658 -0.1485 -0.1154
 5033W        W21294  15.367  10.455  13.779 -0.1148  0.3000 -0.1798
 5034W        W21295   2.229  10.832   5.106  0.1664  0.3160  0.2598
 5035W        W21296   8.831  13.511   2.910  0.1625  0.1891 -0.0283
 5036W        W21297  17.476   5.749  15.245  0.1727 -0.1667  0.1063
 5037W        W21298  11.410  16.779  14.268 -0.0988  0.1386  0.2029
 5038W        W21299   7.206  15.601  15.828 -0.0938  0.3042  0.1127
 5039W        W21300   7.414   5.808  12.364  0.1797 -0.0152 -0.0211
 5040W        W21301   0.901  13.849   4.146 -0.2765  0.0553 -0.0695
 5041W        W21302   6.418   2.998   1.817 -0.0808 -0.0068 -0.2581
 5042W        W21303  16.456   6.242  12.306 -0.2128  0.0402 -0.1636
 5043W        W21304  12.609   2.973   0.733  0.1360  0.2358  0.1421
 5044W        W21305   3.847   4.044  13.574  0.3855 -0.0658 -0.5045
 5045W        W21306  15.925   6.373  15.081  0.2224 -0.2573 -0.1578
 5046W        W21307   8.007  16.191   0.252  0.0965 -0.3332 -0.1049
 5047W        W21308   0.595  10.711  13.590 -0.1812  0.3305  0.0407
 5048W        W21309  16.915   4.515   0.713  0.2954 -0.2295 -0.0819
 5049W        W21310  17.742  15.682   4.084 -0.1217 -0.2376 -0.1441
 5050W        W21311   1.136  11.173  14.237 -0.1788  0.0814 -0.0857
 5051W        W21312  17.556   6.539   1.653 -0.0566 -0.2316 -0.0877
 5052W        W21313  10.361   1.787  12.836  0.2349  0.3052 -0.0161
 5053W        W21314  17.602  15.002  12.669  0.2224 -0.3493 -0.0313
 5054W        W21315   6.351  15.050  13.360  0.0773 -0.0233  0.1500
 5055W        W21316  13.578   0.912  12.135  0.2082  0.2552 -0.0237
 5056W        W21317  10.502  15.499   2.447  0.0051  0.0667  0.4574
 5057W        W21318   3.199  12.161   3.425  0.3744  0.3928  0.1008
 5058W        W21319  14.954   8.622   0.739  0.2601 -0.0227  0.2524
 5059W        W21320  17.672   1.985  14.765 -0.1581  0.0926 -0.2825
 5060W        W21321   1.119   9.656   3.445  0.0830  0.0978 -0.0170
 5061W        W21322  14.987  12.384   5.561  0.1625 -0.0158 -0.1308
 5062W        W21323   8.642   7.144   0.327 -0.0711 -0.0724 -0.2121
 5063W        W21324   9.995  11.183  13.151 -0.0482  0.0271 -0.0831
 5064W        W21325   6.601  12.652   0.167  0.1303  0.0200 -0.1043
 5065W        W21326   8.895  10.541  15.819  0.0917  0.2472 -0.1329
 5066W        W21327   5.335   7.795   4.805 -0.0138  0.0387  0.0219
 5067W        W21328  13.874  12.741  11.803 -0.0285 -0.2424  0.1099
 5068W        W21329  11.750  14.734  15.507  0.0653 -0.2470  0.1182
 5069W        W21330   5.736   2.720  12.913  0.3154  0.2415 -0.1951
 5070W        W21331  15.486  10.374   6.324  0.4307 -0.0832  0.3312
 5071W        W21332  10.783  12.801   5.494  0.1490  0.1074 -0.2970
 5072W        W21333   5.268   5.838  12.867 -0.1209 -0.2944 -0.0516
 5073W        W21334   6.504   4.111   2.727  0.1152  0.0640 -0.0960
 5074W        W21335   9.455  17.823   0.550 -0.1452 -0.0882  0.1168
 5075W        W21336   4.231   7.698   5.586  0.0359  0.1862 -0.1061
 5076W        W21337   0.376  11.957   4.929  0.0614 -0.0786  0.1899
 5077W        W21338  12.075   8.475   1.851 -0.0226  0.0229  0.1088
 5078W        W21339   2.599  16.494  15.493  0.0017 -0.0721  0.1039
 5079W        W21340  11.477   9.287   1.734  0.0965 -0.0648 -0.2563
 5080W        W21341   2.984  10.273   5.157  0.0500 -0.1289  0.0673
 5081W        W21342  16.874   4.754   2.014  0.0828 -0.1857 -0.0678
 5082W        W21343  11.717   0.335  16.813  0.0487 -0.0430  0.2506
 5083W        W21344  14.878   7.675  14.082  0.0190 -0.1176  0.0207
 5084W        W21345   6.066   5.481   1.664  0.0866 -0.1811 -0.1551
 5085W        W21346   4.248  16.004  15.924 -0.2206  0.0536  0.0576
 5086W        W21347  10.884   3.895  12.050 -0.0686  0.0779  0.1461
 5087W        W21348   6.897   9.952  12.324  0.1646 -0.2955 -0.1693
 5088W        W21349  15.162   6.018  12.706  0.2595  0.2748 -0.1123
 5089W        W21350   5.722  16.853   0.080  0.1616 -0.1547  0.0291
 5090W        W21351  14.379   1.520  14.379 -0.1089  0.1722 -0.2180
 5091W        W21352  15.431  13.407   1.614 -0.2000  0.0166  0.1966
 5092W        W21353   2.394   0.558   4.241  0.1655 -0.0682  0.1090
 5093W        W21354   4.975   6.889  13.905 -0.0308 -0.0391 -0.1702
 5094W        W21355   1.029   2.156   4.580 -0.1826 -0.2657  0.0773
 5095W        W21356   0.544  11.734  13.173 -0.0525 -0.0873  0.1166
 5096W        W21357   3.515   6.389   4.725  0.0865 -0.1534 -0.0699
 5097W        W21358   4.146   1.741  11.966 -0.1447 -0.2115  0.2777
 5098W        W21359   9.561  13.965   0.347 -0.0698  0.2433 -0.3563
 5099W        W21360  11.096   7.112   1.636  0.1502  0.0506 -0.1754
 5100W        W21361   4.288   6.510   2.339  0.3433  0.0760  0.2963
 5101W        W21362   8.893   4.582  15.950  0.3536 -0.0806 -0.0644
 5102W        W21363   9.846   6.804   3.251 -0.1949 -0.3334 -0.0088
 5103W        W21364   8.101  11.457   2.181 -0.2395 -0.1605 -0.0937
 5104W        W21365  16.133   9.363   1.983 -0.1803 -0.2537  0.3189
 5105W        W21366  10.619  10.675   1.737 -0.2610  0.0884 -0.0765
 5106W        W21367  17.066  11.286   2.896  0.4797 -0.2640 -0.0213
 5107W        W21368  13.554  10.668   5.883 -0.0694  0.0719 -0.1070
 5108W        W21369  14.271  10.273   3.876 -0.2370  0.1709  0.0374
 5109W        W21370  10.341  14.164   3.707  0.0354  0.2296  0.0814
 5110W        W21371   8.412   1.548   3.171  0.0538 -0.0880 -0.0483
 5111W        W21372   1.965  16.593  13.264  0.0927 -0.5818  0.1167
 5112W        W21373   4.905   3.386  14.806 -0.1462 -0.4456  0.0830
 5113W        W21374  15.189   6.117  16.401 -0.1635 -0.1202  0.1302
 5114W        W21375   2.664   9.066   2.021 -0.1026  0.3202 -0.0037
 5115W        W21376  10.484   0.308  14.680  0.3702  0.0793  0.5574
 5116W        W21377  10.460   2.031  13.821  0.2269  0.1161 -0.2853
 5117W        W21378  11.858  13.235  15.566  0.1276  0.0949  0.0975
 5118W        W21379   2.624  11.870   2.316  0.0807 -0.0142  0.1494
 5119W        W21380   3.911   0.886   6.283  0.0511 -0.1989 -0.2138
 5120W        W21381  17.293   8.839   2.379 -0.0001 -0.5458 -0.0026
 5121W        W21382  11.753  16.605  12.976  0.0489 -0.0319 -0.1363
 5122W        W21383   5.386  16.954  16.577  0.0333 -0.2094  0.1806
 5123W        W21384   3.836   2.164   6.202 -0.0818  0.2052 -0.2569
 5124W        W21385  17.795   5.530   5.251  0.3599 -0.1648 -0.0943
 5125W        W21386   6.413  16.739  15.793  0.0859 -0.4530  0.2900
 5126W        W21387  13.318   4.688  15.955 -0.0772  0.2526  0.0909
 5127W        W21388   8.696   0.395  11.821  0.0725  0.3181  0.2818
 5128W        W21389  17.131   5.396   1.501  0.2059 -0.2463 -0.4248
 5129W        W21390  12.738   1.566  12.249  0.1707  0.1047  0.1547
 5130W        W21391  16.622  17.367  13.551  0.2220  0.1549 -0.1973
 5131W        W21392   0.293  11.518  14.570 -0.2319 -0.1154  0.0564
 5132W        W21393  15.356  12.092   5.381 -0.1410 -0.0308 -0.1449
 5133W        W21394  16.454  13.039   6.115 -0.0950  0.2423 -0.3085
 5134W        W21395   8.270  13.564   5.327 -0.0763  0.1313  0.0372
 5135W        W21396  15.430   3.116  13.586 -0.0505  0.1154 -0.0812
 5136W        W21397   6.259  15.692   2.971 -0.1597 -0.0240 -0.1510
 5137W        W21398   3.354   9.460   5.942  0.0337 -0.1953  0.1894
 5138W        W21399   9.509   3.940   4.108  0.0530 -0.3097 -0.1199
 5139W        W21400  16.165   5.735  11.427 -0.0434  0.2035 -0.2491
 5140W        W21401   0.846  15.904  11.679 -0.1077  0.1309 -0.1683
 5141W        W21402   7.815  16.252  14.893  0.1021 -0.2596 -0.0878
 5142W        W21403  15.187   1.313   3.553 -0.3267  0.2621  0.0749
 5143W        W21404   2.603  13.751   1.693 -0.3343 -0.0359 -0.0465
 5144W        W21405   6.233  11.917  15.587 -0.0559  0.4403  0.4525
 5145W        W21406  11.633  14.595  14.993 -0.0924 -0.2711  0.2786
 5146W        W21407   1.394   9.786  13.662  0.0137  0.0412  0.0004
 5147W        W21408   3.560   8.618   1.488  0.0768  0.1738 -0.0071
 5148W        W21409   5.183  13.855   1.275  0.1867  0.1550  0.0705
 5149W        W21410   6.387   8.742   0.377 -0.4072  0.1212 -0.0086
 5150W        W21411   3.817   0.238   3.117  0.3259  0.1262  0.1483
 5151W        W21412   4.027  13.414   0.168 -0.0688 -0.5288 -0.2334
 5152W        W21413  15.614  17.638  12.097 -0.2292  0.2289  0.3866
 5153W        W21414   6.263  10.866  11.953  0.0220  0.0987  0.0701
 5154W        W21415  13.448   5.993   2.632  0.1482  0.1183 -0.0816
 5155W        W21416   8.992   9.945   1.081 -0.0725  0.1176  0.2627
 5156W        W21417   9.662   9.428   6.148 -0.0418 -0.2523 -0.1803
 5157W        W21418  16.663   8.032   5.511 -0.0575 -0.1891 -0.0070
 5158W        W21419   1.848   2.996  11.828 -0.1246 -0.0150  0.1524
 5159W        W21420   2.828  16.861   3.223 -0.5988  0.0132  0.1553
 5160W        W21421  13.596  10.694   0.889 -0.1734  0.1358  0.1534
 5161W        W21422  13.816  11.498   5.150  0.2977 -0.0677  0.0447
 5162W        W21423   3.022   6.337   2.825  0.2571 -0.1355  0.1888
 5163W        W21424   5.844  11.749  12.881  0.1776 -0.0396 -0.0144
 5164W        W21425   6.678   7.607   2.463  0.1997 -0.0600  0.0260
 5165W        W21426  16.783   3.653   0.575 -0.0331 -0.1386  0.0954
 5166W        W21427  15.468   5.389  16.112 -0.2994  0.0544 -0.2224
 5167W        W21428   2.480  13.150   0.306  0.2884 -0.4178 -0.0947
 5168W        W21429   8.666   4.395   1.812  0.0537  0.2974  0.0960
 5169W        W21430   1.016  17.735  12.732 -0.2698  0.0815  0.3230
 5170W        W21431  13.594   3.200  14.675  0.1314  0.0653  0.3556
 5171W        W21432  17.444   3.014  13.728  0.0829 -0.3237  0.0889
 5172W        W21433  14.682  10.241  15.721 -0.1025  0.0130 -0.1467
 5173W        W21434  11.674   6.915  12.448 -0.1615  0.3808  0.3073
 5174W        W21435   3.909   9.265   2.440  0.4032 -0.2641  0.0489
 5175W        W21436  15.079   6.174   2.926  0.2133  0.0765  0.2559
 5176W        W21437  12.035   2.481  13.685  0.0193 -0.3174 -0.1468
 5177W        W21438  10.536   1.436   6.436  0.2088 -0.0568  0.2047
 5178W        W21439  11.420  11.853   0.232  0.0536 -0.0601 -0.1244
 5179W        W21440  10.275  14.522   0.878 -0.0180  0.1825 -0.1481
 5180W        W21441   9.682  14.958  15.113  0.0416  0.2974  0.1169
 5181W        W21442  13.578  10.987   1.519 -0.1237 -0.5853 -0.4463
 5182W        W21443   7.006   5.696   3.784  0.0784 -0.0354  0.0732
 5183W        W21444   5.024   4.029  12.362  0.0804  0.1126 -0.0918
 5184W        W21445  12.567   1.082  12.511  0.2557 -0.0008  0.1041
 5185W        W21446  17.703   4.040  13.933  0.2673  0.3408 -0.0202
 5186W        W21447  14.575   1.539  12.535  0.3145  0.2163 -0.1672
 5187W        W21448  14.372   3.641   3.835  0.0627 -0.2362 -0.1689
 5188W        W21449   4.372  16.824   0.404  0.2085  0.2709 -0.0668
 5189W        W21450   2.748   3.735   4.488  0.3049 -0.2869 -0.1584
 5190W        W21451  16.784  15.688   2.277  0.0680  0.0968  0.1989
 5191W        W21452  15.401   9.829   1.368 -0.1391  0.0234 -0.0520
 5192W        W21453   5.057   1.153  12.289  0.3495 -0.0880 -0.2865
 5193W        W21454  13.255   3.179   3.925  0.0822 -0.0120 -0.1567
 5194W        W21455   6.900  11.631   0.334  0.0708 -0.1729  0.0822
 5195W        W21456  14.258   3.852  14.199  0.1894 -0.0951 -0.0739
 5196W        W21457   3.714   2.239   0.425 -0.2429 -0.2328  0.2343
 5197W        W21458  14.578  13.050   5.997  0.0772  0.0163 -0.1496
 5198W        W21459  11.013   3.528  14.162 -0.1176 -0.0924  0.1237
 5199W        W21460  12.973   0.112  16.957  0.1367  0.3165 -0.1424
 5200W        W21461   3.672  15.252  16.233 -0.0513 -0.0339 -0.0170
 5201W        W21462  15.747   3.992   2.389 -0.0697 -0.0104  0.0852
 5202W        W21463   0.187   2.063   3.694 -0.4029 -0.0813 -0.0772
 5203W        W21464  11.431   6.878  13.028  0.2679 -0.1458 -0.3399
 5204W        W21465   2.287  12.222   3.816  0.1940  0.0657 -0.1065
 5205W        W21466   3.274  15.939   5.100  0.2792  0.0621 -0.0157
 5206W        W21467   4.529  10.416  14.067  0.2930  0.2405 -0.1331
 5207W        W21468  17.199  11.323   3.431  0.1109  0.1311  0.1076
 5208W        W21469  15.807   3.268   5.116 -0.0128  0.2653 -0.2093
 5209W        W21470   5.308   3.897  14.732 -0.1338 -0.3805 -0.1600
 5210W        W21471  17.404  11.616   3.082 -0.2164  0.4347  0.0228
 5211W        W21472  17.123  10.463   6.008  0.0343  0.0427  0.0864
 5212W        W21473  17.136  16.941  15.217 -0.5992 -0.3341 -0.2873
 5213W        W21474   2.336   4.772   1.559  0.3242 -0.1276  0.1915
 5214W        W21475   2.771   6.630   0.147 -0.3004  0.1352 -0.0435
 5215W        W21476   4.727   0.442   0.797 -0.3600  0.2451  0.2988
 5216W        W21477  12.279   0.797   2.003 -0.1526 -0.2218  0.1188
 5217W        W21478  11.810  10.449   2.551 -0.4380  0.1231 -0.2533
 5218W        W21479  14.397  15.577   0.195 -0.0868  0.3492  0.2452
 5219W        W21480  14.957  12.922  16.963  0.0293  0.0127 -0.1453
 5220W        W21481   6.613  15.563   1.688 -0.0957 -0.1169  0.0199
 5221W        W21482  17.501   1.257  16.040 -0.2781  0.3513  0.2198
 5222W        W21483   3.674   0.292  16.838  0.0798 -0.1526 -0.2733
 5223W        W21484   6.626   5.588   3.030 -0.4300  0.0923  0.0566
 5224W        W21485   7.548   9.032  16.094  0.0223  0.2740 -0.3658
 5225W        W21486  17.428  16.053  13.712  0.2084 -0.1538 -0.0762
 5226W        W21487   0.991  16.282  16.018 -0.0575 -0.0326  0.0621
 5227W        W21488   1.380  15.619   5.279  0.0412  0.3711 -0.0143
 5228W        W21489   8.475  16.116   0.103 -0.0213  0.1229 -0.3474
 5229W        W21490   5.005   7.430  15.093 -0.0752  0.0008 -0.0030
 5230W        W21491   8.373   5.352  16.795 -0.0728 -0.0449  0.1505
 5231W        W21492   0.294   1.787  13.738  0.0418  0.0300  0.0189
 5232W        W21493  13.218  13.259  16.594  0.2758 -0.0668 -0.0981
 5233W        W21494   9.026  15.991   4.047  0.5597  0.2199 -0.1083
 5234W        W21495   9.781   4.263   2.724  0.1688 -0.2616  0.1783
 5235W        W21496   4.105  17.058   2.814  0.0528 -0.0887  0.2338
 5236W        W21497   7.679  13.060  12.566 -0.0501  0.0090 -0.2359
 5237W        W21498  15.090  15.070  15.576  0.1774  0.0322 -0.1952
 5238W        W21499   3.117   3.218   2.121  0.2427 -0.2558 -0.1238
 5239W        W21500   0.827  14.756  12.998 -0.0928  0.2385  0.1797
 5240W        W21501  16.280  11.641  12.716  0.2969  0.0703  0.0051
 5241W        W21502   0.470   5.247   1.353 -0.0365  0.3028 -0.1132
 5242W        W21503  14.687   2.977   4.122 -0.0891  0.1209  0.0520
 5243W        W21504  13.033   3.931  11.713  0.2234 -0.0576 -0.0192
 5244W        W21505  11.310  11.322  15.059 -0.0472 -0.0993 -0.0471
 5245W        W21506  16.910  10.612  11.928 -0.3094 -0.0441 -0.2060
 5246W        W21507  16.685   8.570  15.088 -0.1168  0.0704  0.4143
 5247W        W21508   1.435   0.838   4.411  0.2751  0.0849 -0.1864
 5248W        W21509   3.228  16.593  14.664  0.3897 -0.2666  0.1995
 5249W        W21510  10.921   1.640  15.275 -0.1838 -0.1155  0.1246
 5250W        W21511   1.178   2.450  13.763  0.0156  0.1774  0.4799
 5251W        W21512  13.614   5.416   0.061 -0.1511  0.1215 -0.0838
 5252W        W21513  13.320  10.208   4.177  0.2640  0.1333 -0.0297
 5253W        W21514  17.390   9.951   0.931  0.1135 -0.0373 -0.0810
 5254W        W21515  12.672   7.478   1.180  0.1537 -0.0552  0.1559
 5255W        W21516   1.684  10.306   3.370  0.0012  0.0890 -0.3249
 5256W        W21517  15.890  12.443  15.881 -0.2851  0.1321  0.0919
 5257W        W21518   3.454   5.152  12.230 -0.0397  0.0524 -0.1325
 5258W        W21519   9.322  10.001   3.935 -0.2510  0.0883 -0.0401
 5259W        W21520   4.726  10.061  16.941 -0.0518  0.1608 -0.1316
 5260W        W21521   7.535  14.443   1.221 -0.1042 -0.2161  0.0970
 5261W        W21522   6.926   2.887   5.507 -0.4718 -0.1875 -0.0095
 5262W        W21523  11.224  10.334  15.926 -0.0448  0.1511 -0.0037
 5263W        W21524  17.333  17.085   3.859 -0.3297 -0.1784  0.1075
 5264W        W21525   0.733  14.391  14.847 -0.0595 -0.2038 -0.2028
 5265W        W21526  10.255   4.203   3.983 -0.0876  0.1513  0.1320
 5266W        W21527  12.153  10.806  12.641 -0.3987 -0.0557 -0.0279
 5267W        W21528   3.156   3.227   2.672 -0.0081  0.0211 -0.1383
 5268W        W21529   2.251  13.479  16.435 -0.0881  0.1566 -0.1059
 5269W        W21530   8.007  12.871   0.612  0.0922  0.0217  0.1231
 5270W        W21531  16.129  13.343   0.541  0.0752  0.3385  0.0823
 5271W        W21532   8.980  17.409  16.016  0.0640  0.0324  0.2058
 5272W        W21533   4.299  16.955   4.703 -0.1109 -0.0475  0.2006
 5273W        W21534   7.711  17.688   3.519  0.1088 -0.0575  0.0103
 5274W        W21535   4.861  17.773  11.604 -0.0314 -0.1338  0.0434
 5275W        W21536  16.242  14.437   5.944  0.0545  0.1287 -0.1685
 5276W        W21537   9.428   0.600   1.281  0.1400 -0.3147  0.2034
 5277W        W21538  10.569   4.476  16.243  0.1550 -0.1035 -0.0736
 5278W        W21539   9.270  13.478   0.606 -0.0197 -0.3556 -0.0587
 5279W        W21540   7.903  12.125   4.444  0.1425 -0.4283  0.0790
 5280W        W21541   1.000  13.651  14.461 -0.1862  0.2994  0.1687
 5281W        W21542  10.923  11.792   5.456 -0.0694  0.1954  0.2631
 5282W        W21543   6.674   9.143  15.963 -0.1968  0.0228 -0.1736
 5283W        W21544  13.000   3.161  12.832  0.0949  0.2514 -0.0786
 5284W        W21545   5.588  14.124  13.107 -0.2238 -0.0324  0.1249
 5285W        W21546   7.606  10.135   0.004 -0.3885  0.1178 -0.0351
 5286W        W21547  12.036  15.197  12.063 -0.2986 -0.4691 -0.2908
 5287W        W21548  10.793   5.195  16.234  0.3757 -0.1702  0.1335
 5288W        W21549   5.679  13.513  12.643 -0.1140 -0.0172 -0.0211
 5289W        W21550  14.731   5.270  11.844 -0.0010  0.0194 -0.0397
 5290W        W21551   8.197   6.442  15.697  0.0320  0.2583  0.4105
 5291W        W21552  10.038   0.998  15.216 -0.1413 -0.0306  0.0442
 5292W        W21553   1.053   4.362  12.879  0.1020 -0.0670 -0.3002
 5293W        W21554  12.635  16.725   1.681 -0.1380 -0.1567  0.2616
 5294W        W21555   1.951   3.530   4.415 -0.0285  0.0248 -0.0933
 5295W        W21556  11.341  13.757   0.388  0.1170 -0.0004  0.0927
 5296W        W21557   9.313   1.388   5.232 -0.0438  0.2101  0.2705
 5297W        W21558  10.106  15.606   0.814  0.0624  0.0708  0.1955
 5298W        W21559   0.204   2.959   2.241 -0.0582  0.3311  0.4670
 5299W        W21560   6.370   9.550   4.620  0.5093  0.0744 -0.1105
 5300W        W21561  14.364   9.259   0.888 -0.0323 -0.1718 -0.2733
 5301W        W21562   2.351   2.727   4.605 -0.1554 -0.3019 -0.0265
 5302W        W21563   2.309   3.578  14.888  0.0313 -0.1394 -0.1721
 5303W        W21564   9.548   1.854  12.230  0.1231  0.0179 -0.0521
 5304W        W21565  10.037   8.369  14.211 -0.1985  0.0639  0.2234
 5305W        W21566   5.193  11.557   1.088  0.0258  0.1597  0.0745
 5306W        W21567   7.124  14.738   4.354  0.0259  0.0645 -0.1093
 5307W        W21568   6.807   2.623   2.436 -0.3120  0.1467 -0.2458
 5308W        W21569   8.344   3.217   5.448 -0.0616  0.1402  0.0536
 5309W        W21570   6.979   8.560  12.340  0.2279  0.1550  0.3291
 5310W        W21571  13.954   9.028   1.335  0.2618 -0.1475  0.1204
 5311W        W21572   5.192   6.867   0.375  0.0913  0.0242  0.0454
 5312W        W21573  17.338  15.232  13.536  0.0519  0.1996  0.1593
 5313W        W21574   9.336  13.882  13.282  0.0356 -0.1427  0.2012
 5314W        W21575   7.059   8.084   4.061 -0.3362 -0.0653 -0.2481
 5315W        W21576  13.576   1.212   1.699  0.1049  0.1364  0.1293
 5316W        W21577  11.126  11.990   4.966  0.0394 -0.1862  0.0901
 5317W        W21578   5.420  16.473   1.797 -0.1987  0.0196 -0.3153
 5318W        W21579   3.750  17.685   4.562 -0.1938 -0.0321 -0.0017
 5319W        W21580  10.670   3.858   5.867  0.0242  0.0623 -0.3248
 5320W        W21581  11.013  13.489  16.840  0.2295 -0.0644  0.0168
 5321W        W21582   6.017  11.180   0.800 -0.1794  0.1152 -0.0699
 5322W        W21583  14.807  14.975   5.389  0.0299 -0.0926  0.1694
 5323W        W21584  16.718  13.276   5.774 -0.2636  0.3627  0.2791
 5324W        W21585   5.786   4.133  14.062  0.1292 -0.1716  0.3060
 5325W        W21586   6.646  11.702  12.378  0.3307  0.0429  0.4113
 5326W        W21587  14.694   8.829   4.809  0.0492 -0.1984 -0.0009
 5327W        W21588   2.346  14.194  14.412 -0.1358  0.1126  0.1493
 5328W        W21589   6.520   1.023   0.891  0.0728  0.0855  0.0863
 5329W        W21590   4.279  10.699   0.443 -0.1224  0.2412 -0.1684
 5330W        W21591   6.215   0.189  15.107 -0.1847  0.1942  0.1979
 5331W        W21592  12.759   5.010   1.206 -0.0451 -0.5849  0.0080
 5332W        W21593   1.229  10.583   5.399 -0.0375 -0.0089 -0.0362
 5333W        W21594   0.428   1.539   6.065  0.1435 -0.2020  0.0460
 5334W        W21595   8.939  16.260   1.911 -0.0915  0.1980 -0.0775
 5335W        W21596   5.601   6.750  12.310  0.0881  0.0611 -0.0221
 5336W        W21597   7.958   1.210   0.759 -0.2738  0.0446  0.1192
 5337W        W21598   0.379  17.333   1.070  0.2392 -0.2228  0.1158
 5338W        W21599   8.417   7.649  12.915  0.0490  0.2172 -0.5279
 5339W        W21600  13.152   7.577  15.289  0.1278 -0.1106 -0.0623
 5340W        W21601  12.373  10.682   3.469 -0.0397 -0.1051  0.3769
 5341W        W21602   7.504   2.935  16.686 -0.0633  0.3546  0.1450
 5342W        W21603   0.567   0.769   4.553 -0.1748 -0.1556 -0.0096
 5343W        W21604   9.205  14.466  12.519 -0.1409 -0.1657  0.0330
 5344W        W21605   0.312   7.316   6.048  0.0448 -0.2818  0.0406
 5345W        W21606   0.076   9.297  14.216 -0.0690  0.1642 -0.2383
 5346W        W21607  12.404  14.409   0.361  0.1943 -0.0668 -0.0276
 5347W        W21608   0.749  15.042   5.155  0.3990 -0.1180  0.0537
 5348W        W21609   2.309   3.049  14.516 -0.2605  0.3348  0.0795
 5349W        W21610  16.100  16.266   4.287  0.2316  0.1554  0.0255
 5350W        W21611  17.701   4.770  13.253  0.0208  0.2083 -0.0079
 5351W        W21612   4.400   2.392  16.186 -0.0672  0.1747 -0.5575
 5352W        W21613   0.998  13.408  11.969 -0.1673  0.2383  0.1455
 5353W        W21614  14.200   9.665  13.856  0.0156  0.0484  0.2048
 5354W        W21615   5.561   3.082   3.200 -0.0383 -0.0145 -0.1209
 5355W        W21616   5.953   5.797   0.831  0.1731 -0.4550 -0.3769
 5356W        W21617   4.565   2.919  15.862  0.0139 -0.1967  0.0176
 5357W        W21618  14.366   8.840  12.009  0.3281 -0.3892  0.1832
 5358W        W21619   5.762   0.580   5.415  0.0295 -0.0134  0.0742
 5359W        W21620   8.367   4.107   2.096 -0.1775  0.1825  0.0486
 5360W        W21621  12.278  15.931   4.543  0.0624 -0.2039 -0.1506
 5361W        W21622   1.536  10.247   0.706  0.0733 -0.0949  0.2057
 5362W        W21623  14.176  14.615  14.160  0.0185 -0.2201  0.0032
 5363W        W21624  17.728  14.534  15.125 -0.3106  0.1903 -0.0175
 5364W        W21625   8.954  12.831  12.530  0.1567  0.0346  0.2536
 5365W        W21626   2.269   7.520   5.435  0.0945 -0.1081  0.2277
 5366W        W21627  11.304  15.729   5.594 -0.1998  0.1767 -0.1448
 5367W        W21628   5.241   8.041  12.500 -0.0302 -0.0513 -0.0410
 5368W        W21629  15.865   7.529   6.037 -0.0427 -0.0456  0.0337
 5369W        W21630   8.618   9.980  11.884 -0.0869  0.1750  0.0801
 5370W        W21631  16.010  14.755   5.030 -0.0413  0.1509  0.3688
 5371W        W21632   7.989   3.907   1.830 -0.1529 -0.4130 -0.0479
 5372W        W21633   9.079   7.336   3.394 -0.1468  0.1194  0.0772
 5373W        W21634  15.042  12.186   1.495 -0.1689  0.0449 -0.0213
 5374W        W21635  15.594  12.519   0.614 -0.2556 -0.0437 -0.0800
 5375W        W21636   1.907  17.312  15.896 -0.1007 -0.0952 -0.0515
 5376W        W21637   1.589  13.947   0.011 -0.1654 -0.1511  0.0713
 5377W        W21638  16.985   4.044   3.863  0.3673 -0.0801 -0.1412
 5378W        W21639   7.956  16.709   0.635  0.0697 -0.0019  0.0335
 5379W        W21640   1.409  15.613   1.006 -0.0246 -0.0613  0.0281
 5380W        W21641   6.562  10.290   4.264  0.0768  0.0712  0.3219
 5381W        W21642   2.353   7.388   0.481 -0.0108  0.0436 -0.0666
 5382W        W21643  13.414   3.806   4.773 -0.2260 -0.1944 -0.1132
 5383W        W21644   4.596   4.954   1.315  0.1726  0.0686 -0.1488
 5384W        W21645  17.102  11.428   1.080  0.1606  0.0224  0.1522
 5385W        W21646   8.969   7.282  16.884 -0.1263  0.1485 -0.3618
 5386W        W21647   1.217   1.023  13.317 -0.1349  0.1860 -0.1544
 5387W        W21648   5.565   2.579  15.036 -0.3747 -0.3696  0.2406
 5388W        W21649  10.220  13.166  10.273 -0.2287  0.2308  0.0271
 5389W        W21650  14.606  14.021  12.755  0.1303 -0.1951 -0.1774
 5390W        W21651  12.922   5.517  13.525  0.1857 -0.1869  0.3041
 5391W        W21652   5.003   8.598  11.881  0.0026  0.2379 -0.0746
 5392W        W21653  17.044   3.977   5.263  0.1829 -0.0528 -0.0086
 5393W        W21654   4.120   6.246  14.289  0.0429  0.4064 -0.1821
 5394W        W21655   3.073  13.480   4.297 -0.0637 -0.2689  0.0625
 5395W        W21656  10.515   0.360  13.418  0.1452  0.2110  0.2913
 5396W        W21657  10.975   7.590  16.130 -0.0200 -0.0265 -0.0817
 5397W        W21658  16.511   2.821  15.764  0.0811  0.0495  0.1273
 5398W        W21659   4.951   1.957   4.758  0.0136  0.0201 -0.0870
 5399W        W21660  14.633   8.691  14.305 -0.0316  0.1085  0.1785
 5400W        W21661   7.907  12.647   3.608 -0.0954  0.0354 -0.0011
 5401W        W21662   9.248  10.912   4.701  0.0939  0.1758 -0.1094
 5402W        W21663   5.389   3.162   0.355  0.3196 -0.1405 -0.3562
 5403W        W21664  16.707  12.159  15.885  0.0788  0.0652 -0.0047
 5404W        W21665  14.352   4.971   5.887  0.1544  0.0148  0.2107
 5405W        W21666   4.834   3.776  16.639 -0.0522 -0.0546  0.2207
 5406W        W21667   5.675   5.339   5.061  0.1812 -0.1881  0.4269
 5407W        W21668  14.331   7.251  13.866 -0.1045 -0.1113 -0.3656
 5408W        W21669   0.781   7.968  15.259  0.1339  0.1260 -0.2523
 5409W        W21670   9.149   4.549  11.869  0.1716  0.0167  0.2533
 5410W        W21671   2.340  17.406  13.283  0.0306  0.1001 -0.0838
 5411W        W21672   5.159   3.899   1.306 -0.2406 -0.0333  0.0786
 5412W        W21673   8.975   3.141   4.119 -0.0774 -0.0918  0.0397
 5413W        W21674   6.249   1.214   4.837  0.0801 -0.0615  0.2948
 5414W        W21675  16.918   4.873   1.492  0.0857  0.1830 -0.4041
 5415W        W21676   7.445   9.789  16.711 -0.0392  0.3322  0.2512
 5416W        W21677   0.566   7.394   1.041  0.1018  0.0491 -0.2797
 5417W        W21678   7.210   6.102   1.023  0.1075  0.0788 -0.1017
 5418W        W21679   1.457   8.311   2.583  0.0550 -0.1499  0.2676
 5419W        W21680   2.180   8.571  12.106  0.3500  0.2195  0.1282
 5420W        W21681  17.731   1.349  15.005 -0.0922 -0.0307 -0.2022
 5421W        W21682  13.417  13.223   5.072  0.0757 -0.4168  0.1950
 5422W        W21683   2.760   6.340  14.544  0.4430 -0.0044  0.4838
 5423W        W21684   7.363   7.048   0.370  0.2519  0.2768 -0.1400
 5424W        W21685   1.468   9.616   0.839  0.1624 -0.3516  0.3978
 5425W        W21686  10.094   6.248   0.538 -0.0069 -0.1064  0.1042
 5426W        W21687   1.308   6.872  13.323 -0.0516  0.3069 -0.0014
 5427W        W21688   9.466  14.392  14.053  0.0158 -0.0388 -0.2653
 5428W        W21689  13.376   3.434   1.747 -0.0073  0.2680 -0.0667
 5429W        W21690   2.303   4.284   6.559 -0.1785 -0.2035  0.0586
 5430W        W21691  12.876  13.455  11.906 -0.0387 -0.0813 -0.1621
 5431W        W21692  17.347   3.456  12.727  0.1696 -0.2355  0.0596
 5432W        W21693  15.738   2.047  16.557 -0.2086 -0.0991  0.1908
 5433W        W21694  12.331   0.944  12.045 -0.3046 -0.1114  0.1281
 5434W        W21695   9.108   8.902   2.201 -0.1384 -0.0292  0.0245
 5435W        W21696  14.967   4.108   1.249 -0.1147  0.1599  0.2249
 5436W        W21697   2.026   1.800  13.956 -0.0264  0.1391 -0.1348
 5437W        W21698   7.712   5.582  15.852  0.3092  0.0328 -0.1966
 5438W        W21699   8.531   0.520  12.562 -0.2036  0.3940  0.3166
 5439W        W21700   5.018   7.512  16.671  0.0320  0.0666  0.4287
 5440W        W21701  15.239  11.944  16.702 -0.1153 -0.1183  0.2282
 5441W        W21702   1.276   0.299   1.801 -0.2373 -0.1615 -0.0696
 5442W        W21703   1.385   3.658  13.336 -0.0286  0.0632 -0.2950
 5443W        W21704  17.432   8.882  11.665 -0.0986 -0.0634  0.0748
 5444W        W21705   3.142  16.941  16.033  0.1142  0.2317  0.1159
 5445W        W21706   6.565   9.176   4.898  0.2162  0.1652  0.1970
 5446W        W21707   5.863   5.786   2.041  0.1321  0.0763 -0.0623
 5447W        W21708   8.104   1.140  13.700 -0.0158 -0.0091 -0.2307
 5448W        W21709   1.893  13.377  11.608 -0.1160 -0.2427  0.1698
 5449W        W21710   2.157   5.723   2.310 -0.1048  0.1018  0.1126
 5450W        W21711  12.835  17.780   4.674 -0.1965  0.1535 -0.0604
 5451W        W21712  11.033   2.652  11.544  0.0061 -0.2789 -0.3140
 5452W        W21713  13.906   0.098   3.895  0.0553 -0.0542  0.1909
 5453W        W21714   7.033   5.616   1.720  0.0548  0.1016 -0.1749
 5454W        W21715  12.961  10.580  12.802  0.0827  0.4298  0.0168
 5455W        W21716  17.727  10.033   5.032 -0.0976 -0.1359 -0.0490
 5456W        W21717   7.296  14.284  11.432 -0.0915 -0.0228  0.1293
 5457W        W21718  16.252   1.285  14.763 -0.0320  0.1275  0.1692
 5458W        W21719  16.072   4.262   2.926 -0.1581 -0.3971  0.3727
 5459W        W21720  14.449  11.105  16.212 -0.1568 -0.2371  0.1302
 5460W        W21721  10.773   3.435  14.706 -0.1175 -0.2079  0.1120
 5461W        W21722   5.886   1.541  12.106  0.0603 -0.2295 -0.2304
 5462W        W21723   3.332   9.629  15.180  0.0044 -0.2332  0.0750
 5463W        W21724  17.143  11.045   2.285  0.1671  0.0196 -0.2779
 5464W        W21725  11.375   7.770   0.387 -0.1880 -0.3044  0.3516
 5465W        W21726   1.759  17.020   5.724  0.3318 -0.1192  0.2760
 5466W        W21727  11.634   8.750  15.807 -0.2582 -0.4642  0.0304
 5467W        W21728  13.731  10.552   3.561 -0.0847 -0.0418  0.1552
 5468W        W21729  15.467   4.918  15.887 -0.4194  0.1912 -0.1312
 5469W        W21730   3.679  14.678  15.150  0.0045  0.2074 -0.2612
 5470W        W21731  11.209  11.281   3.726 -0.3537 -0.3358  0.0404
 5471W        W21732  11.367   9.430  12.829  0.1157  0.2078  0.0154
 5472W        W21733   8.780  11.416   2.786 -0.0247  0.0814 -0.0520
 5473W        W21734   4.492   6.622   1.881  0.1124 -0.0195 -0.2363
 5474W        W21735   2.616   7.264   0.851 -0.1646  0.1433 -0.1202
 5475W        W21736  13.620  14.646   5.761  0.0568  0.0398 -0.1559
 5476W        W21737   8.134  14.366  11.947 -0.1710 -0.0956  0.0833
 5477W        W21738   3.603  16.042   2.088 -0.0098 -0.1396 -0.1599
 5478W        W21739  15.583   8.573  14.542  0.1331 -0.2255 -0.0845
 5479W        W21740   3.737   5.787  15.058  0.0970 -0.0622 -0.1513
 5480W        W21741  11.339  16.088  16.762 -0.3234  0.0401  0.0258
 5481W        W21742  11.002   4.995   0.402  0.1515  0.2212  0.2412
 5482W        W21743   6.827   1.554  15.776  0.0035  0.1106 -0.1574
 5483W        W21744   1.543  14.636  14.847 -0.0533  0.0719  0.0778
 5484W        W21745   1.815   9.509  12.947  0.1369  0.1038 -0.0763
 5485W        W21746  15.415  14.273  15.008  0.1769 -0.0523  0.1702
 5486W        W21747   2.672   3.790   3.540  0.2849  0.0168  0.0682
 5487W        W21748  11.534   6.570   4.994 -0.0978  0.2416 -0.1133
 5488W        W21749  17.297  15.396  12.875  0.2071 -0.0921 -0.1214
 5489W        W21750  13.309   7.449   3.898 -0.0479 -0.0605  0.1455
 5490W        W21751   0.649   7.744  16.069 -0.0813  0.4469 -0.3199
 5491W        W21752  11.607   2.102   2.455  0.3014 -0.1759 -0.0924
 5492W        W21753  10.810  17.266   4.100  0.0174  0.0290 -0.3765
 5493W        W21754  15.835   8.869   0.394  0.2621  0.0587  0.0691
 5494W        W21755   4.481  16.691   1.355 -0.2366  0.1175  0.1190
 5495W        W21756   2.490   4.246   4.637 -0.0150  0.0858  0.1782
 5496W        W21757   5.867   8.419  11.643  0.1825  0.2274 -0.2211
 5497W        W21758   2.711   1.040  14.964  0.2831  0.2213 -0.0151
 5498W        W21759   9.459  15.127   2.294  0.2677  0.0836  0.3045
 5499W        W21760  12.331  13.753   5.993 -0.1954  0.2004 -0.1707
 5500W        W21761  16.844  16.807   4.339 -0.3079  0.0087  0.1857
 5501W        W21762  13.079   9.056   1.404 -0.2521  0.1608  0.0769
 5502W        W21763  10.157  17.187   5.593 -0.3622  0.0045  0.0183
 5503W        W21764  16.580  16.637  14.710 -0.1858 -0.1390 -0.0189
 5504W        W21765   3.682  17.655   1.853 -0.0274 -0.0435 -0.3881
 5505W        W21766  11.940  12.356   1.723 -0.0923  0.1507 -0.1927
 5506W        W21767  16.210  13.323   5.021  0.3349  0.4865 -0.1305
 5507W        W21768   2.406   9.052   0.785  0.1894 -0.1971  0.1616
 5508W        W21769  14.553   1.563  13.822 -0.2089  0.0433 -0.1484
 5509W        W21770  16.065  16.767   0.349  0.0172 -0.2636  0.0183
 5510W        W21771  12.456   5.032   5.295 -0.0497 -0.2202 -0.1197
 5511W        W21772  13.529   3.970   2.671 -0.5130  0.1022  0.0603
 5512W        W21773   3.042   3.230   4.379 -0.0472  0.0329 -0.2719
 5513W        W21774   5.698  17.320   1.989  0.1376 -0.0111 -0.1071
 5514W        W21775  14.479  15.152   4.422  0.1008  0.4994 -0.1038
 5515W        W21776   3.190  15.400   0.237 -0.3565  0.1347  0.0583
 5516W        W21777   5.003   0.329   5.529 -0.1612 -0.3295  0.2758
 5517W        W21778   0.646  11.073  12.571  0.0061 -0.2371 -0.0625
 5518W        W21779   6.859   4.951   4.208  0.2068  0.2916  0.0505
 5519W        W21780   3.307  15.248   5.816  0.0152  0.2156  0.2502
 5520W        W21781  16.450  12.908  13.675  0.4053  0.2889 -0.1237
 5521W        W21782   5.557   7.895  14.605 -0.3345  0.0048 -0.0303
 5522W        W21783   3.788   4.663  13.542 -0.0249 -0.3235  0.2316
 5523W        W21784   2.062   1.595  14.920 -0.1916 -0.1726  0.0084
 5524W        W21785   7.006   2.478  12.805  0.0909  0.0230 -0.0381
 5525W        W21786   4.857   4.743  16.610  0.0097  0.0069 -0.4744
 5526W        W21787   0.938   3.883   3.885  0.1282 -0.1004  0.2560
 5527W        W21788  10.938   6.878  13.482  0.2435 -0.1996  0.2348
 5528W        W21789  14.725  11.184  14.628 -0.4077  0.1739 -0.1783
 5529W        W21790  15.256  16.943  16.428  0.0264  0.4175 -0.1001
 5530W        W21791  15.904   4.144  13.109 -0.1450 -0.0040  0.1939
 5531W        W21792  16.445   6.626   4.072  0.3787  0.0713 -0.1316
 5532W        W21793  14.557   1.833  14.750  0.2968  0.0508 -0.0313
 5533W        W21794  13.785   4.825  12.956 -0.1633 -0.0002  0.0365
 5534W        W21795   0.848  15.444   0.791  0.4024 -0.1395 -0.0813
 5535W        W21796  12.044   5.587   5.824 -0.0212  0.0662 -0.1502
 5536W        W21797   1.034  16.837  13.886  0.0152  0.0121 -0.1492
 5537W        W21798   8.765   1.111   3.326  0.0675 -0.0994 -0.0107
 5538W        W21799   5.538  17.083  15.132 -0.0073 -0.0185 -0.1144
 5539W        W21800  13.680  17.401   3.813  0.0539  0.1931  0.1687
 5540W        W21801  10.618  13.745   3.782 -0.0067 -0.0271 -0.3163
 5541W        W21802   1.011  10.984   0.975  0.3519  0.2521 -0.2051
 5542W        W21803   0.233  10.007  16.228 -0.3312 -0.1430  0.0106
 5543W        W21804  10.103  16.331   3.265  0.0931 -0.2130 -0.2696
 5544W        W21805   7.682  15.031  14.707  0.0773  0.2547 -0.0613
 5545W        W21806   4.844  15.371  15.779  0.0680  0.0745  0.0338
 5546W        W21807   8.984  14.350  16.014  0.0527 -0.1174 -0.0276
 5547W        W21808   7.258   4.994   5.075 -0.0035 -0.0083 -0.0775
 5548W        W21809   0.494   2.659  11.717  0.1196 -0.1772  0.1796
 5549W        W21810   9.978   8.799   0.883 -0.3342 -0.0504  0.0396
 5550W        W21811  16.143  14.391   0.524 -0.3235 -0.3125 -0.0627
 5551W        W21812  12.008  14.721   2.211 -0.2379  0.2711 -0.3624
 5552W        W21813  15.984  12.738  14.544 -0.1542 -0.0190 -0.1056
 5553W        W21814   8.277   0.360  16.522 -0.1654 -0.0749 -0.1949
 5554W        W21815   9.335   0.541  12.999  0.2209 -0.4220  0.2385
 5555W        W21816   9.403   1.945   2.901 -0.2593 -0.0731  0.0213
 5556W        W21817  11.608   8.190   5.810 -0.0804  0.0644  0.2065
 5557W        W21818   6.720  10.468   2.345  0.1776  0.0660 -0.1907
 5558W        W21819   4.911  17.442  14.577 -0.0969  0.0851 -0.3579
 5559W        W21820  12.420   4.380  12.226  0.3007  0.1232  0.0408
 5560W        W21821  14.865   9.909  12.330  0.2002 -0.1549  0.1800
 5561W        W21822   3.048   5.081  12.494 -0.0756 -0.2518 -0.2181
 5562W        W21823   4.875   0.596   0.330 -0.1062  0.1756 -0.0956
 5563W        W21824  17.537  14.637  12.239 -0.0454 -0.0552  0.1728
 5564W        W21825   9.651  15.322  14.239  0.1664  0.0377 -0.0210
 5565W        W21826  16.413   2.211  15.750 -0.1084  0.1272 -0.1463
 5566W        W21827   3.215   4.629  12.370 -0.0868  0.2254 -0.0323
 5567W        W21828   2.325   8.746   3.141 -0.1366  0.2951  0.1260
 5568W        W21829   3.507   5.508  13.060 -0.0962 -0.1906  0.1337
 5569W        W21830   8.731   3.317  15.919  0.1580  0.0493  0.0058
 5570W        W21831   9.736  12.311   5.829 -0.0874 -0.1183 -0.1501
 5571W        W21832  15.636  17.605  13.676 -0.2231 -0.1322 -0.3171
 5572W        W21833   2.304   0.226  16.028  0.1340  0.2926  0.2342
 5573W        W21834  17.543  11.915   5.511 -0.1031  0.2203 -0.1444
 5574W        W21835  17.603  14.082   0.643 -0.0291 -0.0037  0.2517
 5575W        W21836  13.197  14.730  12.214 -0.1771  0.0028 -0.0801
 5576W        W21837  12.679  17.029  13.422 -0.1434  0.0874 -0.2018
 5577W        W21838   7.175   2.079  12.434  0.2977 -0.0928 -0.0772
 5578W        W21839   6.461   4.103   1.493 -0.0622 -0.0607  0.0181
 5579W        W21840   8.338   1.754  12.770  0.1038 -0.0698  0.0158
 5580W        W21841   1.499  12.717   2.854  0.3612 -0.1907 -0.0692
 5581W        W21842  15.287  16.006   1.014  0.0220  0.0026 -0.0383
 5582W        W21843  10.745   6.836  12.942 -0.1430  0.0945 -0.2657
 5583W        W21844   8.202  15.959   4.239  0.1240  0.2320  0.0783
 5584W        W21845   9.410  10.100   4.475  0.2168  0.1371  0.0898
 5585W        W21846   1.387  15.619  15.457  0.1180 -0.1576  0.3152
 5586W        W21847   1.495   6.456   0.319 -0.0634 -0.0135  0.0569
 5587W        W21848  16.798   5.002  10.770  0.1801 -0.1146  0.0648
 5588W        W21849   0.119   3.291   5.405  0.1387 -0.0240  0.1455
 5589W        W21850  13.516   4.995   2.881  0.1437  0.0081  0.1498
 5590W        W21851  14.904  14.729   4.297  0.0189 -0.3198 -0.1783
 5591W        W21852   7.883   8.486   3.661  0.1863  0.1593 -0.5956
 5592W        W21853   4.734  10.870  15.923  0.0561 -0.2452 -0.1024
 5593W        W21854  12.479   6.420   2.563 -0.1541 -0.1320  0.1762
 5594W        W21855   2.373  13.548  10.434 -0.3907 -0.0819 -0.0754
 5595W        W21856  16.551   3.652   1.069 -0.0544  0.0125 -0.1123
 5596W        W21857  13.326  11.712   2.049  0.1010 -0.0151 -0.3719
 5597W        W21858  10.271  15.698  13.475  0.1184  0.1288  0.2189
 5598W        W21859   3.822  14.844  14.605  0.0209 -0.0660 -0.0562
 5599W        W21860  14.745   3.218  14.753 -0.0305 -0.0847 -0.5176
 5600W        W21861   7.996   4.964  16.882 -0.1635 -0.1981  0.0232
 5601W        W21862   8.109   3.793  14.393 -0.2775  0.1460  0.0077
 5602W        W21863  15.372   8.695   6.135 -0.1494 -0.0070 -0.2670
 5603W        W21864  13.841  13.573   4.963  0.5133  0.2829  0.2376
 5604W        W21865   8.729  12.702   1.096 -0.0108  0.1758 -0.0807
 5605W        W21866  14.432   8.756   3.341  0.0850  0.0258 -0.1334
 5606W        W21867   6.587   8.943  16.527 -0.0273 -0.0390 -0.1491
 5607W        W21868  17.813  11.903  12.429  0.2144 -0.0322 -0.0057
 5608W        W21869  14.622   9.459   0.515 -0.1874 -0.0089  0.3269
 5609W        W21870   9.685  15.774   0.444  0.0011  0.1267 -0.3161
 5610W        W21871  10.985   9.268   5.400  0.0798 -0.1148  0.0073
 5611W        W21872   3.846   7.834  12.140 -0.2542 -0.0880 -0.3418
 5612W        W21873   3.338   0.018   1.616 -0.0777  0.1349  0.1233
 5613W        W21874   3.153   8.959   0.069  0.0727  0.2226 -0.0792
 5614W        W21875  12.556   8.005   5.548 -0.2319  0.1144  0.1604
 5615W        W21876  13.824   0.014  14.509  0.1216 -0.0296 -0.1297
 5616W        W21877   7.325   1.395  16.537  0.1227  0.2108  0.3047
 5617W        W21878  15.046  11.162   1.173  0.0443 -0.0903 -0.0729
 5618W        W21879   6.127   9.478   4.091  0.0236  0.3290 -0.0670
 5619W        W21880  10.058   7.340  13.410 -0.0152  0.0406 -0.1038
 5620W        W21881  14.607   9.909  15.209 -0.3066  0.1240  0.0739
 5621W        W21882   0.339  16.810  16.416  0.1051 -0.1962 -0.1839
 5622W        W21883   7.777  16.717   0.165  0.0486  0.4221  0.1985
 5623W        W21884  10.147  14.267   1.336  0.0334 -0.1608  0.1215
 5624W        W21885  13.642  10.815   2.551  0.1762  0.3156 -0.1707
 5625W        W21886   4.240  14.785  14.864  0.0866 -0.0237  0.0134
 5626W        W21887   4.954   1.932   1.364 -0.0942  0.2141 -0.0314
 5627W        W21888  16.116  14.329   2.763  0.1855 -0.0889  0.0317
 5628W        W21889   7.975   2.833   1.506  0.2136  0.2564  0.1668
 5629W        W21890   2.404  13.228   2.818 -0.1695 -0.0081  0.0369
 5630W        W21891  15.246  15.929  12.776  0.0707  0.0994  0.1243
 5631W        W21892   3.698  15.552   0.206 -0.0347  0.3111 -0.1927
 5632W        W21893  11.931  15.408  12.514  0.4034  0.0446  0.0232
 5633W        W21894  13.292   2.959  14.347  0.1291  0.4189  0.0572
 5634W        W21895   5.072  11.316   3.405  0.1079 -0.0144  0.0252
 5635W        W21896   3.071   8.852   2.906 -0.0839  0.0323  0.0852
 5636W        W21897   2.540  13.636   2.465 -0.0637  0.1241 -0.3284
 5637W        W21898  14.777   3.701  16.826 -0.0766  0.3394 -0.1000
 5638W        W21899   9.842   5.912  12.956  0.0677  0.0609  0.0126
 5639W        W21900   9.829  17.595  15.224  0.0723 -0.2477 -0.3156
 5640W        W21901   4.923  14.615   4.503 -0.0343 -0.0759 -0.0604
 5641W        W21902  12.593   1.317  16.932 -0.1380 -0.2881 -0.2698
 5642W        W21903  16.091  11.513   5.399  0.1248 -0.0378  0.0460
 5643W        W21904   1.151  17.854  11.350 -0.1279  0.0355  0.0042
 5644W        W21905   3.115  13.826   1.594  0.0228 -0.1013 -0.0095
 5645W        W21906  14.539  10.733  14.384 -0.0667  0.0449 -0.0633
 5646W        W21907   8.533   7.160   3.852 -0.0265  0.2240  0.4464
 5647W        W21908   0.585   9.195  12.251  0.0837  0.2541  0.1879
 5648W        W21909   2.331  16.356   4.706 -0.0591 -0.3851  0.0853
 5649W        W21910   7.929   4.902   4.054 -0.1701 -0.2093  0.0257
 5650W        W21911   6.086   9.635  15.176 -0.1277 -0.0195 -0.1174
 5651W        W21912   8.091  14.262  16.612  0.0576 -0.1660 -0.2048
 5652W        W21913  13.750   1.226  13.851  0.3497  0.1154 -0.0465
 5653W        W21914  12.163   1.661  12.739 -0.1517 -0.0520  0.0270
 5654W        W21915  11.018   9.283  15.995  0.1234 -0.2418 -0.0183
 5655W        W21916   3.375  17.781  16.673 -0.1643 -0.0403  0.2257
 5656W        W21917  16.704   6.701   2.126  0.0843 -0.0839 -0.1988
 5657W        W21918   9.888   7.818  13.220 -0.1568  0.1482 -0.0595
 5658W        W21919   3.908  13.399  16.095  0.0655 -0.0379  0.3378
 5659W        W21920   4.154  16.106   3.383  0.3044 -0.2533 -0.0248
 5660W        W21921   8.536   0.208   3.259 -0.1010 -0.4733 -0.1227
 5661W        W21922   4.944   4.042   5.941 -0.0838  0.2092  0.4721
 5662W        W21923  11.073  16.422  14.325  0.0528  0.3318 -0.1166
 5663W        W21924  17.698   0.567  12.174 -0.1484 -0.4094  0.1305
 5664W        W21925   8.653  14.919  13.127  0.1788  0.0553 -0.1838
 5665W        W21926  10.785   2.244  11.538 -0.0162  0.0543 -0.1457
 5666W        W21927  11.437   5.075   0.638 -0.1887 -0.1152 -0.2515
 5667W        W21928  17.317  10.969   3.997  0.0862 -0.3365 -0.1067
 5668W        W21929  17.722   0.198   1.793  0.2052  0.0689  0.0482
 5669W        W21930   3.169   2.134   0.569 -0.0687 -0.1490  0.0241
 5670W        W21931   4.974   6.867  12.560 -0.0277  0.2577  0.2525
 5671W        W21932   9.133   6.294   2.932  0.1495  0.2088 -0.2257
 5672W        W21933   6.453   5.770   5.749  0.2687  0.1636 -0.0702
 5673W        W21934   2.086   0.429   4.632 -0.0952 -0.0754 -0.3594
 5674W        W21935  14.902  15.807   1.243 -0.0758  0.0717  0.1514
 5675W        W21936   6.190   6.610   4.633  0.1501  0.0822 -0.3416
 5676W        W21937   7.568  17.362   3.081  0.1121 -0.0236  0.1307
 5677W        W21938   0.788  17.781  13.976 -0.0741 -0.1519 -0.0717
 5678W        W21939   7.619   0.236   2.323 -0.0212 -0.1098 -0.0943
 5679W        W21940  17.185   4.060   4.669 -0.1271 -0.0664  0.1708
 5680W        W21941  16.463   8.227  14.348 -0.0320 -0.0451  0.1069
 5681W        W21942  11.102   8.349   2.026 -0.2091 -0.0702 -0.0438
 5682W        W21943   9.459   4.928   6.070  0.1707 -0.0719  0.3834
 5683W        W21944   9.531   7.038  11.615  0.0889 -0.2015 -0.0611
 5684W        W21945  11.332  13.201   1.919  0.1988  0.0390  0.0797
 5685W        W21946   0.499  12.531  13.112 -0.0569 -0.2473  0.2588
 5686W        W21947  14.932   0.424  14.026  0.1273  0.0679 -0.2130
 5687W        W21948  10.743  17.688  15.844 -0.1419  0.2542 -0.1574
 5688W        W21949   3.710  14.606  12.226  0.2076  0.0034  0.1738
 5689W        W21950  10.221   9.620  16.164  0.0974  0.1768 -0.1164
 5690W        W21951   7.932  11.351   2.979  0.1848  0.0058  0.3223
 5691W        W21952   3.302   0.927  12.363  0.1743 -0.2531 -0.1190
 5692W        W21953  14.576   8.152  14.181  0.0212 -0.2161  0.3290
 5693W        W21954  13.589  14.289   0.898 -0.3196  0.0961 -0.1894
 5694W        W21955  13.316   1.056   4.688  0.1114  0.1444 -0.0187
 5695W        W21956   1.377   3.657   2.384 -0.0832 -0.0024  0.1941
 5696W        W21957   9.313  17.474   0.099 -0.0171 -0.0259 -0.1475
 5697W        W21958  15.313   3.158   3.864  0.2934 -0.2216 -0.1683
 5698W        W21959  12.951  10.327   3.873  0.0589 -0.1688  0.0040
 5699W        W21960   8.792  16.004  12.553  0.1573 -0.1978  0.1905
 5700W        W21961   3.190   8.942  12.124  0.0315  0.2882 -0.0576
 5701W        W21962  11.028  17.113  16.747  0.0896  0.1989 -0.1281
 5702W        W21963  10.264   2.113   2.317 -0.1083 -0.0797 -0.1513
 5703W        W21964  14.948   6.030  16.797  0.0324 -0.0891 -0.1644
 5704W        W21965   8.269   9.461   3.530  0.5758  0.2142  0.1917
 5705W        W21966   8.216  10.334  11.877 -0.0301  0.0747  0.1767
 5706W        W21967   4.121  12.475  12.545 -0.0926  0.1059  0.1559
 5707W        W21968  12.631   5.651  12.220  0.2615  0.2183 -0.1138
 5708W        W21969  11.948  16.599   1.999 -0.0663 -0.0447  0.1033
 5709W        W21970   8.195  11.937   2.294 -0.0919 -0.2625 -0.1055
 5710W        W21971  17.252   2.284  13.415  0.0130 -0.0568  0.1746
 5711W        W21972   1.019   4.070  13.993 -0.0298  0.1318 -0.0761
 5712W        W21973   5.035  15.476   1.893  0.0025 -0.3050 -0.1455
 5713W        W21974  13.404   8.110   1.565 -0.1087 -0.1483  0.1886
 5714W        W21975  14.773   7.674   0.582  0.1799 -0.3701 -0.0816
 5715W        W21976  11.857   6.576  16.011  0.0907  0.0997 -0.4534
 5716W        W21977  11.341  14.417  11.788 -0.2804 -0.1815 -0.1592
 5717W        W21978   4.106   9.413  12.015 -0.3548 -0.0112  0.1477
 5718W        W21979   8.716   1.292  11.485  0.1075  0.2300  0.2251
 5719W        W21980   8.055  14.102   5.386 -0.0558 -0.1237 -0.0412
 5720W        W21981   2.013  13.700  15.968  0.1278 -0.0372  0.0475
 5721W        W21982   5.529   5.748  13.816 -0.2967  0.1699 -0.3796
 5722W        W21983   4.243   0.763  13.631 -0.0427 -0.0488  0.0455
 5723W        W21984   7.744  10.108  13.167  0.0697 -0.1073  0.3160
 5724W        W21985   8.966   2.161   0.934  0.2966  0.1317  0.0066
 5725W        W21986   8.199   7.912   5.392  0.3479  0.0577  0.1333
 5726W        W21987   1.072   6.753   5.753  0.1385  0.0443  0.3006
 5727W        W21988   5.932   5.508  16.954  0.0088 -0.0028 -0.0940
 5728W        W21989   8.111   6.447   2.032 -0.0389 -0.0595  0.1677
 5729W        W21990  15.705  12.107  16.210  0.1813  0.0055  0.0555
 5730W        W21991   6.501   4.063   4.022 -0.0784 -0.2530  0.3024
 5731W        W21992  10.280   9.400  16.617 -0.1311 -0.1787  0.1050
 5732W        W21993  17.120   5.148  13.562 -0.1474  0.0757 -0.1018
 5733W        W21994  12.557  12.944   2.771 -0.0203 -0.0523  0.0723
 5734W        W21995   2.899  13.316  15.825  0.0043  0.3178  0.2526
 5735W        W21996  11.578  11.163  13.437  0.2374 -0.0899  0.2730
 5736W        W21997  11.749   8.499  16.176 -0.0743  0.1873 -0.1128
 5737W        W21998  15.951   8.727  14.923  0.2745 -0.1363  0.6049
 5738W        W21999   0.703   5.536  15.464 -0.0967  0.1751 -0.0256
 5739W        W22000   9.481  14.556   4.419 -0.0868  0.0357  0.1289
 5740W        W22001   4.288  13.802  16.060  0.0182 -0.3817  0.0663
 5741W        W22002   4.062   4.167   4.543  0.2841 -0.2526 -0.0922
 5742W        W22003   8.708  16.961  13.242  0.0289  0.1515  0.0100
 5743W        W22004   6.190   9.415   0.184  0.1134 -0.2199 -0.3300
 5744W        W22005   2.687  14.368  15.264  0.0484 -0.1143 -0.0502
 5745W        W22006   5.437  17.662   2.259 -0.0962 -0.1223 -0.2058
 5746W        W22007   2.709   4.262   0.561 -0.2454 -0.0052  0.2402
 5747W        W22008   2.237  13.548  12.852  0.2709  0.2232 -0.1819
 5748W        W22009   0.920   1.954  12.085 -0.3094  0.0227 -0.2982
 5749W        W22010   2.223  14.752  11.434  0.0585  0.1326  0.2585
 5750W        W22011  12.139   5.169   1.780  0.2129 -0.3955 -0.3240
 5751W        W22012   0.029   1.178   2.645 -0.1431  0.3055 -0.4095
 5752W        W22013   9.093   7.082  15.805  0.0248  0.2136  0.1978
 5753W        W22014   0.002  16.207  16.194 -0.1057 -0.2151 -0.0309
 5754W        W22015  13.321   9.350   4.856 -0.0939 -0.1691 -0.0242
 5755W        W22016   9.810   7.497   1.167 -0.2700 -0.0907  0.1009
 5756W        W22017   4.044   2.049   2.234 -0.2253  0.2451 -0.0848
 5757W        W22018   9.157  15.162   9.950 -0.2938 -0.0987 -0.1793
 5758W        W22019   1.384  13.455   1.040 -0.0583 -0.2031 -0.1135
 5759W        W22020   4.659   2.618   0.289  0.0229  0.1392  0.1870
 5760W        W22021  17.109  15.862   1.304  0.1832  0.2480  0.4735
 5761W        W22022  11.738  13.877  15.975 -0.3000 -0.0232 -0.0918
 5762W        W22023  14.019   2.020  16.531  0.2388 -0.0918  0.0538
 5763W        W22024  16.712   8.718  13.696 -0.0161  0.0390  0.0185
 5764W        W22025  10.339  15.822   4.415  0.1476  0.5056  0.1560
 5765W        W22026   0.655   1.606   1.017 -0.0033  0.3826 -0.0333
 5766W        W22027   5.660  14.827   2.431  0.2846 -0.3435 -0.1763
 5767W        W22028  14.786  17.256   5.565 -0.2792  0.1423  0.1051
 5768W        W22029   3.295   3.596  12.697  0.0810 -0.2243 -0.1749
 5769W        W22030  13.009   4.457  15.174  0.2612 -0.2816  0.2360
 5770W        W22031  14.564  13.328  13.678  0.0352 -0.0305  0.2042
 5771W        W22032   7.911   9.550  12.177  0.1462 -0.0217 -0.0662
 5772W        W22033   0.621   1.157  12.660  0.2708 -0.1285 -0.2302
 5773W        W22034  14.124  10.205   6.385 -0.0242 -0.1140  0.2724
 5774W        W22035   8.287   6.577   3.268  0.1404 -0.0325  0.0997
 5775W        W22036  16.356   0.727  11.418  0.0142 -0.4018 -0.2080
 5776W        W22037   0.576   9.255  16.585  0.2601  0.0744 -0.1567
 5777W        W22038  17.035   7.108   2.091  0.1781  0.2534 -0.0648
 5778W        W22039   1.844  15.670   5.225  0.1330  0.1815  0.0048
 5779W        W22040  13.634   2.714  13.954  0.3088 -0.3723 -0.3418
 5780W        W22041   5.823  12.644   2.696 -0.2250  0.0536  0.2157
 5781W        W22042   5.891  14.335  15.893 -0.3280  0.1947 -0.1672
 5782W        W22043  12.761   7.958  16.147  0.3432  0.1301 -0.1808
 5783W        W22044  11.663   1.305  12.301 -0.0656  0.0530 -0.4662
 5784W        W22045  11.459  12.721  13.251 -0.1296  0.2883  0.1421
 5785W        W22046  15.925   1.533   1.820 -0.0588  0.1338  0.0357
 5786W        W22047   4.629   6.573   1.382 -0.1918  0.1899 -0.1988
 5787W        W22048   9.175  15.439  14.517  0.1533 -0.0409  0.0500
 5788W        W22049  10.761  16.644   1.706 -0.1481 -0.0008  0.0712
 5789W        W22050  15.337  11.000  15.662  0.1055 -0.1775 -0.0583
 5790W        W22051  12.523   9.369   2.746  0.2523  0.0146 -0.3773
 5791W        W22052  14.001  13.810   5.704  0.0050 -0.1645  0.2457
 5792W        W22053   4.047  17.423   3.223 -0.1487 -0.1137 -0.2929
 5793W        W22054  12.451  13.028  13.992 -0.0270  0.0024 -0.0159
 5794W        W22055   2.089  12.482  16.371 -0.1985  0.0908 -0.1147
 5795W        W22056   4.767   2.543   2.185  0.2374  0.1795  0.0923
 5796W        W22057   6.604   3.692  15.824 -0.3267 -0.0674  0.0837
 5797W        W22058   2.309   0.447   1.631 -0.1633  0.3346  0.0510
 5798W        W22059   0.678  15.737  12.486  0.2487 -0.0596  0.1962
 5799W        W22060  14.988  17.634   3.739 -0.1948 -0.1337 -0.0748
 5800W        W22061  15.477   0.342  13.475 -0.1081 -0.1165 -0.1710
 5801W        W22062   0.760  10.778  14.058 -0.1447 -0.0501  0.0806
 5802W        W22063   7.711  15.380  16.123  0.0934  0.0732 -0.0677
 5803W        W22064   1.567  13.979  12.612 -0.0326 -0.0418  0.3652
 5804W        W22065  16.125  14.662  14.399 -0.1106 -0.1827 -0.1899
 5805W        W22066   7.536   1.132   4.412 -0.1096 -0.0170 -0.1954
 5806W        W22067  17.319   4.420   1.539 -0.4499  0.2030 -0.1136
 5807W        W22068   9.580  16.042  16.087 -0.0199 -0.3434  0.3221
 5808W        W22069   0.351  14.697   3.140  0.0853 -0.2615  0.4235
 5809W        W22070  17.263  15.686   3.026 -0.0191  0.2612  0.1571
 5810W        W22071   2.301   5.068   6.194 -0.0840 -0.0847  0.0997
 5811W        W22072  11.184  10.792   1.122  0.0428 -0.0604  0.1084
 5812W        W22073  12.585   8.659   0.615  0.0492  0.0808 -0.0648
 5813W        W22074   5.895   9.455   5.593  0.1857  0.0013  0.3757
 5814W        W22075   2.086  13.102   4.274  0.4271 -0.2360  0.1059
 5815W        W22076   4.789   3.570   5.488  0.0231 -0.0546  0.3579
 5816W        W22077   2.415  12.344  13.246  0.0291  0.0317  0.1635
 5817W        W22078   5.134   5.988  16.119  0.2986  0.1324  0.0446
 5818W        W22079   7.337   3.928   4.992  0.1916  0.1899 -0.0688
 5819W        W22080   3.769   1.984   4.439 -0.0879 -0.0636  0.0723
 5820W        W22081   2.731  14.581  14.258  0.1297 -0.0663  0.0235
 5821W        W22082   7.443   5.366  13.166 -0.0718 -0.0107 -0.1786
 5822W        W22083   6.771   1.661  11.923  0.2187  0.0437 -0.1451
 5823W        W22084  15.300  16.419  12.597 -0.2316 -0.0595  0.2406
 5824W        W22085   0.580   3.649  16.253 -0.3226 -0.0770 -0.0481
 5825W        W22086   9.581  12.515   2.071  0.1434  0.3766 -0.0234
 5826W        W22087  12.080   0.849   4.169 -0.4127 -0.0206 -0.0888
 5827W        W22088   3.283  16.024   4.577  0.1437  0.0713 -0.1539
 5828W        W22089   6.668   9.584  16.283 -0.0951 -0.1051 -0.3451
 5829W        W22090   9.639   3.680  12.306 -0.0159 -0.1485  0.1013
 5830W        W22091  12.890  11.052  16.956  0.2414  0.1951 -0.2351
 5831W        W22092  17.709   1.826  12.774 -0.1287 -0.2794 -0.1172
 5832W        W22093  11.891  12.241   3.805  0.0766 -0.1208  0.2935
 5833W        W22094  13.389   3.245  16.053 -0.1868 -0.3093 -0.0676
 5834W        W22095   7.829   4.663   3.117  0.0729 -0.1570 -0.0993
 5835W        W22096   2.630  11.539   0.529 -0.0527 -0.1743  0.5434
 5836W        W22097   0.686  13.020  14.858  0.1721  0.0353 -0.1128
 5837W        W22098  15.185   6.607  15.209  0.2557 -0.1092  0.1196
 5838W        W22099  16.236  16.933  16.458 -0.2980  0.2687 -0.1122
 5839W        W22100   0.966  12.312   3.120  0.0895 -0.0155 -0.0401
 5840W        W22101  11.251   8.162  13.585  0.1435 -0.0988  0.1613
 5841W        W22102  14.209  11.330   1.067 -0.0388  0.2147  0.1315
 5842W        W22103  11.958   4.991  15.633  0.0536  0.5431  0.2094
 5843W        W22104   6.484  14.184  14.854  0.0068 -0.1554  0.0035
 5844W        W22105  16.723  16.550   0.927 -0.0343  0.0640  0.0966
 5845W        W22106  13.916  12.207  11.984  0.0203  0.3988 -0.3434
 5846W        W22107  12.641   4.835   4.808  0.1033  0.2048  0.1465
 5847W        W22108   9.950  16.683  12.357  0.2604  0.1831  0.3566
 5848W        W22109   9.007   0.776  11.626  0.0466 -0.0193 -0.1423
 5849W        W22110   5.429   0.995  11.745  0.0816 -0.1377 -0.2732
 5850W        W22111  11.843  12.656   5.283 -0.2406  0.2538 -0.0095
 5851W        W22112   2.244   3.185   2.356  0.0618  0.2833 -0.0439
 5852W        W22113   5.494  12.628  12.663 -0.0038 -0.1363  0.2524
 5853W        W22114  14.093   4.350  13.548 -0.1907  0.2296  0.1288
 5854W        W22115   1.163   5.382   4.517  0.1962 -0.1020 -0.0051
 5855W        W22116  11.727   7.386   2.540  0.3133  0.1787 -0.2030
 5856W        W22117  13.768   7.174   3.606 -0.2555 -0.1175  0.0153
 5857W        W22118  11.826   8.426   1.069  0.1707  0.0396 -0.1623
 5858W        W22119   1.986  11.948  16.434  0.1151  0.1263  0.0317
 5859W        W22120   6.288  12.845  16.124 -0.3053  0.0767 -0.0876
 5860W        W22121   7.210  13.509   1.201  0.0470 -0.0617  0.0746
 5861W        W22122   4.669   0.166   0.041 -0.1637  0.0182 -0.1192
 5862W        W22123   7.413   3.918   1.375 -0.1806  0.0609 -0.2293
 5863W        W22124   3.357  17.534   5.071  0.0032 -0.4095  0.1701
 5864W        W22125  12.035  13.230  13.692  0.0850  0.2206  0.0399
 5865W        W22126   1.832  10.430   1.106 -0.1907  0.2101 -0.1213
 5866W        W22127   2.438  14.375  12.530 -0.0283  0.1662  0.0185
 5867W        W22128   6.503  12.706  15.057 -0.4710  0.1490  0.0984
 5868W        W22129  13.756   4.092  15.651  0.1267 -0.2644  0.0810
 5869W        W22130   2.992   7.007   1.116 -0.0461  0.1562 -0.6398
 5870W        W22131  12.801   9.380   0.266  0.2064  0.0020 -0.1489
 5871W        W22132  12.749   5.716   2.131 -0.0694 -0.0595  0.0192
 5872W        W22133  10.892  13.226   2.285 -0.0681  0.2765  0.3571
 5873W        W22134   6.489  12.648   1.718 -0.3201  0.0219  0.3539
 5874W        W22135   9.072   9.969  16.683 -0.2025 -0.2286  0.0406
 5875W        W22136  14.680   9.424  15.620 -0.2880 -0.1720 -0.1017
 5876W        W22137  13.107  13.589   4.247  0.0960 -0.2010 -0.1098
 5877W        W22138   7.788  15.632   1.434 -0.1089  0.1603 -0.0760
 5878W        W22139  17.634  13.336  15.738  0.4262  0.2221  0.0893
 5879W        W22140  14.668   2.730  14.412 -0.0518  0.1282 -0.0784
 5880W        W22141  11.467  10.638   4.295  0.0553 -0.3238  0.0469
 5881W        W22142  17.606  10.465  12.172  0.0613  0.1843 -0.0302
 5882W        W22143  16.585  15.222  14.718  0.0782 -0.2736 -0.0917
 5883W        W22144  15.016   5.750   4.337  0.0371  0.0738 -0.0571
 5884W        W22145  15.721  16.649  13.199  0.1418 -0.0107 -0.0732
 5885W        W22146  16.933   4.246  15.850 -0.0186  0.1680  0.0678
 5886W        W22147  10.140  10.025   2.120 -0.2267 -0.1683 -0.0322
 5887W        W22148  12.780  10.250   2.494 -0.1517  0.0141  0.2157
 5888W        W22149  13.515   3.416  14.106 -0.1059 -0.3335 -0.0523
 5889W        W22150   0.622  13.533  13.536  0.0311 -0.2979 -0.1408
 5890W        W22151   1.395   0.639  13.721  0.0783 -0.0737  0.0322
 5891W        W22152  16.723  16.499   2.989 -0.2421  0.1435  0.2597
 5892W        W22153  13.762   6.810   4.444  0.0508  0.0482 -0.0100
 5893W        W22154  17.001  13.293   2.482  0.0622  0.1222  0.1772
 5894W        W22155   9.380  14.377   3.608 -0.1041  0.1408  0.1951
 5895W        W22156   1.571   3.033   1.073  0.2430 -0.1469 -0.1381
 5896W        W22157  12.672   4.173   6.595  0.0894  0.1528 -0.1348
 5897W        W22158   1.743   6.035   3.454 -0.3688  0.2576  0.1534
 5898W        W22159  10.913   5.111   5.039  0.1518  0.0848  0.1790
 5899W        W22160  17.536   6.928   2.371 -0.0896  0.0974  0.2070
 5900W        W22161   9.290   0.643   2.056 -0.3386 -0.0249 -0.2364
 5901W        W22162   4.360   6.523   4.078  0.2192  0.3062  0.1271
 5902W        W22163  16.004  16.038  15.880  0.2236  0.2913  0.1330
 5903W        W22164   3.531  14.155   4.938 -0.2951 -0.0292  0.1854
 5904W        W22165   4.563   4.074  12.531  0.0817 -0.2029  0.2093
 5905W        W22166  10.392  16.025  16.953  0.2114 -0.0598 -0.2869
 5906W        W22167   0.896   1.794  16.306 -0.1623 -0.1706  0.0053
 5907W        W22168   0.683  16.956  15.522 -0.0517  0.1226  0.1585
 5908W        W22169   1.189   6.437  13.051  0.0739 -0.0238 -0.1763
 5909W        W22170   6.414  10.503  13.682 -0.0816 -0.1161  0.1718
 5910W        W22171  10.087   2.448  11.840  0.1124 -0.0837 -0.2130
 5911W        W22172  10.699  12.532   4.597  0.0110  0.0243  0.2979
 5912W        W22173   5.862  10.211   1.887 -0.1063  0.0225 -0.2351
 5913W        W22174   8.549  10.187  13.627 -0.0575 -0.1975  0.0772
 5914W        W22175  14.020  14.891   3.527  0.3354  0.3046 -0.0188
 5915W        W22176   7.712  15.229  13.270  0.1850  0.1664  0.0862
 5916W        W22177  15.402  15.982  12.158 -0.1333  0.3193  0.0626
 5917W        W22178   2.838  14.030  14.357 -0.1569  0.3083 -0.1012
 5918W        W22179  17.306   3.479   3.853 -0.0760 -0.0045  0.0656
 5919W        W22180   6.850   6.384  13.896 -0.1135 -0.1063  0.0057
 5920W        W22181  17.012   6.397  15.847  0.0245  0.0446 -0.0817
 5921W        W22182   6.796  10.767  12.189 -0.0317 -0.1358  0.0969
 5922W        W22183   4.430  12.315   0.485  0.0768 -0.1894  0.0131
 5923W        W22184   8.634   2.839   4.575  0.0243  0.1554  0.2209
 5924W        W22185   2.819  17.255   3.703 -0.1623  0.0974  0.0791
 5925W        W22186  16.623   2.095  12.381 -0.0020  0.0163  0.0759
 5926W        W22187   8.346   6.020  12.187 -0.1326  0.0083  0.2285
 5927W        W22188   2.987  11.407  12.362 -0.0572 -0.2691 -0.2180
 5928W        W22189   9.322   6.543  15.106  0.0871  0.0405  0.4445
 5929W        W22190   2.141   6.576  12.426  0.2265  0.0335  0.0575
 5930W        W22191  16.106   2.461   0.392 -0.1467  0.0170  0.2175
 5931W        W22192   2.617  14.025   2.121 -0.2578 -0.0423 -0.0728
 5932W        W22193   8.822   9.985   0.144 -0.0826 -0.0753  0.1072
 5933W        W22194   6.259   7.825  15.812 -0.2059  0.0405 -0.2404
 5934W        W22195  12.619  12.771   5.415  0.3078  0.1393  0.1036
 5935W        W22196   5.865  12.532  15.853 -0.0914 -0.1240  0.2376
 5936W        W22197   8.631   9.080  13.822 -0.3244  0.0120  0.0212
 5937W        W22198  14.342  10.818   5.556  0.1627 -0.0349 -0.0039
 5938W        W22199  16.243   8.253   0.883  0.0480  0.2523  0.0251
 5939W        W22200  15.811  11.668   1.846 -0.2369  0.0458 -0.4621
 5940W        W22201   3.491  13.506  16.478  0.2086 -0.1570 -0.0316
 5941W        W22202  15.536  11.000  15.009  0.0736 -0.1414 -0.2370
 5942W        W22203  11.043   5.975   0.447  0.1081 -0.3983  0.1247
 5943W        W22204   1.351  11.043   5.049  0.2302 -0.1526  0.1491
 5944W        W22205  15.616   5.204   3.245 -0.0507  0.1978 -0.1468
 5945W        W22206  11.093  12.875  13.522  0.3583  0.0582 -0.0477
 5946W        W22207  14.334   3.049  14.442  0.2902 -0.3240 -0.0554
 5947W        W22208  15.667  16.882   4.535  0.0357  0.0424  0.1160
 5948W        W22209   1.003  16.844  14.909  0.1553 -0.1190  0.0903
 5949W        W22210  14.156  14.343   1.650  0.0508  0.2404 -0.1200
 5950W        W22211  16.524   5.971  16.883  0.3845  0.1484  0.0910
 5951W        W22212   4.328  11.126  16.181  0.1394  0.2113  0.0154
 5952W        W22213   1.446  15.184   6.191 -0.0044 -0.2816  0.2322
 5953W        W22214   9.550   9.792  12.458 -0.2462  0.2289  0.0020
 5954W        W22215  15.625   0.820  16.006 -0.0217 -0.0452  0.0378
 5955W        W22216  15.115  12.172   2.099 -0.0572 -0.3510 -0.1313
 5956W        W22217   2.052  11.787  14.126  0.0069 -0.1538 -0.0449
 5957W        W22218  17.504   9.298  15.464 -0.3027 -0.3165 -0.0928
 5958W        W22219   5.936  13.547   1.080  0.0306 -0.0274  0.0353
 5959W        W22220   4.393   4.505   2.467 -0.0766  0.3042 -0.1317
 5960W        W22221   7.590   1.880  14.695 -0.2606 -0.2530 -0.2385
 5961W        W22222   5.899   6.205   2.299  0.0169 -0.2423  0.0602
 5962W        W22223   5.767  12.010  15.766 -0.1392  0.0167  0.1151
 5963W        W22224  17.494   3.425  16.496 -0.1590  0.1869 -0.0269
 5964W        W22225  13.848   2.546   5.537 -0.0793 -0.1646 -0.0795
 5965W        W22226  13.549  17.258  15.986 -0.0957 -0.1755  0.0553
 5966W        W22227   5.742  13.389  13.267 -0.3260 -0.1456  0.1526
 5967W        W22228  12.483  14.214  16.619 -0.0541 -0.2344  0.0875
 5968W        W22229   0.985   4.810  13.121  0.1946  0.1895 -0.0485
 5969W        W22230   8.659  10.790  16.724  0.1208 -0.1743 -0.1954
 5970W        W22231   3.334   2.687   4.409  0.1287  0.1811 -0.1369
 5971W        W22232   7.088  15.701  11.482 -0.1100  0.3439 -0.0981
 5972W        W22233  17.777   3.780  14.811 -0.1855 -0.2363 -0.2797
 5973W        W22234  10.612  15.540   0.197  0.0413 -0.0915  0.1000
 5974W        W22235  11.590  11.513   1.912 -0.0208  0.0316 -0.1640
 5975W        W22236   1.513  14.792   2.343 -0.2108 -0.1620  0.3129
 5976W        W22237   8.133   5.872  15.889 -0.1649  0.1227 -0.2420
 5977W        W22238   2.235   7.580   4.947 -0.2610 -0.2217  0.0863
 5978W        W22239  14.660   8.124   3.814  0.0838 -0.1152 -0.2818
 5979W        W22240  15.081  12.466  13.885  0.2701  0.3289  0.4137
 5980W        W22241   9.263  16.760  13.737  0.1542 -0.2198 -0.0091
 5981W        W22242  11.774   6.928   1.249 -0.0020  0.0035 -0.0630
 5982W        W22243   8.391  12.306   1.959  0.2153  0.0994  0.2028
 5983W        W22244  17.700   0.057   2.581 -0.2631  0.0501 -0.1828
 5984W        W22245   0.500   8.227   5.091 -0.0547 -0.3424 -0.0828
 5985W        W22246  10.413  10.099   3.592  0.0485 -0.0485  0.1545
 5986W        W22247  11.968  14.784  16.020  0.0436  0.0355 -0.0742
 5987W        W22248   4.548   4.008  15.413 -0.2695  0.0938 -0.0241
 5988W        W22249   9.865   4.066  15.624  0.3013  0.0749 -0.1426
 5989W        W22250   0.664  15.076   3.169  0.2118 -0.0320 -0.0894
 5990W        W22251  16.509  15.415   5.892 -0.0986 -0.0862  0.4235
 5991W        W22252   9.674   5.013  14.150 -0.0794  0.0647 -0.0569
 5992W        W22253  10.923  12.984   5.009 -0.0744  0.0997 -0.0785
 5993W        W22254   0.452   5.389   1.859  0.1522  0.0839 -0.1807
 5994W        W22255   9.985   8.274   1.043  0.1331 -0.1595  0.1239
 5995W        W22256   7.455  13.223   4.273 -0.1067  0.0246  0.0371
 5996W        W22257   6.484  11.041  15.413 -0.2145  0.1443  0.2735
 5997W        W22258  14.814   5.748  15.263 -0.0888  0.1976 -0.0025
 5998W        W22259   0.579   4.550   0.552  0.1140 -0.0887 -0.2803
 5999W        W22260  15.831  14.175  14.245  0.2736  0.3680 -0.0580
 6000W        W22261  12.482  11.725   2.316 -0.0236  0.0910 -0.0579
 6001W        W22262   4.688  10.804  15.277 -0.1940  0.1911  0.1122
 6002W        W22263  13.600   5.414   3.624 -0.1180  0.1651  0.2077
 6003W        W22264  17.603  10.135   3.241 -0.0399  0.0508 -0.1732
 6004W        W22265   4.335   6.228  16.724 -0.0180 -0.0240 -0.0201
 6005W        W22266   8.209   5.015   5.641 -0.1742 -0.0350 -0.0568
 6006W        W22267  13.365  12.296  14.881 -0.3562  0.2642  0.0361
 6007W        W22268   5.340  11.001   1.543  0.1380  0.1334 -0.0037
 6008W        W22269  13.454   8.909  15.739 -0.0589  0.0686 -0.3094
 6009W        W22270   6.405  17.683  12.439 -0.0732 -0.1975 -0.2713
 6010W        W22271  14.894   8.626   0.236 -0.2871  0.2565 -0.0030
 6011W        W22272   1.948  15.191   1.479 -0.3286 -0.1968  0.0281
 6012W        W22273  16.221   1.536  16.135  0.0398 -0.1312 -0.0350
 6013W        W22274   0.838   1.289  14.098  0.0380  0.0252 -0.0315
 6014W        W22275  10.714   5.174   4.206  0.1772 -0.2428 -0.1856
 6015W        W22276   4.082  14.236  12.198  0.0905 -0.1770  0.1316
 6016W        W22277   0.806   7.618  13.808  0.1348 -0.2262  0.3463
 6017W        W22278  16.583  11.344   4.718 -0.0957  0.3946  0.2189
 6018W        W22279   8.557  15.570  13.172 -0.0009 -0.2562  0.1246
 6019W        W22280  14.529  13.716   5.689 -0.0593 -0.0664 -0.0389
 6020W        W22281   5.075  17.777   0.993 -0.3349 -0.0326  0.4342
 6021W        W22282   7.801   3.050  15.765  0.0852  0.1827 -0.0536
 6022W        W22283  14.474   8.304   0.699 -0.0039  0.0682  0.1331
 6023W        W22284   7.223  17.663  11.818  0.4135 -0.0665  0.0049
 6024W        W22285   4.177   4.383  13.894 -0.0475  0.1743 -0.0895
 6025W        W22286   7.865   9.108   2.562  0.1424 -0.1248  0.0467
 6026W        W22287  15.741   7.626  16.686 -0.1010 -0.1587  0.2436
 6027W        W22288   3.843  13.820  15.744 -0.0246  0.4104 -0.0726
 6028W        W22289   3.541  11.842   5.790  0.0998 -0.1184 -0.1952
 6029W        W22290   0.813   0.140  13.509  0.0851  0.0875  0.1349
 6030W        W22291   2.533   7.264   3.170 -0.2426  0.0952  0.0688
 6031W        W22292  12.273   2.809   1.172 -0.2969 -0.1374 -0.3575
 6032W        W22293  17.018   0.362   1.955 -0.0583  0.0949 -0.0367
 6033W        W22294  13.327   0.363  14.655 -0.0974  0.2143 -0.2270
 6034W        W22295  10.961  15.758   3.422 -0.0768 -0.1217  0.0022
 6035W        W22296   3.155  15.777  16.591 -0.2266  0.0291  0.1510
 6036W        W22297   0.881  13.868   2.189 -0.2809  0.0745  0.1976
 6037W        W22298   0.356   9.351  15.465 -0.1672 -0.0782 -0.0945
 6038W        W22299  10.125   9.442   2.964 -0.0267 -0.0760  0.1390
 6039W        W22300  14.064   4.821  16.707  0.1211  0.0555 -0.1841
 6040W        W22301  11.089  17.854   1.537 -0.5089 -0.2054  0.1268
 6041W        W22302   3.996   4.148   1.875  0.3222 -0.1619 -0.3107
 6042W        W22303   6.032  14.976   1.164 -0.3548 -0.1688  0.0757
 6043W        W22304   5.411  15.483   4.820  0.1429  0.0303 -0.2595
 6044W        W22305   0.970  17.111  13.464  0.0347  0.0096 -0.0189
 6045W        W22306  16.606  11.618  16.115 -0.2263  0.1264 -0.0723
 6046W        W22307  15.715   2.287  14.706 -0.0165  0.2658 -0.1529
 6047W        W22308  10.615  14.140  12.551  0.1743  0.0961 -0.0300
 6048W        W22309   8.096   9.610   4.366 -0.0155  0.0987 -0.1553
 6049W        W22310  12.135  12.863  14.772  0.1164  0.0054 -0.1802
 6050W        W22311  14.732   1.957  14.187 -0.0525  0.0988  0.0708
 6051W        W22312  10.858   5.135  12.375 -0.1135 -0.1538 -0.0106
 6052W        W22313   0.663   2.932  16.743  0.0759  0.0451  0.0463
 6053W        W22314   5.366   2.563   1.576 -0.0839 -0.0934 -0.0083
 6054W        W22315  16.629   5.827  12.139  0.2235 -0.0249  0.2958
 6055W        W22316   4.906  13.239  14.919  0.0526 -0.3589  0.3018
 6056W        W22317   8.643  12.416  12.223 -0.0872 -0.1208 -0.1259
 6057W        W22318   0.867  13.453  13.078  0.2806  0.0624  0.1712
 6058W        W22319  10.716  16.171   0.850 -0.3112  0.1864  0.2301
 6059W        W22320  14.047  10.694  14.066 -0.1065  0.4079 -0.1263
 6060W        W22321  14.454   9.284   4.841 -0.1949  0.1742 -0.1846
 6061W        W22322   5.568  10.391   1.476  0.0075 -0.1811 -0.1018
 6062W        W22323   1.713  12.672  13.821 -0.2229 -0.0574 -0.2930
 6063W        W22324  12.733  14.955  14.670  0.2416 -0.1020  0.1233
 6064W        W22325   7.894   4.250  15.867 -0.3262  0.1834  0.0386
 6065W        W22326  15.768   8.494   5.306 -0.1124  0.1134 -0.0676
 6066W        W22327  13.286   0.124  16.505  0.0878  0.0363  0.2576
 6067W        W22328   0.934   1.636  15.008  0.1373 -0.0511  0.1475
 6068W        W22329  14.143  12.237   3.081 -0.0172  0.0329  0.0955
 6069W        W22330  11.893  12.003  15.154  0.1515  0.2379 -0.0385
 6070W        W22331   2.486  10.346   0.906 -0.2393 -0.1185 -0.0409
 6071W        W22332  10.314  13.241  12.651 -0.1133  0.0984 -0.0701
 6072W        W22333   0.651  16.723   3.362  0.2957 -0.0957  0.0711
 6073W        W22334  11.611   8.663  16.917 -0.3725  0.1153 -0.0940
 6074W        W22335   8.486   9.945  14.099 -0.2920 -0.0806  0.2950
 6075W        W22336  14.751   4.224  16.718  0.1883 -0.1862  0.0119
 6076W        W22337  15.860  16.821   0.856  0.1137 -0.0361 -0.0754
 6077W        W22338   8.244  12.638   3.163 -0.0449  0.1801  0.2737
 6078W        W22339  17.001   1.535  14.160 -0.0689  0.2269 -0.0387
 6079W        W22340  11.640  17.247   2.533  0.0692 -0.0702  0.0797
 6080W        W22341  15.258  17.227  15.172 -0.0223  0.0938 -0.1079
 6081W        W22342   9.802   3.545   3.942 -0.1067 -0.1065 -0.0923
 6082W        W22343  13.223  11.831  13.566 -0.0012  0.1214 -0.0635
 6083W        W22344   4.359   9.078   1.251  0.2350  0.0579 -0.0274
 6084W        W22345   8.280  15.204  16.101  0.0475  0.0603  0.1835
 6085W        W22346  17.480  14.168  16.569  0.0135 -0.2335 -0.2554
 6086W        W22347   9.885   2.658  15.477 -0.2291 -0.0734 -0.0758
 6087W        W22348  12.484   2.716  15.205  0.3214 -0.1023  0.0006
 6088W        W22349   5.534  10.256   4.157  0.1893 -0.1852  0.0773
 6089W        W22350  10.800  17.672   0.523  0.0801  0.0605  0.0708
 6090W        W22351   5.702   7.814   0.388 -0.0461 -0.0840  0.1337
 6091W        W22352  16.767  14.428   0.127 -0.1560 -0.1599 -0.0198
 6092W        W22353   0.666   1.843   2.914 -0.2187 -0.8511 -0.0550
 6093W        W22354   6.826   4.544  13.156 -0.0421  0.0194  0.1368
 6094W        W22355   7.998  12.403   1.599  0.2696 -0.1651  0.3196
 6095W        W22356  14.639  15.578   4.629 -0.0674  0.0503 -0.0236
 6096W        W22357   2.691  15.105  13.073  0.2805 -0.1223  0.0908
 6097W        W22358   6.174   8.412   3.766 -0.1075  0.1303 -0.2464
 6098W        W22359   7.114   3.731   2.770  0.1917  0.3844  0.0307
 6099W        W22360  16.958   7.785  15.772  0.0336  0.0360  0.1912
 6100W        W22361  10.771   2.471  13.863 -0.0983 -0.1887 -0.3090
 6101W        W22362   6.739   7.844   4.958 -0.2993 -0.0045 -0.1582
 6102W        W22363  11.439   6.048  12.493  0.1266  0.0627  0.0247
 6103W        W22364   7.431   5.305  12.642 -0.2886  0.0082 -0.2770
 6104W        W22365  14.206  16.873   2.171  0.0889 -0.0680  0.2875
 6105W        W22366   5.002   7.244   3.231  0.0203 -0.0767 -0.2083
 6106W        W22367   6.300   1.789   2.334 -0.0311  0.1335  0.1097
 6107W        W22368   7.092   9.514  12.317  0.2508 -0.3924  0.4054
 6108W        W22369   9.814  12.059   0.392 -0.1522 -0.0650  0.2007
 6109W        W22370   8.091   0.679  12.591 -0.1129  0.1921 -0.1958
 6110W        W22371  14.917  17.629  12.936  0.0755  0.0155  0.0107
 6111W        W22372  13.512  12.149   5.174  0.0690  0.2076 -0.0326
 6112W        W22373  10.682   0.190  12.625  0.0997  0.1208 -0.1233
 6113W        W22374   3.820  16.387  15.129 -0.1564  0.1614  0.1262
 6114W        W22375  10.423  12.083  15.044  0.0833 -0.0031  0.0493
 6115W        W22376   8.410   9.146  11.226  0.0126 -0.3059 -0.0559
 6116W        W22377  16.696   4.810  13.240  0.0535 -0.2085 -0.1950
 6117W        W22378   5.942  15.174   2.205  0.0868 -0.0798 -0.0425
 6118W        W22379   4.002   3.080   2.340  0.1190  0.1401  0.0417
 6119W        W22380   7.262  14.825  16.892  0.0736  0.1214 -0.1305
 6120W        W22381   9.946   3.889   0.588 -0.2199  0.0360  0.0849
 6121W        W22382   7.103   6.492  12.841 -0.1477 -0.1232 -0.1234
 6122W        W22383   7.703  17.733  15.954  0.2227  0.0746 -0.1746
 6123W        W22384   2.584   9.989  16.233  0.2488  0.2703  0.4513
 6124W        W22385   1.597  17.201   4.678  0.0280  0.0320 -0.0044
 6125W        W22386  14.538   1.021   5.712 -0.0924 -0.1386 -0.1855
 6126W        W22387   2.510   6.617   3.431 -0.1671 -0.0038 -0.3332
 6127W        W22388  13.429  17.858  14.171 -0.0938 -0.0377  0.0901
 6128W        W22389   7.486  15.316  11.639 -0.0290  0.0104  0.1960
 6129W        W22390   6.460  16.611  13.292 -0.2569  0.0225  0.0186
 6130W        W22391   0.636  17.861   5.169 -0.2025  0.0291  0.2098
 6131W        W22392  16.674  12.311  12.403 -0.3184  0.0059  0.0535
 6132W        W22393   6.946  14.932   0.718  0.0085 -0.2390  0.1202
 6133W        W22394   8.916  10.532   2.528 -0.1852  0.0087  0.1980
 6134W        W22395  17.345   1.389   6.196  0.0976 -0.1061  0.0425
 6135W        W22396  15.446  17.678   5.212  0.0976  0.1711 -0.3305
 6136W        W22397  13.064  16.281  15.514  0.1918 -0.2201 -0.3129
 6137W        W22398  16.795   2.385   1.263  0.0428 -0.1901  0.1091
 6138W        W22399   1.815   4.684   0.310  0.0155 -0.0181  0.0553
 6139W        W22400   5.517  12.932  15.533  0.2080 -0.2455  0.0468
 6140W        W22401   7.024   5.625   4.455  0.3745 -0.1104  0.4320
 6141W        W22402   5.409   0.355   4.302  0.0936 -0.0747  0.0506
 6142W        W22403   6.570  12.098  11.849  0.2973  0.4064  0.0465
 6143W        W22404   1.304   2.944   6.025  0.0482 -0.0770  0.1047
 6144W        W22405  11.340  13.695   6.377 -0.1858  0.0029 -0.0292
 6145W        W22406   4.805   9.365   4.200  0.1641 -0.1268 -0.0869
 6146W        W22407  13.410   2.225   5.511 -0.1028  0.3791  0.1583
 6147W        W22408   2.921   2.703  12.674 -0.0833 -0.2221  0.1251
 6148W        W22409  14.579   6.969   0.112  0.0723 -0.0058 -0.1657
 6149W        W22410  16.819   7.425  13.298  0.2003  0.0386  0.0245
 6150W        W22411  14.876  13.413  14.611  0.1635 -0.0460 -0.1042
 6151W        W22412  16.981   9.050  13.953 -0.3871  0.1289 -0.3500
 6152W        W22413  15.115   1.797   2.286 -0.3738 -0.0529  0.3458
 6153W        W22414   4.200   0.704  13.130  0.0892 -0.1124 -0.0559
 6154W        W22415   5.297   8.362   2.244 -0.2339  0.1674 -0.3909
 6155W        W22416  12.151  11.554   0.587 -0.1746  0.0705 -0.2101
 6156W        W22417  11.216  15.258   5.559  0.2330  0.0087 -0.0942
 6157W        W22418   0.920  10.537  13.215 -0.2498 -0.0803  0.0065
 6158W        W22419   0.255  17.183  12.566 -0.1078 -0.0879 -0.0221
 6159W        W22420   5.685  14.367   4.061  0.1450 -0.0149  0.0300
 6160W        W22421  10.309   5.123  11.950  0.2391  0.1915 -0.0338
 6161W        W22422   5.312  15.041  12.864  0.2632  0.4032 -0.0081
 6162W        W22423  16.634  15.106  16.687  0.0993 -0.2806 -0.2469
 6163W        W22424  14.064   8.299  14.342  0.1696 -0.0833  0.1438
 6164W        W22425  15.420  10.764  14.180  0.0230 -0.0486  0.3890
 6165W        W22426  15.759   1.010  14.039  0.0567 -0.0297 -0.2469
 6166W        W22427  10.400   0.374  16.940  0.3418 -0.0382  0.0432
 6167W        W22428   9.997  10.031  14.800 -0.1521  0.0907 -0.4710
 6168W        W22429   7.060   2.082  13.599 -0.2072  0.2907  0.2191
 6169W        W22430  10.347   0.781   4.506 -0.1870  0.1081 -0.4068
 6170W        W22431   3.749   4.406   5.672  0.1120  0.1909  0.1283
 6171W        W22432   4.846  13.189  10.955 -0.2362 -0.1493 -0.1929
 6172W        W22433   5.298  16.774  12.394 -0.0958  0.0263  0.4238
 6173W        W22434  16.562  12.645   2.270 -0.0415  0.2619 -0.1268
 6174W        W22435   7.845   9.410   5.832 -0.2919 -0.1976 -0.1216
 6175W        W22436  11.995   6.533   0.184 -0.0892 -0.1543 -0.0471
 6176W        W22437   3.815   5.339  12.534 -0.0164  0.1504  0.0719
 6177W        W22438  14.745   9.066   3.861 -0.1045 -0.0052 -0.0570
 6178W        W22439   1.822  17.330   1.675  0.1794 -0.0508 -0.2794
 6179W        W22440   8.829  11.980  11.534  0.0952  0.1214  0.0066
 6180W        W22441  11.064   8.776   4.673  0.3396  0.1005 -0.0676
 6181W        W22442   3.655  15.919  14.254 -0.2764 -0.0058 -0.2767
 6182W        W22443   7.269   8.763  14.842 -0.1016 -0.0423 -0.1672
 6183W        W22444   0.954  11.747   2.880  0.1599 -0.0377  0.1830
 6184W        W22445  17.822  17.678   3.344  0.2760 -0.0491  0.3518
 6185W        W22446  13.461   7.344  12.783 -0.2361  0.0348  0.2163
 6186W        W22447  17.814  13.634  16.455  0.1951  0.0091 -0.2008
 6187W        W22448  14.240   2.563  14.653  0.1926  0.3017  0.2060
 6188W        W22449   3.392  15.363  15.622  0.0970  0.2545  0.0343
 6189W        W22450   4.332  12.426  12.021  0.0158 -0.4884  0.0043
 6190W        W22451  16.925  14.430  15.409 -0.0169  0.1192  0.0940
 6191W        W22452   8.610   7.973  13.634  0.0792 -0.0936 -0.2187
 6192W        W22453  17.582   5.382  13.460  0.0320 -0.3201 -0.1137
 6193W        W22454  11.943   8.959   0.285 -0.1383 -0.2110 -0.1808
 6194W        W22455  13.039   9.870   2.241  0.4815 -0.0259 -0.1225
 6195W        W22456  14.303  11.285  15.639 -0.0744 -0.0387 -0.0284
 6196W        W22457  11.651   4.019  16.756  0.0681  0.0142 -0.0262
 6197W        W22458  17.758  15.997  13.384  0.2554 -0.1339 -0.3287
 6198W        W22459   4.227   9.813  12.366 -0.2505 -0.0344  0.5997
 6199W        W22460   2.220  14.445   4.878  0.1956  0.1420  0.0007
 6200W        W22461  10.393  11.243   0.513  0.1813  0.0315 -0.2973
 6201W        W22462  10.309   6.916   0.929 -0.2691  0.1257 -0.1246
 6202W        W22463  14.712   3.377   3.000  0.0617 -0.0912 -0.2737
 6203W        W22464   3.537   4.288  12.162  0.3183 -0.1205 -0.1374
 6204W        W22465  17.063  14.106  16.846 -0.1373 -0.0246  0.0059
 6205W        W22466   8.868  10.155   4.289 -0.1349 -0.0562 -0.1910
 6206W        W22467  15.920   9.975  11.747  0.1686 -0.2130  0.1798
 6207W        W22468  11.605  15.999  14.826 -0.2283 -0.0949  0.0413
 6208W        W22469  13.869   0.541  14.609  0.2996 -0.2684 -0.0385
 6209W        W22470   9.574  14.858  12.123  0.2039 -0.0725 -0.1966
 6210W        W22471   9.950  14.006   5.735  0.0938  0.1088 -0.0127
 6211W        W22472  14.004   9.210  12.248 -0.0533 -0.0646  0.1001
 6212W        W22473   0.236   8.580   4.780 -0.1242  0.0258  0.2800
 6213W        W22474  15.183   1.204   3.060  0.0163  0.2169  0.0268
 6214W        W22475   2.804  15.257  13.632  0.0419  0.2696 -0.1075
 6215W        W22476  12.648  17.030   0.475  0.2948 -0.1081 -0.1736
 6216W        W22477   3.317   8.363   1.109  0.0269  0.0566  0.1269
 6217W        W22478  14.783   9.660  16.322 -0.0096  0.0428 -0.1183
 6218W        W22479   5.513   8.788   5.210 -0.2041 -0.1034 -0.0180
 6219W        W22480   7.813   4.586   0.927 -0.1758  0.3741 -0.0217
 6220W        W22481  14.065  11.608  11.932  0.1471  0.1895 -0.1530
 6221W        W22482  15.421  11.338  13.397  0.1148  0.1829  0.0626
 6222W        W22483   6.796  10.406  14.685  0.1206 -0.3958  0.0202
 6223W        W22484   0.738  13.040   2.510 -0.1305  0.0312  0.0658
 6224W        W22485  10.343   0.138  12.272  0.0669 -0.0535 -0.0176
 6225W        W22486   2.005  10.005  16.717 -0.0581  0.1051  0.0356
 6226W        W22487   9.218   0.337  14.830  0.0171 -0.0936 -0.3571
 6227W        W22488   0.397   5.379   0.053  0.0007 -0.0114  0.1503
 6228W        W22489   9.919   1.327   0.798 -0.1254  0.0990  0.1005
 6229W        W22490   6.488  10.058   0.518 -0.2363  0.0499 -0.1708
 6230W        W22491   4.568   6.010   1.218  0.1041  0.1806 -0.1113
 6231W        W22492  15.169  14.693   5.195  0.0001  0.0187  0.0792
 6232W        W22493   4.857  16.013  12.647  0.1098  0.2975 -0.1064
 6233W        W22494  13.145   2.555   5.242 -0.1212 -0.0707  0.1184
 6234W        W22495   7.345  11.800   3.778  0.1438  0.0910 -0.3639
 6235W        W22496   0.102  14.189  14.377  0.0832 -0.3306 -0.0851
 6236W        W22497  13.123   9.610   5.218 -0.2117 -0.1838  0.2839
 6237W        W22498  13.916   4.412  12.014  0.0597  0.0773 -0.0726
 6238W        W22499  12.582  16.698  15.984 -0.0764 -0.0351 -0.0234
 6239W        W22500  12.285   8.919   1.780  0.1080  0.0421  0.0550
 6240W        W22501  14.366  17.835   4.984  0.1119 -0.0693 -0.2312
 6241W        W22502  17.035   5.866   1.171 -0.2305  0.0668  0.1678
 6242W        W22503   1.925  15.912   4.749  0.0461 -0.1925  0.1651
 6243W        W22504   8.173   8.873   5.801 -0.0370 -0.2167  0.0442
 6244W        W22505  12.820   1.898  14.639  0.2743  0.0907  0.3390
 6245W        W22506  12.725  12.460  14.730 -0.0106  0.0344  0.0342
 6246W        W22507  12.325   3.001  13.961 -0.1819  0.1890 -0.0743
 6247W        W22508   7.427   8.676  12.188  0.0904 -0.0706  0.2518
 6248W        W22509   7.214   7.391  13.708  0.2028 -0.1194 -0.0091
 6249W        W22510   1.279   9.987  11.819  0.2093 -0.2502  0.0946
 6250W        W22511  17.658  15.642  15.341 -0.3861  0.0613 -0.3472
 6251W        W22512   3.593   7.017   2.914 -0.4145  0.0499 -0.0061
 6252W        W22513  12.094  15.560  13.014  0.3262 -0.2684 -0.0322
 6253W        W22514  14.721   2.027   5.331 -0.1091  0.0054 -0.1007
 6254W        W22515  14.576   6.966   2.670 -0.2672 -0.0866 -0.0746
 6255W        W22516   9.498   5.479  13.859 -0.0744 -0.0610 -0.0246
 6256W        W22517   6.542  16.397   1.777  0.0110 -0.2433 -0.2861
 6257W        W22518   0.263  12.591   2.795 -0.3103 -0.1106 -0.0253
 6258W        W22519  16.097   4.915   4.650  0.3207  0.1463 -0.0659
 6259W        W22520   9.247   6.792   1.806 -0.1752  0.1704  0.1266
 6260W        W22521  14.872  12.788   3.402 -0.1094 -0.2138  0.2356
 6261W        W22522   0.298   7.642  12.715  0.0214  0.1300  0.1547
 6262W        W22523  10.679   3.977  12.935 -0.1346  0.0774 -0.0281
 6263W        W22524   2.195  11.429   4.148  0.1406  0.0953  0.0952
 6264W        W22525  10.047  10.997   5.175  0.0101  0.0309  0.3410
 6265W        W22526  14.748   7.648   0.074  0.0334 -0.1077  0.0397
 6266W        W22527   6.068   4.724  16.188 -0.1678  0.2090 -0.0092
 6267W        W22528  11.873  15.783   4.265 -0.1422  0.0754 -0.1691
 6268W        W22529  13.378  16.341  12.151  0.0494  0.1774  0.2127
 6269W        W22530   3.735   2.259  16.462 -0.4609  0.0147  0.0493
 6270W        W22531  10.742   6.138  15.983 -0.1208  0.1529  0.1531
 6271W        W22532   6.858  15.711   5.966 -0.2190  0.2180  0.4916
 6272W        W22533   4.706   1.438   1.961  0.1269 -0.0685 -0.2145
 6273W        W22534   5.534  15.018  13.619 -0.1083 -0.0615 -0.4790
 6274W        W22535   3.387   0.477   2.987  0.0691  0.0109 -0.2091
 6275W        W22536  17.271   1.377  14.720 -0.0206 -0.1505 -0.0476
 6276W        W22537   9.681   7.051  15.201  0.0348  0.1923  0.0527
 6277W        W22538   9.785  11.059   1.182 -0.2769 -0.2593 -0.2058
 6278W        W22539   9.578   9.055   2.471 -0.0001  0.0093  0.0663
 6279W        W22540  12.900   8.925   3.599  0.0263 -0.0143  0.1659
 6280W        W22541   6.112  11.909   3.252  0.4247  0.1203  0.1364
 6281W        W22542   1.205   4.266   3.612 -0.0076 -0.1941 -0.1549
 6282W        W22543  15.787   0.390   4.603  0.0644 -0.2906  0.0928
 6283W        W22544   6.707  16.588   0.162  0.0081 -0.0299  0.0203
 6284W        W22545  10.812  11.063   1.342  0.2058 -0.2285  0.1537
 6285W        W22546  17.400  11.699  16.319  0.0293 -0.0915  0.0344
 6286W        W22547  15.695   9.163  15.803  0.0054  0.3784  0.4177
 6287W        W22548  17.547   3.022   5.354 -0.1053  0.1577 -0.0666
 6288W        W22549   1.713   4.961  16.597 -0.1682  0.0369  0.1921
 6289W        W22550   4.154   9.859  16.364  0.0220 -0.2693 -0.1633
 6290W        W22551   0.840   2.104   1.144  0.2100  0.0021 -0.3655
 6291W        W22552   6.727  17.840   3.235  0.1541  0.1949 -0.0813
 6292W        W22553  11.646   8.365   1.549  0.0043  0.0017  0.0250
 6293W        W22554  11.531   9.902   3.406  0.2989 -0.2661  0.1824
 6294W        W22555   9.944  10.175  11.115  0.0930  0.0268  0.3021
 6295W        W22556   5.164   5.926   3.826  0.0527  0.0104  0.0279
 6296W        W22557   1.221  14.216   6.228  0.1833  0.0513 -0.0471
 6297W        W22558  15.905  11.610   0.816  0.1203  0.1515 -0.0603
 6298W        W22559  12.346   6.291  16.835  0.2988  0.3938 -0.0088
 6299W        W22560  16.541   1.134  16.973  0.0910 -0.2227  0.1451
 6300W        W22561   4.176   1.435  12.361  0.0480 -0.1887  0.2238
 6301W        W22562  16.986   7.703   1.281 -0.1417 -0.0668 -0.4266
 6302W        W22563   0.373   7.633  13.562  0.1137  0.0912  0.2318
 6303W        W22564  14.353   3.785   6.578 -0.0146  0.2275 -0.0092
 6304W        W22565  17.224   4.970   4.299  0.3039 -0.2093 -0.2817
 6305W        W22566  13.663  15.801  13.956 -0.1022  0.0483 -0.1267
 6306W        W22567   5.635  14.766  15.862 -0.1821  0.0814  0.0870
 6307W        W22568  16.401  10.559   4.909 -0.1787 -0.2085  0.0235
 6308W        W22569  16.150   7.017   3.973 -0.0197  0.0608  0.1678
 6309W        W22570  17.640   3.671   1.000 -0.1520 -0.0242 -0.0715
 6310W        W22571  12.414   3.322  13.615 -0.1175  0.2395  0.1490
 6311W        W22572  12.902  15.385  13.823 -0.2744 -0.3945 -0.1231
 6312W        W22573   8.222   2.680   1.119 -0.0733 -0.1737  0.0895
 6313W        W22574   5.991  15.786   0.500 -0.1555  0.1970  0.1331
 6314W        W22575  15.154   2.561   0.466  0.1647  0.1147  0.0045
 6315W        W22576  14.812   5.736  11.767  0.4625  0.0882  0.1319
 6316W        W22577   2.120   8.575  16.875  0.0094  0.0507  0.3364
 6317W        W22578  16.692   8.519  12.201 -0.0746 -0.1420  0.1374
 6318W        W22579   2.929  13.546   2.079 -0.0196 -0.2499 -0.3260
 6319W        W22580   1.237  15.912  16.875 -0.1544 -0.1434  0.0695
 6320W        W22581  10.475  16.290   4.265  0.2122 -0.1460 -0.1257
 6321W        W22582   5.840   5.583  15.916  0.1685  0.0515 -0.1748
 6322W        W22583  15.463   7.569   1.955 -0.0805  0.1813 -0.1227
 6323W        W22584   1.359  14.373   4.879  0.1033 -0.1054 -0.0729
 6324W        W22585   3.657  13.853  16.865 -0.0176  0.2039 -0.0589
 6325W        W22586   4.477  14.620  16.384 -0.1966  0.0337  0.0887
 6326W        W22587  15.916   5.330   3.697  0.0798 -0.0890 -0.2673
 6327W        W22588   8.676  10.983  13.938  0.0499 -0.2301  0.2012
 6328W        W22589   2.532  13.342   5.603 -0.2889 -0.3098 -0.2890
 6329W        W22590   1.508   9.281   1.217 -0.1642 -0.0701  0.0082
 6330W        W22591   9.158   8.164   0.676 -0.1769 -0.5017 -0.1772
 6331W        W22592   6.602  12.307  13.149  0.0931 -0.3522  0.2996
 6332W        W22593  14.431   3.925  16.482  0.3254 -0.0782 -0.0647
 6333W        W22594  13.102  12.377  12.706  0.2690  0.3130 -0.0516
 6334W        W22595  11.381   8.583   3.350  0.1964 -0.3941 -0.0334
 6335W        W22596  15.175   3.463   1.751 -0.1483 -0.0111 -0.0266
 6336W        W22597  11.022   9.972  14.455  0.1723 -0.0258  0.0959
 6337W        W22598   7.562   5.246   2.654  0.0499 -0.2219 -0.1433
 6338W        W22599   4.357   7.355   0.346 -0.2816 -0.0131 -0.0340
 6339W        W22600   0.547   0.743   1.442 -0.0210 -0.0056 -0.2770
 6340W        W22601  11.888  16.283   3.468  0.1206  0.0702 -0.2186
 6341W        W22602   2.668   9.426   5.094 -0.2737 -0.3233  0.0306
 6342W        W22603   4.039   7.133  13.818  0.0745 -0.1505  0.0351
 6343W        W22604   4.383  11.425   5.339  0.2682  0.0811  0.0404
 6344W        W22605   1.214   5.987   6.116  0.2533 -0.0002  0.1528
 6345W        W22606   4.753   9.112  13.687  0.1127 -0.0719  0.0667
 6346W        W22607  13.890  11.248   4.690 -0.0273 -0.1595  0.2451
 6347W        W22608   6.222   1.550   2.778 -0.1276 -0.0584  0.2126
 6348W        W22609  10.847  13.262  14.806  0.1945  0.1522  0.1295
 6349W        W22610   3.371   1.095   4.881  0.0621 -0.2146 -0.0778
 6350W        W22611   9.597  10.944  14.760  0.1580  0.1342 -0.1765
 6351W        W22612   9.309  14.511   3.132  0.3172 -0.0870 -0.0882
 6352W        W22613  10.656   6.395  12.664  0.0954  0.0616  0.0272
 6353W        W22614   0.802   8.791  11.423 -0.1472 -0.0566  0.2173
 6354W        W22615  12.026   4.444  13.042  0.0991  0.1236  0.1576
 6355W        W22616   9.494   6.409  16.356 -0.2991  0.0251  0.0340
 6356W        W22617   0.253   2.685   2.648  0.1086  0.1634  0.0531
 6357W        W22618  12.811   1.772   1.268  0.0442  0.5207  0.0024
 6358W        W22619  13.600   5.769   5.348 -0.1179 -0.3121 -0.0295
 6359W        W22620   8.936  17.370  11.985 -0.2341 -0.2286  0.1185
 6360W        W22621  16.644  10.294   0.405  0.2538  0.2780 -0.1456
 6361W        W22622  12.811  10.282  11.558 -0.2292  0.0947  0.1667
 6362W        W22623   1.240  11.022  14.797 -0.0513  0.2860 -0.2064
 6363W        W22624   7.296   0.415  12.138 -0.1368  0.0048  0.0975
 6364W        W22625   4.457  12.714   5.995  0.0468  0.1399  0.1230
 6365W        W22626   6.461   9.430   3.699 -0.3135 -0.2840  0.0613
 6366W        W22627  11.983  15.741  15.356  0.0424  0.0002 -0.4497
 6367W        W22628  15.746   8.002  16.321  0.1186 -0.4373 -0.0649
 6368W        W22629  12.469   2.927   5.783 -0.0022  0.2227  0.3176
 6369W        W22630   6.545  11.813   0.024  0.1887 -0.0059 -0.0175
 6370W        W22631   4.869   3.997   1.732  0.2727  0.0050 -0.1600
 6371W        W22632  15.253  14.925   0.184 -0.1659 -0.0005 -0.3490
 6372W        W22633   6.457   2.570  14.591 -0.0665 -0.1029 -0.0153
 6373W        W22634  10.847  13.727   2.323  0.0773  0.2322 -0.0164
 6374W        W22635   1.986  17.298  14.938 -0.0152  0.0868  0.2192
 6375W        W22636  16.000  14.191   3.853 -0.0085 -0.2026  0.1394
 6376W        W22637   1.616   9.857  12.533  0.2588 -0.2015  0.1503
 6377W        W22638  10.687   0.040   3.366 -0.2713  0.1030 -0.0278
 6378W        W22639  17.283  12.559  12.638  0.0663 -0.0972 -0.0008
 6379W        W22640   0.105   5.172   0.568 -0.0043 -0.0737  0.0674
 6380W        W22641   1.411  11.548  12.166  0.1072  0.3076 -0.0052
 6381W        W22642   3.274  13.143   2.937  0.0940  0.1887 -0.1680
 6382W        W22643   4.042   6.663   5.636  0.1183 -0.1051  0.0318
 6383W        W22644   6.627  14.821   2.834  0.2978 -0.1745  0.0896
 6384W        W22645   5.832  15.823  13.614  0.0939 -0.0255 -0.2035
 6385W        W22646   6.889  16.558   5.116 -0.4814  0.1993 -0.1439
 6386W        W22647   3.716   6.058   1.533  0.2822 -0.1432  0.4459
 6387W        W22648   6.106  17.086   2.271  0.2972 -0.0759 -0.1395
 6388W        W22649  17.513   2.757   3.447  0.0409  0.1558 -0.0327
 6389W        W22650   2.119   1.561   3.701 -0.2248  0.1051 -0.3232
 6390W        W22651   7.708   5.869   0.980  0.2600  0.2077 -0.1864
 6391W        W22652   1.643  13.819  15.199 -0.2208  0.0309 -0.3358
 6392W        W22653   4.348   6.143  16.221  0.1094  0.1518 -0.0208
 6393W        W22654   3.750  13.921   0.857  0.1015  0.1840 -0.0966
 6394W        W22655  16.493   6.816  15.121 -0.2944  0.1149 -0.1981
 6395W        W22656  10.258   5.302   6.634  0.1491  0.4823  0.0869
 6396W        W22657  17.242  15.091   2.415  0.2090 -0.1830 -0.1483
 6397W        W22658  10.358  17.428   0.433  0.2922  0.0245  0.2950
 6398W        W22659   4.166   3.015  14.764  0.1235 -0.4734 -0.1828
 6399W        W22660  13.396  16.086  14.327 -0.0096 -0.0038 -0.3151
 6400W        W22661   1.439   7.043   3.182 -0.1189 -0.0614 -0.1879
 6401W        W22662   3.808  16.645   2.720 -0.2007  0.1873  0.0566
 6402W        W22663  13.034   0.976  14.504  0.1941 -0.1517 -0.2565
 6403W        W22664  12.284  12.972  16.297 -0.1223 -0.2544  0.1780
 6404W        W22665   2.170  11.785  16.921  0.0934 -0.1262 -0.0922
 6405W        W22666   1.435  14.305  15.236  0.0249 -0.0957 -0.1031
 6406W        W22667  16.523   0.456   4.124 -0.0158 -0.3081 -0.0521
 6407W        W22668  12.090   8.319   4.616 -0.1359 -0.1353 -0.1153
 6408W        W22669   4.961  16.109  14.279  0.0070  0.1811  0.0655
 6409W        W22670   2.052  13.744   1.465  0.1620  0.1427  0.0894
 6410W        W22671   8.959  11.867  14.040  0.0877  0.0860 -0.2351
 6411W        W22672   9.945  17.823   5.187  0.3716 -0.2825  0.3365
 6412W        W22673  16.163  15.283  14.993  0.2068 -0.0264 -0.1516
 6413W        W22674   1.693  11.639  16.870  0.1565 -0.0096 -0.0127
 6414W        W22675   1.735   0.313  12.888 -0.3483  0.1729  0.1681
 6415W        W22676  17.682  15.019   5.872 -0.0396  0.4857 -0.1314
 6416W        W22677   6.957   3.726  13.596  0.1824 -0.1144  0.1184
 6417W        W22678  11.480  17.367  16.581 -0.0689 -0.1529  0.1073
 6418W        W22679   2.977  15.311  14.904  0.0767  0.3740  0.2217
 6419W        W22680  13.269  14.389  13.163 -0.0110  0.3505  0.1607
 6420W        W22681  11.653   2.295   5.049 -0.0486  0.0347 -0.1458
 6421W        W22682   1.736   2.077  14.287 -0.1913 -0.1284 -0.2087
 6422W        W22683  12.441   8.240   5.121 -0.1357  0.0028 -0.0727
 6423W        W22684   3.758  15.036  13.646  0.2568  0.1609 -0.2893
 6424W        W22685   3.398   0.505   4.001  0.1394 -0.0009 -0.0490
 6425W        W22686  11.956  17.848   1.740 -0.2040  0.0923 -0.2336
 6426W        W22687   2.077  14.093  13.923  0.2120  0.1245  0.0910
 6427W        W22688  10.019   9.088   2.641  0.2222  0.0381 -0.0680
 6428W        W22689   9.873   3.810  16.221 -0.0656  0.0691 -0.2352
 6429W        W22690  17.618  17.388   1.696  0.2187  0.2552 -0.0487
 6430W        W22691   1.031  17.734   1.744  0.2326  0.1103 -0.1652
 6431W        W22692   3.952  11.775   3.105 -0.3834  0.2533  0.2262
 6432W        W22693   7.654   2.200  13.411 -0.2045  0.1464 -0.0882
 6433W        W22694   0.706   4.118   3.463 -0.3286 -0.0515  0.1524
 6434W        W22695   6.247  12.968  13.439  0.0328  0.0010  0.1334
 6435W        W22696  16.551  10.307   0.880 -0.2191 -0.2220  0.0571
 6436W        W22697   0.193  10.845  12.755  0.4060  0.1543  0.0528
 6437W        W22698  17.493  17.304  15.235  0.0462 -0.0810 -0.0121
 6438W        W22699  14.351  16.355   2.318 -0.0025  0.0292  0.2490
 6439W        W22700  11.405  10.008  12.961 -0.0749  0.0352 -0.0451
 6440W        W22701   1.082   2.159   5.607 -0.1061 -0.0632 -0.2328
 6441W        W22702  14.305   2.586   3.304 -0.1332 -0.0862  0.2660
 6442W        W22703  12.503   4.245   0.124  0.1215 -0.2663  0.1242
 6443W        W22704   4.254  17.682  15.171  0.0237  0.1269 -0.2831
 6444W        W22705   2.592   8.345  12.965  0.2114  0.3268 -0.1176
 6445W        W22706   6.063  16.552   3.539 -0.1505 -0.1215  0.5389
 6446W        W22707  12.006  17.250   5.820  0.1167 -0.0054  0.0969
 6447W        W22708   1.985   2.372  15.185  0.1620 -0.1005 -0.1470
 6448W        W22709   5.872  11.260  12.104  0.0652 -0.0435  0.2676
 6449W        W22710   1.018  11.211   5.405 -0.0440  0.1427  0.1903
 6450W        W22711   6.979  15.571   4.400  0.1140 -0.1587 -0.0424
 6451W        W22712  16.538  10.928  12.218 -0.0540  0.0012 -0.1186
 6452W        W22713  11.547   2.534  13.842  0.0747 -0.1681  0.3346
 6453W        W22714  16.941   5.262   2.005  0.1635 -0.2227 -0.3794
 6454W        W22715   6.574  10.679  10.397  0.1550  0.1569 -0.1909
 6455W        W22716   5.805   7.386   2.941 -0.0512  0.0018 -0.2800
 6456W        W22717   1.563  16.500   5.368 -0.1090 -0.1270 -0.1561
 6457W        W22718   9.612   3.521   2.985  0.0140  0.1193  0.0305
 6458W        W22719  15.130   8.407  15.363 -0.2014 -0.0984 -0.0949
 6459W        W22720  11.378  12.622  11.429  0.0635  0.0153 -0.0699
 6460W        W22721  14.891  15.711  15.882 -0.3748 -0.2395  0.0000
 6461W        W22722  17.806   1.847   2.161  0.0306 -0.1548  0.0689
 6462W        W22723   6.800   3.321   1.722 -0.3095 -0.0460 -0.2164
 6463W        W22724   6.947   3.448  13.990  0.1498  0.0327 -0.1487
 6464W        W22725   0.875   8.064   5.392 -0.1315  0.0495 -0.3121
 6465W        W22726   8.045   8.083  13.921  0.2736 -0.2271 -0.2477
 6466W        W22727   8.149   0.512  15.498 -0.0670 -0.1825  0.2110
 6467W        W22728   4.247   1.617   2.037  0.1154  0.0279 -0.0809
 6468W        W22729  15.891   4.437   0.837  0.0839 -0.1862 -0.0691
 6469W        W22730  12.402   1.938  13.107 -0.0376 -0.0028 -0.0603
 6470W        W22731   6.817  15.409  13.357  0.1947 -0.0333 -0.2847
 6471W        W22732  14.603   1.123   2.090 -0.3259 -0.1801  0.1068
 6472W        W22733  17.700  15.493  12.414  0.1238  0.2150  0.1159
 6473W        W22734   8.980  12.380  11.752  0.2035 -0.0803  0.2251
 6474W        W22735  16.836   4.329  14.175  0.1346  0.4079 -0.0206
 6475W        W22736   1.522  13.489   2.722 -0.1571  0.0003  0.0272
 6476W        W22737  15.457   3.994  16.063  0.0436 -0.0327 -0.1715
 6477W        W22738   0.714   6.208   2.389 -0.0518  0.2673 -0.1757
 6478W        W22739   9.079  12.269   0.304  0.2731  0.0054  0.2162
 6479W        W22740  12.254   9.083   5.004  0.2476 -0.2555  0.3176
 6480W        W22741   8.324   3.005   1.855 -0.0531  0.4585  0.0344
 6481W        W22742   2.349  17.517   4.260  0.1997  0.0623  0.1854
 6482W        W22743  16.023  11.797   1.292  0.0693 -0.1654  0.1256
 6483W        W22744  14.683  15.621   1.991 -0.0494  0.1293  0.2083
 6484W        W22745   5.833   6.439  16.221 -0.0131 -0.4015  0.1777
 6485W        W22746   8.969  17.278  13.814 -0.0152  0.0809  0.1199
 6486W        W22747   3.440  16.339   1.603  0.0131 -0.0857 -0.1257
 6487W        W22748   0.448  14.666  13.420 -0.3530  0.0110  0.0929
 6488W        W22749  12.632  17.120  15.696  0.2969  0.3253  0.1312
 6489W        W22750   5.456  17.236  15.669  0.1000 -0.1834 -0.1012
 6490W        W22751  10.323  14.695   5.816 -0.2159 -0.1993 -0.1588
 6491W        W22752   3.250   3.495  16.253  0.1213 -0.3286  0.0889
 6492W        W22753   7.009   3.884  16.496  0.0297  0.0711  0.1842
 6493W        W22754  13.121  14.774   4.129  0.0298  0.3859  0.1819
 6494W        W22755   3.931  16.880   6.190 -0.3535  0.0461 -0.0115
 6495W        W22756  14.906   0.795  14.831  0.2002 -0.2144  0.0052
 6496W        W22757  15.303  14.563  16.793  0.1425 -0.2409  0.0139
 6497W        W22758   4.958   9.493  13.935 -0.1544 -0.1727  0.0641
 6498W        W22759  14.730   3.481  16.360  0.2110  0.1944  0.0088
 6499W        W22760   4.433  15.397   2.587 -0.2047 -0.0805  0.2124
 6500W        W22761  15.887  11.375  16.939 -0.0667  0.3794 -0.0037
 6501W        W22762   2.221   6.851  15.318  0.2542 -0.1964  0.0793
 6502W        W22763   3.953   4.627   0.918  0.1527 -0.0263 -0.0265
 6503W        W22764   2.047   3.419  11.927 -0.0937  0.3420  0.0148
 6504W        W22765  12.889   4.306  16.767 -0.0328 -0.2697  0.1520
 6505W        W22766  14.061  10.271  16.573  0.0760  0.0067 -0.2869
 6506W        W22767  14.224   6.392   0.906 -0.0924  0.0992 -0.2630
 6507W        W22768  15.616   2.667   4.827 -0.0309 -0.0747 -0.1181
 6508W        W22769   0.413  11.499  16.566 -0.3043 -0.0191  0.2787
 6509W        W22770   7.262  12.709   5.487  0.2465  0.0507 -0.3151
 6510W        W22771   8.929   3.601  14.021  0.1518  0.0161 -0.0437
 6511W        W22772  15.150  10.056  11.827 -0.0806  0.1074 -0.2771
 6512W        W22773   4.415   6.264   5.130 -0.2450 -0.0719 -0.1160
 6513W        W22774   5.252  10.328  16.967 -0.0097 -0.1386  0.2120
 6514W        W22775   0.527   3.704   4.680  0.1813 -0.3212  0.0264
 6515W        W22776   9.962  12.175  13.394  0.1149  0.3425 -0.2659
 6516W        W22777   2.227  11.868  12.388 -0.1943 -0.0754 -0.0210
 6517W        W22778   1.107   6.774  12.093  0.1292 -0.0079  0.2292
 6518W        W22779   8.816  12.931  13.974  0.2170  0.2590  0.3351
 6519W        W22780  12.497   6.138   2.141  0.3023 -0.0394 -0.1950
 6520W        W22781   0.704   4.441   5.457  0.0706  0.1348  0.2569
 6521W        W22782  13.015  11.528   0.138  0.3025 -0.0698  0.0903
 6522W        W22783   4.214   2.817   4.150  0.0195 -0.0461  0.1873
 6523W        W22784   2.630   3.063  15.019 -0.0737 -0.1148  0.1794
 6524W        W22785   8.802   1.249  13.147 -0.0560 -0.0514  0.1352
 6525W        W22786   5.600   1.866   3.955  0.1339 -0.1422 -0.4060
 6526W        W22787  16.158  13.709   1.009  0.0255 -0.0774  0.1057
 6527W        W22788   0.611   9.683   0.555 -0.2699 -0.1638 -0.3181
 6528W        W22789  12.770   1.406  14.651  0.2349  0.0466 -0.2237
 6529W        W22790   8.713   9.821  15.423  0.3109 -0.0190  0.1282
 6530W        W22791   1.977   0.605  14.629  0.1663  0.2110  0.2665
 6531W        W22792   4.861  11.404   5.554 -0.0173  0.3328 -0.0726
 6532W        W22793  16.178   7.506   0.086  0.2199  0.1132  0.2730
 6533W        W22794  17.570  15.987   3.727  0.2081  0.1660 -0.1905
 6534W        W22795  12.398   1.641  15.651  0.0410  0.1290  0.0625
 6535W        W22796  16.473   8.458   1.820 -0.0242 -0.0040 -0.0515
 6536W        W22797   7.065   0.476  11.656 -0.0023 -0.1557  0.1405
 6537W        W22798   8.420   5.711   3.958  0.1362 -0.1662 -0.4820
 6538W        W22799  16.644  11.792  15.553 -0.0366  0.1830  0.0055
 6539W        W22800   5.707  15.447  15.836  0.0045  0.1557 -0.2028
 6540W        W22801   3.675   2.495  16.939  0.0054 -0.3194  0.1851
 6541W        W22802   0.236  17.297   4.886  0.2667 -0.1378  0.1366
 6542W        W22803  12.776  10.422  13.267 -0.0461  0.1768  0.0448
 6543W        W22804  11.341   5.433  13.796 -0.0794 -0.0060  0.0808
 6544W        W22805   0.813   2.621   0.104 -0.0662  0.0116 -0.0451
 6545W        W22806   0.463  10.817   1.762 -0.0229 -0.0065 -0.0150
 6546W        W22807   1.412  11.365  13.085 -0.0593  0.1759  0.0943
 6547W        W22808   9.207   8.754  15.656 -0.1403  0.3028 -0.3095
 6548W        W22809  16.813   1.426   5.544 -0.0127 -0.0632 -0.3707
 6549W        W22810   7.861  13.157  15.313 -0.0071 -0.0051  0.0133
 6550W        W22811   8.304   4.640  12.814  0.3223 -0.2783  0.0030
 6551W        W22812   6.039   4.781   0.489  0.1459 -0.0627 -0.1466
 6552W        W22813  15.323  16.405  15.776  0.1233 -0.0588  0.4272
 6553W        W22814   4.513  17.186   1.145  0.6044 -0.0893  0.0331
 6554W        W22815  14.286  11.871  13.766  0.2196  0.1741 -0.0318
 6555W        W22816   8.593  17.576   3.084 -0.1816 -0.0048  0.3185
 6556W        W22817   6.630  10.774   5.639  0.0446  0.3429  0.3946
 6557W        W22818   9.392  10.963   0.243 -0.0159  0.0992  0.0318
 6558W        W22819   2.139   3.873  12.887 -0.0609  0.0709 -0.1726
 6559W        W22820   3.514   4.230   3.398  0.1148 -0.2488 -0.2489
 6560W        W22821  12.958   9.151  16.398  0.0045  0.1611 -0.1736
 6561W        W22822  13.045  12.766  13.898  0.0734 -0.1887  0.0589
 6562W        W22823   5.428  12.527  16.688  0.0376 -0.3562  0.1572
 6563W        W22824  17.755   5.425   0.155  0.3406 -0.1402  0.0914
 6564W        W22825   8.094  16.690  16.008 -0.1688  0.0383  0.0391
 6565W        W22826  17.569  14.432   4.669  0.1605  0.0416 -0.0709
 6566W        W22827  10.758   7.142   0.836 -0.1546 -0.0741 -0.0900
 6567W        W22828   5.700  10.422  14.920 -0.2117 -0.0276 -0.3144
 6568W        W22829   4.917   8.687   1.369 -0.3049 -0.0643  0.1177
 6569W        W22830   7.285  11.116   2.317 -0.1390  0.2422  0.2346
 6570W        W22831  11.463   5.937  13.705  0.1926  0.2907  0.0791
 6571W        W22832  13.554  14.668  15.059  0.2007  0.1220  0.0741
 6572W        W22833  16.037   1.305   4.201  0.2929 -0.2848  0.3193
 6573W        W22834  15.838  11.534  11.997  0.0144  0.0037  0.1714
 6574W        W22835   8.127   7.851   1.630 -0.0457  0.1252 -0.0180
 6575W        W22836  12.198   0.340   2.221 -0.3096 -0.3035 -0.1520
 6576W        W22837   8.089   5.211   1.394  0.2523  0.1274 -0.1735
 6577W        W22838  13.217   7.801  11.892  0.2983 -0.0925  0.0999
 6578W        W22839   8.670   0.547  13.640 -0.3065 -0.2346  0.0286
 6579W        W22840  13.873   9.958   0.361 -0.2417 -0.3441  0.2814
 6580W        W22841  10.017  12.248  16.545 -0.1687 -0.0593 -0.0222
 6581W        W22842  16.831   4.096  13.309 -0.0183  0.1582  0.0372
 6582W        W22843   4.389  17.119   5.774  0.1096 -0.0943  0.0001
 6583W        W22844  11.513   5.594  12.865  0.1327 -0.3302  0.1822
 6584W        W22845   4.078  16.710  14.129 -0.2904  0.2215  0.0855
 6585W        W22846   6.417  12.481   0.727 -0.0484  0.1113  0.0608
 6586W        W22847   5.663   4.663   2.754  0.2318 -0.2676 -0.3271
 6587W        W22848  13.340  12.683  13.001 -0.0324  0.2183 -0.0338
 6588W        W22849   4.903   1.564   3.668  0.1995  0.2105  0.0827
 6589W        W22850  14.547   5.193   1.953  0.1114 -0.1104 -0.1966
 6590W        W22851   9.515  17.348  13.846 -0.1402 -0.1541 -0.1927
 6591W        W22852   5.970  14.898  11.329  0.0223  0.1666 -0.2403
 6592W        W22853  14.522  17.295  14.383 -0.1867 -0.1541 -0.1963
 6593W        W22854  17.131   1.542  13.593 -0.0699 -0.0396 -0.0204
 6594W        W22855  12.973   3.861   2.006  0.1607 -0.3353  0.0837
 6595W        W22856   8.548   6.591  15.037  0.3424 -0.0549 -0.1042
 6596W        W22857  14.758   6.730  15.578  0.1723  0.3711 -0.4866
 6597W        W22858   2.391  16.245   2.532  0.0389  0.0005  0.0459
 6598W        W22859   1.462   1.595   1.715  0.1699 -0.0618 -0.1141
 6599W        W22860  14.310   7.817   2.614 -0.0286  0.0797 -0.1054
 6600W        W22861   8.257   4.783   3.645 -0.0587  0.0932 -0.1180
 6601W        W22862   3.745   2.476   4.184 -0.1398  0.1851 -0.1392
 6602W        W22863  10.491   7.669  12.446 -0.0959  0.3648 -0.0156
 6603W        W22864  12.901  10.718  13.621  0.3331 -0.0398 -0.0517
 6604W        W22865   9.928   0.146  11.813  0.1150  0.0987  0.0175
 6605W        W22866   3.485   5.656  15.526 -0.0129  0.0447  0.0592
 6606W        W22867  13.883   2.332  14.206 -0.1288 -0.0124  0.2866
 6607W        W22868  17.685   2.454   2.959  0.0425  0.0652 -0.2249
 6608W        W22869   7.321  13.780  11.277 -0.2687  0.1989 -0.0608
 6609W        W22870   2.688  10.279  12.029  0.1120  0.1807  0.0364
 6610W        W22871   3.440   8.489   2.128  0.0038 -0.1464  0.0598
 6611W        W22872   6.160  10.450  12.767 -0.0386 -0.1241  0.2683
 6612W        W22873  12.675  17.342  16.912  0.1838 -0.0374 -0.1258
 6613W        W22874  12.757   6.941  12.613 -0.0942  0.1426 -0.1543
 6614W        W22875  17.638   0.242   3.060  0.0889 -0.3522 -0.2168
 6615W        W22876   7.651  11.907  14.280 -0.0381  0.0257 -0.1633
 6616W        W22877   8.825  14.169  12.519 -0.0236 -0.1439 -0.2275
 6617W        W22878   3.082   1.424  14.329 -0.3100  0.0486 -0.3015
 6618W        W22879   6.268  13.981  11.660 -0.0545  0.0610  0.1055
 6619W        W22880   4.027   2.739   1.598  0.2460  0.0314  0.0876
 6620W        W22881   4.446  16.314  14.383  0.0255  0.2703 -0.2366
 6621W        W22882   7.973   8.949  13.869 -0.0471  0.0263 -0.2986
 6622W        W22883  15.947  12.009  12.833 -0.1235  0.1757 -0.2049
 6623W        W22884   8.194   7.105  13.225 -0.0720 -0.0906 -0.0495
 6624W        W22885  12.685   0.860  16.182 -0.0385  0.0562 -0.0346
 6625W        W22886   0.360   0.318   3.188 -0.0149  0.0126  0.2763
 6626W        W22887  17.498  17.762   6.192 -0.1390 -0.1883  0.0023
 6627W        W22888   9.499   1.412  13.673  0.1142  0.1440  0.1054
 6628W        W22889   8.415  10.508   1.615 -0.0397 -0.1186  0.1314
 6629W        W22890   4.692   7.731  15.966  0.2027 -0.2129 -0.2329
 6630W        W22891   6.086   5.991  15.876 -0.0331 -0.0141  0.2087
 6631W        W22892   6.141  14.358   3.766  0.4902  0.0667 -0.1005
 6632W        W22893   5.892  16.178   0.853 -0.0440 -0.1291  0.0432
 6633W        W22894   7.876   3.580   5.574 -0.0353  0.1950 -0.2719
 6634W        W22895  13.092   6.818   5.951 -0.3891  0.0489  0.1384
 6635W        W22896  17.740   4.652   3.496  0.0083 -0.1354  0.1111
 6636W        W22897   2.084  17.607   0.302  0.0226 -0.1307  0.3075
 6637W        W22898   9.125   4.121   1.786 -0.0186 -0.1102 -0.1040
 6638W        W22899   1.274   5.485  16.526  0.0941  0.0287 -0.1291
 6639W        W22900   5.424  10.281   0.490  0.1178  0.1931  0.2328
 6640W        W22901  16.834   4.408   1.685 -0.0624  0.2210 -0.0953
 6641W        W22902   4.150   5.230  15.845  0.2204  0.0377 -0.2823
 6642W        W22903   5.415   9.671   4.615 -0.0489  0.1299  0.1152
 6643W        W22904   7.578  13.009   0.912 -0.2041 -0.0075 -0.1825
 6644W        W22905   0.292   9.066   4.392 -0.1634 -0.1298  0.3096
 6645W        W22906   9.997   2.793   1.519 -0.1120 -0.0263  0.1921
 6646W        W22907   2.855  17.704   3.964  0.2751  0.0367  0.5008
 6647W        W22908  12.893   3.079  15.285  0.0127 -0.1188 -0.2470
 6648W        W22909   9.812  15.494   2.481  0.2997  0.5891 -0.3065
 6649W        W22910  11.124   1.013  11.713  0.1153  0.1646 -0.0197
 6650W        W22911  15.926   0.235   2.376  0.2964  0.3570  0.4018
 6651W        W22912   7.774  12.946  16.769 -0.2801  0.1111  0.0161
 6652W        W22913   8.900  12.285   4.673 -0.2668 -0.3966 -0.0083
 6653W        W22914  16.544   8.365   3.063  0.1579  0.1883 -0.3102
 6654W        W22915   9.829   2.248  13.255 -0.0028  0.1424 -0.0705
 6655W        W22916   0.210  13.601  15.314 -0.0603 -0.1760 -0.3112
 6656W        W22917   1.417  17.526   0.129 -0.1627  0.1262  0.1235
 6657W        W22918   0.806   4.049   1.778 -0.2115 -0.2188 -0.0588
 6658W        W22919   5.971   8.565   4.356  0.3764 -0.2144  0.1278
 6659W        W22920   3.039  17.049   5.914 -0.0552  0.1218  0.0383
 6660W        W22921   9.875   8.724   2.289 -0.1344  0.0517  0.1319
 6661W        W22922  13.474   2.894  13.037 -0.0605  0.3388 -0.3048
 6662W        W22923   6.749  12.409  15.893 -0.0009 -0.1052 -0.0737
 6663W        W22924  14.422  10.811  14.834 -0.2115  0.2854  0.2589
 6664W        W22925  11.436   6.171   4.279 -0.1526  0.0602 -0.1877
 6665W        W22926  17.765   0.659  16.580  0.1751  0.2592  0.2087
 6666W        W22927   3.679   4.570   3.005 -0.1195 -0.1386  0.0728
 6667W        W22928  14.315  17.148   5.489  0.2868  0.4101  0.3603
 6668W        W22929   2.327   2.414   3.667  0.0375  0.0499  0.2259
 6669W        W22930  16.161  15.681   5.657  0.1005  0.2825  0.1829
 6670W        W22931   7.304  10.662   4.162 -0.0321 -0.0223 -0.1411
 6671W        W22932   7.722  15.383  12.110  0.1283 -0.3525  0.2122
 6672W        W22933  10.523  12.515  11.501  0.0037  0.2725 -0.3068
 6673W        W22934   0.764   9.218   4.506 -0.0462 -0.0425 -0.4399
 6674W        W22935  11.462   2.487  11.723  0.0478  0.2930 -0.2530
 6675W        W22936  11.081   2.301   3.601 -0.1964  0.0004  0.1733
 6676W        W22937   3.369  12.045   0.601 -0.0457  0.0396  0.1924
 6677W        W22938  11.004   4.336  14.151 -0.4607 -0.1856 -0.1451
 6678W        W22939  13.068   3.605   5.034  0.0932  0.0497  0.0125
 6679W        W22940  17.191  10.189  14.939  0.1929  0.2346 -0.1058
 6680W        W22941  11.558  11.054   1.822  0.2641  0.0040  0.0236
 6681W        W22942  12.891   8.761   5.570  0.0382 -0.0519  0.0096
 6682W        W22943  11.364  14.244   3.702  0.1414 -0.2215  0.2616
 6683W        W22944   5.165   6.450  14.493 -0.0654 -0.0891  0.2846
 6684W        W22945   7.346  17.838   0.849  0.2970 -0.3434 -0.0164
 6685W        W22946  13.957  11.787   4.709  0.0780  0.3728  0.0679
 6686W        W22947   5.220   9.595   1.779  0.2542  0.1656  0.4180
 6687W        W22948   3.701   2.459  12.348 -0.2434  0.0785  0.2051
 6688W        W22949   9.614   6.334   2.068  0.2202 -0.0245 -0.1157
 6689W        W22950  16.550  14.464   2.493  0.2753  0.1854  0.0076
 6690W        W22951  16.908  10.361  12.444 -0.1368 -0.1378  0.1188
 6691W        W22952   8.890  10.757  15.280 -0.4577 -0.0236 -0.2532
 6692W        W22953   6.363   3.688  14.882 -0.4315 -0.1448 -0.1714
 6693W        W22954  11.997   4.216  15.889 -0.1381  0.2747  0.1021
 6694W        W22955  15.963   4.184  16.789 -0.0683  0.1512  0.1672
 6695W        W22956   7.343   6.911   2.547 -0.0041 -0.0837 -0.0488
 6696W        W22957  12.525   0.935  14.488 -0.5376  0.1782 -0.2199
 6697W        W22958  16.255  12.401  14.894  0.0785 -0.2668  0.2320
 6698W        W22959   2.939   2.549   4.136 -0.0063  0.1377  0.2224
 6699W        W22960   7.732  11.471   3.618 -0.0895  0.2264  0.0873
 6700W        W22961  12.580  12.083  14.208  0.2248  0.2400  0.0329
 6701W        W22962  12.319  16.916   1.988  0.1989 -0.2289 -0.1067
 6702W        W22963   8.660   5.982  16.876  0.1391 -0.0490 -0.0201
 6703W        W22964   7.435   6.296  13.593 -0.2018  0.3788 -0.0923
 6704W        W22965  12.019   0.884   4.976  0.1153  0.1140 -0.4909
 6705W        W22966  13.396  15.248   4.010  0.0587 -0.0249 -0.1042
 6706W        W22967   8.782   0.530  15.013  0.1444 -0.3149  0.1148
 6707W        W22968  12.019   8.437   2.719 -0.0481 -0.1156  0.2446
 6708W        W22969   2.910   2.739   0.791 -0.1589 -0.1406 -0.0132
 6709W        W22970  12.263  16.433   3.037  0.1522  0.2280 -0.2240
 6710W        W22971  14.368   2.552  16.918 -0.2790  0.3770  0.1080
 6711W        W22972  16.833  13.587   4.197  0.1910  0.5427  0.3754
 6712W        W22973  15.821  11.448  13.051 -0.2458  0.0834  0.1669
 6713W        W22974   8.125  16.336  11.800  0.1277  0.0567  0.0127
 6714W        W22975   0.085  15.341  15.655  0.2225  0.2160 -0.0004
 6715W        W22976   3.621   2.444   1.468  0.2182  0.2029  0.2988
 6716W        W22977   9.513  11.146  14.189 -0.2424 -0.3367 -0.1717
 6717W        W22978   8.179  15.802  13.984  0.0330  0.1806 -0.2390
 6718W        W22979  17.499   8.162   2.905  0.2180 -0.1045  0.1042
 6719W        W22980  15.991   9.425  12.558  0.0181 -0.0595  0.1802
 6720W        W22981  17.077   8.510   5.408  0.0993  0.1538  0.0251
 6721W        W22982  13.533   3.884  16.345 -0.2058  0.3204 -0.1266
 6722W        W22983  10.532  12.247  13.517 -0.0276 -0.0820  0.2046
 6723W        W22984   6.110  11.134  14.674  0.2475  0.0283 -0.0316
 6724W        W22985   6.273  14.440   4.221  0.3529 -0.1149  0.0677
 6725W        W22986  13.982   0.796   2.748  0.1798  0.1026  0.3715
 6726W        W22987   7.057  14.260   1.384  0.0808  0.2112  0.0586
 6727W        W22988  11.561   4.769   4.458  0.0641  0.3483  0.0904
 6728W        W22989   0.029  17.736  14.233 -0.1045  0.0470  0.1564
 6729W        W22990  11.679  17.069   5.388  0.0102  0.1831 -0.1198
 6730W        W22991   1.365  11.547  16.042  0.0734  0.0912  0.3477
 6731W        W22992   4.208   4.196  11.933  0.0840 -0.2247  0.0402
 6732W        W22993  16.221   6.874  16.135 -0.2507 -0.3395 -0.0451
 6733W        W22994   1.685   7.822   4.715 -0.0800  0.2337 -0.0628
 6734W        W22995  10.054   7.498  12.224 -0.0229 -0.0279  0.0331
 6735W        W22996  10.013   0.326   3.546 -0.0086  0.0214 -0.2579
 6736W        W22997  11.039  14.783   4.107  0.3118  0.0014  0.0671
 6737W        W22998   3.056   6.832  12.843  0.0114 -0.0940  0.3099
 6738W        W22999  14.012   9.794   3.298 -0.0936 -0.0785  0.0211
 6739W        W23000   8.010  11.354  15.650  0.1327  0.0426 -0.3249
 6740W        W23001   5.974   2.486   6.326 -0.1382  0.0702  0.1081
 6741W        W23002  17.045  12.192  13.914 -0.0863 -0.2830 -0.0469
 6742W        W23003   8.736   8.512  12.420  0.0252 -0.1969  0.0934
 6743W        W23004   0.085   7.212  13.645 -0.2982  0.4560  0.5180
 6744W        W23005  16.116   3.581  15.646  0.2572 -0.0046  0.1126
 6745W        W23006   4.583  15.888  13.219 -0.1890 -0.0734 -0.2500
 6746W        W23007  15.624  10.355   5.289 -0.1503  0.2009  0.2307
 6747W        W23008   0.207  11.050  16.577  0.0034 -0.3904  0.3140
 6748W        W23009   8.538  12.318   2.477  0.0541 -0.0234  0.2386
 6749W        W23010  15.188  15.313  12.769  0.1047 -0.1806  0.0714
 6750W        W23011   2.889   2.757   1.946 -0.1457  0.2647 -0.2931
 6751W        W23012  16.805   1.888  15.665 -0.2432  0.0154  0.4667
 6752W        W23013   7.303   4.513  13.165  0.0308 -0.2057 -0.1949
 6753W        W23014   4.097   5.628   5.679  0.0640  0.0528  0.3419
 6754W        W23015  13.445   6.690   3.655 -0.1810  0.1954  0.1774
 6755W        W23016  14.900  14.853   4.782 -0.0905  0.1819 -0.0114
 6756W        W23017  16.967   2.372  16.856 -0.1078  0.2051  0.1521
 6757W        W23018   1.267  11.325  15.252 -0.0098  0.0324 -0.0733
 6758W        W23019  15.062  10.915  13.102  0.0881  0.0330  0.1122
 6759W        W23020  12.488  14.147   6.248  0.0887 -0.0584  0.1061
 6760W        W23021  15.977   9.162   3.272  0.2028  0.0493  0.0966
 6761W        W23022  16.530   7.470   1.478  0.1133 -0.2554 -0.2659
 6762W        W23023  15.893   5.194  15.912 -0.0836  0.0329  0.2491
 6763W        W23024  17.002   9.695  13.189  0.0956 -0.1047 -0.1598
 6764W        W23025   6.315   9.386  16.596 -0.0301 -0.1194  0.1182
 6765W        W23026   9.061   7.118  13.988 -0.2686 -0.1584  0.1769
 6766W        W23027   9.840  10.728  14.355  0.0659 -0.2427  0.2219
 6767W        W23028   1.541  15.498  13.867  0.1144  0.2367 -0.2050
 6768W        W23029   9.898   4.525  15.785  0.1283  0.3256 -0.1650
 6769W        W23030   5.437  13.118  12.844  0.1349 -0.0419  0.2143
 6770W        W23031   9.268   1.334   0.186  0.1610 -0.1240  0.0963
 6771W        W23032  15.213  16.450  12.032 -0.3554  0.0095  0.1774
 6772W        W23033   8.858  15.942   0.448 -0.0844 -0.0350 -0.0650
 6773W        W23034   9.118   0.259  14.343  0.1266  0.0720  0.3239
 6774W        W23035   4.958   3.988   0.079 -0.0321  0.3911  0.1337
 6775W        W23036   0.141  16.834   6.203  0.0784 -0.2620  0.0343
 6776W        W23037   9.038   8.897   5.145  0.0726  0.1877 -0.1588
 6777W        W23038   8.865   0.942  15.418  0.0542  0.1393  0.3483
 6778W        W23039  14.894  11.325  13.353 -0.0374  0.0137  0.0817
 6779W        W23040   6.006   5.695  13.709  0.1653 -0.0943  0.0205
 6780W        W23041   9.812  16.950  13.851  0.0718 -0.0998 -0.1139
 6781W        W23042   3.003   9.684   3.990  0.1767  0.2246  0.0297
 6782W        W23043  13.661   2.832  11.679 -0.1210 -0.2326 -0.2448
 6783W        W23044  12.815   9.939  15.781 -0.1896 -0.1478 -0.2977
 6784W        W23045   8.458   0.086   2.388  0.3749  0.2667  0.2100
 6785W        W23046  12.762  14.580  16.961  0.3222 -0.1104  0.0503
 6786W        W23047   8.010   1.467   6.304  0.3140 -0.0442  0.0682
 6787W        W23048   0.206   0.242   6.167 -0.1505 -0.0142  0.0091
 6788W        W23049  17.090   1.877  16.740  0.1722 -0.0146  0.3018
 6789W        W23050   8.936   0.138  16.013 -0.0416 -0.0334 -0.1091
 6790W        W23051  12.217   9.878   1.215 -0.0836 -0.0900 -0.0605
 6791W        W23052   3.493  10.550   3.811  0.3132 -0.0094  0.0275
 6792W        W23053  13.846   7.635   2.514  0.2905 -0.0855 -0.0335
 6793W        W23054   8.356  15.172  11.649 -0.0333 -0.3060  0.2564
 6794W        W23055  17.050   0.727   5.378 -0.0189  0.3220  0.1851
 6795W        W23056  10.328  13.764  14.106 -0.0980 -0.0244 -0.0048
 6796W        W23057  12.578  17.624  14.179  0.0839 -0.0168 -0.1298
 6797W        W23058   6.848  10.353   5.504  0.1696 -0.0644 -0.0070
 6798W        W23059   3.434   5.815   1.106 -0.0024 -0.0998  0.0288
 6799W        W23060  12.644  10.356   4.819 -0.2542 -0.2437 -0.0324
 6800W        W23061   1.970  12.714   4.536 -0.1631 -0.2580 -0.2480
 6801W        W23062   1.441  13.859  11.269  0.2054 -0.3626 -0.0657
 6802W        W23063  17.710  13.151   0.542 -0.0235  0.2981 -0.1516
 6803W        W23064   4.845  15.393  14.815 -0.0710  0.0647  0.0175
 6804W        W23065  17.374   2.302   3.359  0.2227  0.2417 -0.1327
 6805W        W23066   1.032   8.047   1.286 -0.2233  0.0408 -0.2986
 6806W        W23067  12.661   3.477   5.986 -0.0049 -0.1245 -0.0110
 6807W        W23068   5.603  11.925  15.329 -0.0630 -0.0924  0.0683
 6808W        W23069   4.972   8.585   2.659 -0.2146 -0.1635 -0.0884
 6809W        W23070   1.506   0.113   5.412 -0.0941 -0.0598  0.1146
 6810W        W23071   4.895  10.901  14.833  0.1916 -0.0121 -0.0874
 6811W        W23072  16.774   1.786   2.126 -0.0144  0.0882 -0.2501
 6812W        W23073   3.778   2.925   0.637  0.0045  0.2081 -0.1971
 6813W        W23074   6.354   0.649   1.166 -0.0211 -0.0221 -0.0259
 6814W        W23075   5.338  14.426  12.643  0.1429  0.1570 -0.4050
 6815W        W23076  15.978   9.468  16.075  0.2540  0.4303 -0.0784
 6816W        W23077  17.405  15.752   0.088 -0.2410 -0.2731  0.1223
 6817W        W23078  12.017   2.640   5.719 -0.2244 -0.0334 -0.0819
 6818W        W23079   1.139   3.888  14.673 -0.0853  0.2801 -0.3101
 6819W        W23080   7.217   0.025   2.117  0.0184  0.3206 -0.2307
 6820W        W23081   7.376   6.838  13.643 -0.2954  0.1182  0.1145
 6821W        W23082   2.342  16.662   0.324 -0.3982 -0.0608  0.3018
 6822W        W23083  13.416   4.387  14.292 -0.0437  0.1524  0.2103
 6823W        W23084   5.071  11.878   5.724 -0.0578  0.0537  0.1148
 6824W        W23085   7.520   5.060   3.122 -0.4934 -0.1495 -0.0194
 6825W        W23086   9.490   4.834   1.827 -0.4210  0.1318 -0.3600
 6826W        W23087   0.497   2.608  15.302 -0.1616  0.1157  0.0255
 6827W        W23088  11.771  15.190   2.170 -0.1312  0.1623  0.0158
 6828W        W23089  16.698   0.809   2.796  0.1601 -0.0193  0.1042
 6829W        W23090   7.819   9.240  13.177 -0.0817 -0.1296 -0.3191
 6830W        W23091  17.512   1.065   1.828  0.3993  0.1088  0.2594
 6831W        W23092   2.393   0.568   2.119  0.1235 -0.4793 -0.3901
 6832W        W23093   5.922   8.999   5.408 -0.0701 -0.1029  0.2856
 6833W        W23094   8.656  17.010  15.303 -0.2010  0.1637  0.1413
 6834W        W23095   8.898   6.760  12.921 -0.0274 -0.4505  0.4942
 6835W        W23096  11.568   2.095   1.965  0.1921 -0.1069  0.3581
 6836W        W23097   3.851   1.471  13.673  0.1172 -0.0026  0.2976
 6837W        W23098  17.684   1.587   4.152  0.1218 -0.1100 -0.3406
 6838W        W23099  17.165   9.532  13.721 -0.2259  0.2339  0.0889
 6839W        W23100  12.541  16.446   5.857  0.3143 -0.1746 -0.3232
 6840W        W23101  17.468   4.381  13.017  0.1933  0.0597 -0.0673
 6841W        W23102   6.012  13.526   5.055 -0.0697  0.1296 -0.0858
 6842W        W23103   4.289   8.422   3.733  0.0189  0.0969  0.0806
 6843W        W23104   5.923  16.518   5.734  0.0006 -0.2882  0.1575
 6844W        W23105   4.929  13.313  13.009  0.1533  0.0869 -0.2294
 6845W        W23106  11.676   0.247   2.073 -0.0779 -0.1628  0.0925
 6846W        W23107  13.352   9.000  16.665 -0.1453  0.0308 -0.1110
 6847W        W23108   1.015   8.679  15.913  0.6782  0.2930 -0.0404
 6848W        W23109   9.282  11.442   0.099 -0.0132  0.0306 -0.1856
 6849W        W23110   3.845  13.724   4.637  0.2693 -0.1319  0.0060
 6850W        W23111  16.892   0.207   1.467  0.0040  0.0728  0.1928
 6851W        W23112  12.053  12.720   0.096 -0.0419 -0.0148  0.2815
 6852W        W23113  12.115  15.645  11.648 -0.1920 -0.1996 -0.0261
 6853W        W23114  10.997   1.315   3.395  0.2977 -0.4055 -0.0627
 6854W        W23115   7.025   9.892  16.361 -0.3851 -0.4265  0.1002
 6855W        W23116  11.508   0.309  13.921 -0.1071  0.2815  0.2652
 6856W        W23117   6.715   8.768   0.849 -0.2172  0.2332  0.2825
 6857W        W23118   7.318   1.081  16.928  0.1274  0.0991  0.3015
 6858W        W23119  10.214  16.071   4.948 -0.0701 -0.1411 -0.3190
 6859W        W23120  16.105   0.367   0.247 -0.1968  0.1040  0.0402
 6860W        W23121  11.346   7.510   5.196  0.0935 -0.0704  0.0684
 6861W        W23122  12.235  15.422   3.313 -0.2030 -0.2803 -0.1701
 6862W        W23123   5.478   7.049   3.893  0.1491 -0.2864 -0.2645
 6863W        W23124  10.700  14.719   4.486 -0.2665 -0.0338 -0.3165
 6864W        W23125  17.549  12.789   5.289  0.3574  0.0081 -0.2183
 6865W        W23126   2.898   5.014  14.082  0.3241  0.2834 -0.2173
 6866W        W23127   9.372  13.851  13.815  0.1096 -0.0847 -0.1218
 6867W        W23128   7.519  17.048   1.987  0.0568  0.3358 -0.2320
 6868W        W23129   4.411  17.428  13.624 -0.2360 -0.0606 -0.0815
 6869W        W23130  15.158  10.109  14.093 -0.1692  0.0367 -0.0511
 6870W        W23131   4.108   6.298   4.717  0.0523 -0.2629  0.0564
 6871W        W23132  16.995   4.279  12.460 -0.1601  0.0601  0.4212
 6872W        W23133   8.024   7.302   3.114 -0.1768 -0.1638 -0.0603
 6873W        W23134   6.923   7.002   5.586 -0.1245 -0.0101 -0.1043
 6874W        W23135   6.588   4.512   4.444 -0.1038 -0.0882 -0.0585
 6875W        W23136  11.199   7.171  14.671  0.2319 -0.1710  0.1054
 6876W        W23137  10.801   3.687   3.927 -0.1188  0.2820 -0.0335
 6877W        W23138  14.422   9.912   4.205 -0.0061  0.0358 -0.2768
 6878W        W23139  16.561   9.631   5.525 -0.4969 -0.2680  0.1296
 6879W        W23140   0.394   2.924   1.148 -0.0453  0.1954 -0.1622
 6880W        W23141  17.386   9.234   0.414 -0.0981 -0.0222  0.0552
 6881W        W23142   0.420   3.310   3.079 -0.1077 -0.1641 -0.1615
 6882W        W23143  10.444  10.785  11.410  0.1156 -0.2939  0.0800
 6883W        W23144   8.640   9.020   1.806 -0.2247  0.0828  0.1426
 6884W        W23145   7.005   0.645  13.444  0.1941 -0.0890 -0.2588
 6885W        W23146   9.503  10.734  13.925 -0.2646 -0.2510 -0.1572
 6886W        W23147   1.144   3.709   4.293 -0.1772  0.2557 -0.1563
 6887W        W23148  17.305   0.227  13.937  0.1874  0.1065 -0.1249
 6888W        W23149  13.984  16.575  15.445 -0.1987  0.2511 -0.0365
 6889W        W23150  10.069  10.274   2.629  0.1398  0.1130  0.0352
 6890W        W23151   5.381  13.444   1.674  0.0925  0.1197  0.1584
 6891W        W23152   8.476  15.938  15.994 -0.0681 -0.2092  0.0121
 6892W        W23153   1.976  16.890  12.842  0.0965 -0.0644  0.2256
 6893W        W23154   3.048   9.240  14.669 -0.0799 -0.1570 -0.1983
 6894W        W23155   5.629  16.576   3.287 -0.1966 -0.1256  0.0038
 6895W        W23156   6.306  10.420  12.210  0.0591 -0.0767  0.0822
 6896W        W23157  12.988   2.431   4.679  0.1155 -0.0985 -0.0730
 6897W        W23158  12.930  12.367  14.288 -0.2931 -0.1902  0.1853
 6898W        W23159   9.252   6.652  14.271 -0.0061  0.1367  0.0125
 6899W        W23160  11.430   8.065  16.868  0.2144  0.0901  0.1481
 6900W        W23161   7.259  15.013  16.023  0.2176  0.0460  0.1271
 6901W        W23162  15.114  12.953  15.619 -0.2164 -0.1795 -0.1655
 6902W        W23163   6.614   1.177   4.196  0.0908 -0.0814 -0.1086
 6903W        W23164   0.382  11.491   4.218  0.1672 -0.1115 -0.0946
 6904W        W23165   1.967   1.549   1.923 -0.0357  0.1094 -0.0738
 6905W        W23166   0.591   2.146  13.958 -0.0965 -0.2379  0.1348
 6906W        W23167  17.182   5.057  14.501  0.0655 -0.0118 -0.2245
 6907W        W23168   0.163   3.293   5.911  0.1411  0.0695 -0.4717
 6908W        W23169  13.502   5.721  14.718 -0.0534 -0.1880 -0.0385
 6909W        W23170   0.253   0.789   2.999 -0.2115 -0.1940 -0.0514
 6910W        W23171   5.882  16.294   0.364  0.0180 -0.0556 -0.0093
 6911W        W23172  15.555  11.259   1.023  0.0152  0.1653 -0.2618
 6912W        W23173  16.580  14.302  14.279 -0.0677  0.1645 -0.1042
 6913W        W23174  10.340  12.752  12.394  0.0184 -0.0639  0.0486
 6914W        W23175   4.046   5.202  13.605  0.0502 -0.0762 -0.1936
 6915W        W23176  12.082   0.379   0.739  0.1231 -0.0719  0.1203
 6916W        W23177   1.565  12.025  15.624  0.1665 -0.1481  0.0945
 6917W        W23178  17.385   6.820  14.087  0.0520 -0.0437  0.0888
 6918W        W23179   3.405  15.716  16.108 -0.3800 -0.2287 -0.2005
 6919W        W23180   7.587   4.990   3.739  0.0275 -0.0745  0.3139
 6920W        W23181  14.636   3.880   5.177  0.2825  0.1808  0.1413
 6921W        W23182   1.414   3.231   3.836  0.0354  0.1257 -0.0827
 6922W        W23183  12.457  15.975  15.232 -0.0512 -0.0939 -0.0096
 6923W        W23184   3.469   1.973  16.163  0.1278  0.1789  0.0558
 6924W        W23185   5.237  11.574  12.881  0.1589  0.1162  0.1762
 6925W        W23186   4.273   8.753  16.259 -0.0375  0.0844  0.1646
 6926W        W23187  10.379  15.713  14.856 -0.0159  0.0185  0.2471
 6927W        W23188  13.102   8.960  13.460  0.1060 -0.1236  0.1939
 6928W        W23189   3.811  13.485   0.641  0.3485  0.1085  0.1372
 6929W        W23190   8.260  13.611   2.688 -0.0568  0.0999 -0.1360
 6930W        W23191   4.160  14.877   5.321  0.1130 -0.1159  0.1400
 6931W        W23192  10.946   4.011   5.051 -0.0903  0.1562  0.0490
 6932W        W23193  15.958  10.833  12.135 -0.2136 -0.2035  0.1501
 6933W        W23194  10.938  15.325   5.086  0.2487  0.1337 -0.2124
 6934W        W23195  12.377  12.787  13.007  0.0662  0.2274  0.2379
 6935W        W23196   9.946   1.477  12.015 -0.0695 -0.3060  0.2601
 6936W        W23197   0.102   5.650   3.288 -0.2604  0.1927 -0.2250
 6937W        W23198   5.665   3.402   6.567  0.2945  0.3148 -0.0324
 6938W        W23199   3.001  17.402  14.728  0.1996  0.0501  0.2048
 6939W        W23200  16.943  16.523   4.851  0.0091 -0.0283  0.1002
 6940W        W23201   9.207  14.626   1.013  0.1193  0.0900  0.2000
 6941W        W23202  11.178  10.819  16.945  0.1012  0.0847 -0.1056
 6942W        W23203   3.004   5.303   0.371  0.1429  0.2325  0.0023
 6943W        W23204   6.152  17.799  14.619 -0.0009 -0.0167  0.2131
 6944W        W23205   2.691   3.307  15.415 -0.1151 -0.5449 -0.1923
 6945W        W23206   9.468  11.274   4.183 -0.3890 -0.0701 -0.1169
 6946W        W23207   4.467  11.328   1.576  0.1826  0.0354  0.0921
 6947W        W23208  12.322  15.451  14.416  0.1361  0.0584 -0.0333
 6948W        W23209   4.652   9.741   0.432  0.2214 -0.3547  0.1505
 6949W        W23210   5.047   6.150   6.614  0.2630  0.0454  0.0522
 6950W        W23211  13.852  14.022   5.207  0.1502  0.0804 -0.2517
 6951W        W23212  11.355   3.795  13.381 -0.0208 -0.1098  0.1161
 6952W        W23213   3.906   7.415   5.011 -0.0625  0.0960 -0.1188
 6953W        W23214  17.761   8.845   2.579  0.1255 -0.0585  0.0279
 6954W        W23215   2.513   3.932  15.875  0.1415  0.0428  0.1191
 6955W        W23216   8.400  12.621   0.272  0.1497 -0.0845 -0.1892
 6956W        W23217   7.999   4.823  14.267 -0.1114  0.0670  0.1899
 6957W        W23218   2.202   4.787  16.866 -0.3237 -0.1942  0.1316
 6958W        W23219  16.829  17.322   3.406 -0.1682  0.0369 -0.0469
 6959W        W23220  17.452  14.765   4.186 -0.2038 -0.2324  0.1739
 6960W        W23221   6.698   0.894  11.839  0.0128  0.0459 -0.1226
 6961W        W23222  15.724  11.253   4.382  0.0257  0.0392  0.3755
 6962W        W23223   3.971   7.800   6.482 -0.2836  0.1323 -0.0213
 6963W        W23224   4.295  10.546   4.170  0.0563  0.0206  0.1598
 6964W        W23225   5.004  16.586  16.586  0.0770  0.2156 -0.2186
 6965W        W23226   0.730   1.398   0.577  0.1904  0.3704 -0.0974
 6966W        W23227   3.993  17.333   2.403 -0.2309 -0.0070  0.3158
 6967W        W23228   4.999   3.583   6.130  0.0688  0.1213  0.0583
 6968W        W23229  17.601  17.411   4.141  0.0044  0.2534  0.0127
 6969W        W23230   9.048   8.264  11.535 -0.4682 -0.1484  0.0422
 6970W        W23231  14.030  17.703   1.085 -0.1075  0.1018  0.4302
 6971W        W23232   6.581   0.132  12.842 -0.0130  0.0062 -0.1754
 6972W        W23233  15.626  16.175   0.621  0.4056  0.3064  0.3848
 6973W        W23234   7.575   8.318  14.829  0.0841  0.3356  0.4523
 6974W        W23235   5.337   0.810   1.690 -0.1456  0.0603 -0.0836
 6975W        W23236  16.311   6.180   2.854  0.0194 -0.0302  0.0397
 6976W        W23237  14.721   8.232   1.509 -0.1194  0.1919 -0.1898
 6977W        W23238   3.850   8.590   0.504  0.2249  0.1979 -0.0697
 6978W        W23239   0.608  17.354  16.641  0.0049 -0.2018  0.1426
 6979W        W23240  11.885  10.863  11.734 -0.1517  0.0981  0.1666
 6980W        W23241   6.751  10.462  16.654 -0.0631 -0.1148  0.0625
 6981W        W23242   3.298   2.044  15.263 -0.1083  0.2733 -0.1606
 6982W        W23243  17.160   5.164  12.653 -0.1178  0.1597  0.0824
 6983W        W23244   2.765   8.265  15.568  0.0556  0.1026  0.3063
 6984W        W23245   7.050   9.710  12.735  0.1403 -0.1166 -0.2479
 6985W        W23246   6.413  13.602   4.627  0.2041  0.0350  0.0117
 6986W        W23247  16.464  13.947  13.361  0.0998 -0.0026  0.2048
 6987W        W23248   9.610   0.035   0.095 -0.0867  0.1765  0.3390
 6988W        W23249   5.039   3.990  12.838 -0.0220 -0.1406 -0.0960
 6989W        W23250   8.766  13.578   5.311  0.2310 -0.0648 -0.1275
 6990W        W23251   4.511  10.694  13.634  0.1627  0.0446 -0.0590
 6991W        W23252  16.200  11.932  14.685 -0.1932  0.1281  0.1427
 6992W        W23253  14.782  16.116   0.895  0.1904 -0.1590  0.0667
 6993W        W23254  16.148  16.265   3.739 -0.3200  0.5340 -0.1321
 6994W        W23255   0.313   6.515  12.894  0.1693  0.1439  0.1343
 6995W        W23256   3.368  11.099   4.389  0.0677  0.0535  0.0337
 6996W        W23257   4.591   5.268  13.549 -0.0117 -0.1270  0.0874
 6997W        W23258   7.865  13.623   4.125 -0.3155 -0.2584  0.1356
 6998W        W23259  15.555  11.351   0.429  0.1167  0.1148  0.0939
 6999W        W23260   5.237   5.557   4.143 -0.0477  0.0379 -0.0315
 7000W        W23261  13.807   7.831   5.056  0.2738 -0.0388  0.1362
 7001W        W23262  17.302   9.020  13.545 -0.2339 -0.0009 -0.1714
 7002W        W23263  14.141  14.877   2.490 -0.3717  0.2095 -0.0183
 7003W        W23264   4.916  11.120   2.706  0.0234 -0.0437 -0.2278
 7004W        W23265  11.192  16.095  15.823  0.1975 -0.1282 -0.0834
 7005W        W23266   4.858  11.148  13.903 -0.4326 -0.0397 -0.0708
 7006W        W23267  16.643   5.123  13.743  0.1288  0.2657  0.2257
 7007W        W23268   2.196   4.255  12.544  0.1265  0.1216 -0.2241
 7008W        W23269   7.097   0.875  14.589  0.0293  0.0712 -0.2410
 7009W        W23270  14.512   4.524   0.229 -0.1147 -0.0088 -0.0905
 7010W        W23271   9.577   8.003   2.246 -0.2863  0.0419  0.3182
 7011W        W23272  13.848   5.490   2.467  0.0145  0.3628  0.0232
 7012W        W23273   9.211   1.356   3.219  0.1802  0.2007 -0.1028
 7013W        W23274  12.906  10.462  15.862 -0.0325 -0.0744 -0.0022
 7014W        W23275   2.866  17.455  15.239 -0.1150  0.1511  0.0135
 7015W        W23276  15.579  15.541   5.085 -0.1260 -0.0842  0.0696
 7016W        W23277   4.711  13.482  12.511  0.0717  0.3905  0.2398
 7017W        W23278  12.117  11.283   4.357  0.0870  0.0498  0.1763
 7018W        W23279  17.093   5.665   6.455  0.0688 -0.1836 -0.0734
 7019W        W23280   1.926  14.977  14.809 -0.1942 -0.1950 -0.0615
 7020W        W23281   9.002   5.672   4.199  0.2038 -0.1472 -0.1250
 7021W        W23282   3.142  17.804  13.588  0.2387  0.0514  0.4376
 7022W        W23283   0.249  11.679   2.090  0.0498 -0.1380  0.2898
 7023W        W23284   4.334   0.675   0.666 -0.0086 -0.1786  0.1717
 7024W        W23285  16.538   0.170   3.676 -0.1137 -0.0546  0.2384
 7025W        W23286   8.777   1.205   3.937  0.1320 -0.0183  0.0358
 7026W        W23287  16.780  10.190   1.655 -0.2769 -0.0913  0.3668
 7027W        W23288   2.595   9.946   5.366  0.1414  0.0210 -0.2819
 7028W        W23289   8.982   7.164  12.459  0.1307  0.0134  0.0699
 7029W        W23290   3.250   9.192  14.089 -0.1761 -0.2670  0.0046
 7030W        W23291  11.077  14.881  13.931  0.1948  0.3314 -0.0241
 7031W        W23292   2.079   0.170   4.143  0.1838  0.1803  0.2069
 7032W        W23293   3.874   3.946   5.045 -0.3550  0.0256  0.0942
 7033W        W23294  10.786  13.470   5.042 -0.0528 -0.1376  0.0776
 7034W        W23295   7.009   2.089  16.641  0.2709 -0.2765  0.1750
 7035W        W23296  17.861  15.206   6.287  0.0576 -0.0555 -0.1068
 7036W        W23297   7.570  14.469   0.323  0.0351 -0.1481  0.1425
 7037W        W23298  14.038  11.932   3.470  0.3350 -0.1219  0.0503
 7038W        W23299  16.752  17.266  15.084 -0.1596  0.0416  0.0249
 7039W        W23300   0.995  10.908   4.576  0.3305 -0.0290  0.1782
 7040W        W23301   2.939   2.548  16.366 -0.0327  0.0694  0.0244
 7041W        W23302   4.777   9.472   1.342  0.2813  0.0969 -0.0816
 7042W        W23303   0.840   6.910  15.042 -0.0935  0.0610  0.1114
 7043W        W23304   2.785   4.120   3.054  0.0769 -0.0908  0.0933
 7044W        W23305  12.611   3.724  14.512  0.2966 -0.0473 -0.5362
 7045W        W23306   5.759  10.528  11.248  0.5583  0.0030 -0.0723
 7046W        W23307  17.724   7.916   2.247 -0.2136 -0.1327 -0.0997
 7047W        W23308   1.932   7.810   4.254 -0.3833  0.0930  0.1102
 7048W        W23309  13.077   2.518  13.945  0.0770  0.0136 -0.0863
 7049W        W23310  10.888   6.941   5.325  0.0658 -0.3493  0.0769
 7050W        W23311   9.762  10.014   4.848  0.1152  0.4237 -0.1890
 7051W        W23312  14.984   4.365   2.634 -0.1175  0.1817 -0.2209
 7052W        W23313  10.423  16.707   2.777  0.1410  0.3653  0.2157
 7053W        W23314   8.527   2.092  11.765  0.0549  0.3123 -0.0354
 7054W        W23315  17.729   6.468   5.020  0.0345 -0.0067 -0.2778
 7055W        W23316   7.250  16.764   0.205 -0.0784 -0.0190  0.3243
 7056W        W23317  10.065  12.075   4.969  0.0702  0.1610 -0.1610
 7057W        W23318   0.732  15.966  15.694  0.1326 -0.0292 -0.3518
 7058W        W23319  13.356   6.002  12.955  0.1704  0.0955  0.1508
 7059W        W23320   2.312  10.474  14.068  0.2846  0.2264  0.1477
 7060W        W23321   7.358   4.991   4.192  0.1079 -0.0303  0.0593
 7061W        W23322  14.524   5.340  15.986  0.0873 -0.1729  0.1684
 7062W        W23323  10.921  15.262   1.002 -0.4479  0.1849  0.1961
 7063W        W23324  15.851   1.528   3.716 -0.1289  0.0440 -0.0168
 7064W        W23325  15.629   4.016   1.903  0.0404  0.1299 -0.0814
 7065W        W23326   3.444  13.322  11.623 -0.1275 -0.0926 -0.3082
 7066W        W23327   0.921  16.017  16.459 -0.0530  0.0077 -0.2266
 7067W        W23328   8.353  15.091   4.725  0.1126 -0.2129 -0.0736
 7068W        W23329   6.889   0.165  13.414  0.0363 -0.0696  0.0502
 7069W        W23330   6.215  17.467  12.867 -0.0311 -0.0769 -0.2338
 7070W        W23331   3.899  14.381  14.761 -0.0339  0.0227  0.2064
 7071W        W23332  14.679  13.517  13.194  0.0116 -0.1281  0.0738
 7072W        W23333  10.801   3.607   1.498  0.0851 -0.0835 -0.2149
 7073W        W23334   7.080   8.603  14.372  0.1342 -0.2506  0.0945
 7074W        W23335   5.023  12.818  15.838  0.1981  0.1689 -0.1350
 7075W        W23336  10.063   9.821  14.117 -0.1105  0.3223 -0.0601
 7076W        W23337   4.690   6.331  11.292  0.0334 -0.0309  0.0405
 7077W        W23338   5.915  16.141   3.358  0.0100 -0.1492  0.0270
 7078W        W23339  15.367  12.058   5.894  0.1609  0.1918  0.1871
 7079W        W23340   9.174  13.463  16.001  0.1891  0.0450 -0.4460
 7080W        W23341   9.543   2.762   0.340  0.2039 -0.0522 -0.2423
 7081W        W23342   4.143  15.740   5.691  0.2401 -0.0053  0.3411
 7082W        W23343  14.312   2.975   2.915 -0.1703 -0.1417 -0.0798
 7083W        W23344   7.835   9.663   5.348  0.0794  0.2074 -0.0753
 7084W        W23345   6.468  16.129  14.085 -0.2584  0.0117  0.1794
 7085W        W23346  12.160  10.477   0.488 -0.0681  0.0031 -0.1778
 7086W        W23347  14.139  12.859  13.601 -0.0650 -0.0982  0.3616
 7087W        W23348   1.472   7.425   0.916 -0.2915  0.0002  0.0234
 7088W        W23349  15.919   6.296  13.624  0.0483  0.4065  0.2046
 7089W        W23350   4.204  12.043   0.903 -0.1123  0.1671 -0.0810
 7090W        W23351  12.251  11.980   5.126 -0.0526  0.0433  0.3291
 7091W        W23352   4.679   0.636  14.256 -0.0461 -0.1293  0.0518
 7092W        W23353   9.799   8.644   6.273  0.1504 -0.1182 -0.0059
 7093W        W23354   3.865  12.043  14.313 -0.2970 -0.0143 -0.4360
 7094W        W23355   3.064   8.459  13.125 -0.0700  0.1524  0.4070
 7095W        W23356  17.195   5.422  16.762  0.1580  0.0164 -0.1265
 7096W        W23357  15.986   5.684   4.251  0.0132 -0.2367  0.0055
 7097W        W23358   2.085   7.128   0.848 -0.3321  0.1141  0.0847
 7098W        W23359   0.362  16.686   3.772  0.3244 -0.2360  0.2435
 7099W        W23360  14.381  11.812   4.467 -0.2958 -0.0459  0.0812
 7100W        W23361   7.562  15.686  15.106  0.3893 -0.0711 -0.0177
 7101W        W23362  12.559  16.639   5.423 -0.0563  0.0685  0.1270
 7102W        W23363   7.289   8.419   5.278  0.1925 -0.0833 -0.1213
 7103W        W23364  16.503   6.953  14.601 -0.2582  0.1596  0.0660
 7104W        W23365  12.507  10.987   1.860  0.1600  0.0721 -0.0537
 7105W        W23366   4.017  16.273   5.417  0.1380 -0.3953  0.0465
 7106W        W23367   5.348  13.921  12.681  0.1089  0.0353 -0.1717
 7107W        W23368  10.347  11.828  13.337 -0.2189  0.0123 -0.1239
 7108W        W23369   6.973   0.770   1.519  0.1514  0.2139 -0.1044
 7109W        W23370  15.616   6.125  16.894 -0.1935  0.1235 -0.0188
 7110W        W23371   2.771   5.481  15.171  0.0605  0.0061 -0.0201
 7111W        W23372   6.496  14.420  12.076 -0.2303  0.0368  0.0134
 7112W        W23373   5.369   4.263  15.524  0.1814 -0.2185 -0.3360
 7113W        W23374   9.279  12.799  13.780 -0.1666 -0.2549 -0.2153
 7114W        W23375   8.335  12.666   5.322 -0.1992  0.5419 -0.1181
 7115W        W23376   9.532   1.868   6.357  0.0169  0.2491 -0.1518
 7116W        W23377   2.858   5.600   1.741  0.0761  0.2084  0.0101
 7117W        W23378  17.789  13.709  16.966  0.0103 -0.2155 -0.3015
 7118W        W23379  13.928  13.829  15.153  0.1152  0.0571  0.0743
 7119W        W23380   8.938   8.952  12.088 -0.1974  0.3598  0.0306
 7120W        W23381  11.618  13.293  14.121  0.2754 -0.1766  0.0568
 7121W        W23382   1.163  15.103   3.474 -0.0881  0.2683 -0.0939
 7122W        W23383   3.815   0.088   3.998 -0.0796 -0.1507  0.0586
 7123W        W23384   2.622  14.256   4.151 -0.0048 -0.2336  0.0861
 7124W        W23385  14.169  14.428   2.755 -0.1704  0.0459 -0.0415
 7125W        W23386   8.587   7.612   0.073 -0.2825 -0.0192 -0.2173
 7126W        W23387  10.346  10.540  16.314  0.1816 -0.0273 -0.1244
 7127W        W23388  17.457   0.655  13.541  0.2097 -0.0561 -0.0990
 7128W        W23389   7.417   4.161  15.780 -0.0316 -0.2577 -0.5042
 7129W        W23390   6.835   5.201   0.207  0.1989  0.1280 -0.3648
 7130W        W23391   0.497   8.079   1.672 -0.0001 -0.2118  0.2264
 7131W        W23392  13.482   4.857   0.440  0.0812 -0.0479 -0.1743
 7132W        W23393   6.575  11.527   4.994  0.1851 -0.0946  0.2802
 7133W        W23394  15.242   7.606  13.011  0.3159  0.0139  0.2405
 7134W        W23395  14.946   9.239   3.448  0.1157 -0.1542 -0.1731
 7135W        W23396   1.721  11.122  15.042  0.2400  0.0850  0.0138
 7136W        W23397  17.761   1.883  15.389 -0.0850  0.4674 -0.1576
 7137W        W23398   2.056   0.689  12.923  0.1631  0.2840  0.0492
 7138W        W23399   9.997   1.733  16.460  0.3203 -0.2914  0.0018
 7139W        W23400   6.606  12.032  13.519  0.0456  0.2677  0.1645
 7140W        W23401  10.451   4.820   1.024 -0.2861 -0.1321 -0.2474
 7141W        W23402  16.069   6.783  14.183  0.1692  0.1804  0.4739
 7142W        W23403   6.953  15.874  14.310  0.3375  0.0471 -0.0469
 7143W        W23404   9.758  12.267  15.639 -0.3877 -0.1527 -0.0643
 7144W        W23405   9.564   0.544  11.656 -0.1721 -0.1397 -0.1383
 7145W        W23406  17.528  10.447   5.077  0.2192  0.0242 -0.2853
 7146W        W23407   5.498  17.809   1.204  0.0034 -0.0254  0.1913
 7147W        W23408   8.602   4.762  11.156  0.0080 -0.1689 -0.0808
 7148W        W23409   8.607   2.418   4.887 -0.0931 -0.1095  0.2714
 7149W        W23410  14.730  14.644  15.715  0.0011  0.0392 -0.0417
 7150W        W23411   8.841  17.511  16.928 -0.2015 -0.2832 -0.1608
 7151W        W23412  16.545  16.456   1.938 -0.1495 -0.0282  0.2977
 7152W        W23413  14.275   8.464   2.975 -0.0719 -0.1757  0.3051
 7153W        W23414  10.269   9.918   0.941 -0.1050 -0.0384 -0.0419
 7154W        W23415  10.108  16.225  15.045 -0.0758  0.3256  0.3243
 7155W        W23416  12.820   0.881   5.634  0.1073 -0.3959 -0.2856
 7156W        W23417  16.770   4.165  15.386 -0.2764  0.0522 -0.2599
 7157W        W23418   6.949  11.182   3.908 -0.3206  0.4082  0.2936
 7158W        W23419  16.424   3.833  13.143 -0.0581  0.1347  0.0204
 7159W        W23420  11.755  11.466   6.247  0.0182 -0.0039 -0.1135
 7160W        W23421   0.528  10.361   3.321 -0.1870  0.0972 -0.3119
 7161W        W23422  10.889   0.574  15.220  0.1263  0.1565  0.2086
 7162W        W23423   9.916   9.199   2.131  0.1073  0.1192  0.2961
 7163W        W23424  17.290  17.249   5.969 -0.0430  0.2322  0.0000
 7164W        W23425   1.940  14.685   1.294 -0.0370 -0.1154  0.1313
 7165W        W23426   7.912  11.499  11.441  0.1128  0.0802 -0.1301
 7166W        W23427   0.765   2.587   1.142 -0.1543 -0.0621  0.1103
 7167W        W23428  15.576  11.205  13.924 -0.2719  0.0324 -0.3605
 7168W        W23429   2.197   9.969   4.976 -0.2340  0.2320  0.0946
 7169W        W23430   7.025   5.534  14.995  0.1850 -0.1228 -0.1792
 7170W        W23431  10.147   1.609   3.205 -0.0420 -0.0698 -0.3143
 7171W        W23432  13.747   3.151   3.877 -0.1365 -0.0744 -0.0198
 7172W        W23433  10.644   4.845   3.803 -0.0468 -0.0130  0.0326
 7173W        W23434   1.778   0.961  15.978  0.0318 -0.1605  0.1789
 7174W        W23435  11.885  10.405   3.452 -0.1782  0.0409 -0.0370
 7175W        W23436  12.240   2.357   1.456  0.0572 -0.3489 -0.1899
 7176W        W23437  17.244  14.799   4.646 -0.2838  0.1000  0.5209
 7177W        W23438  12.596  15.159   1.633  0.1040 -0.3155  0.0860
 7178W        W23439   9.357  16.546   3.477  0.2384 -0.0166 -0.1136
 7179W        W23440  12.357   9.794  12.869  0.0192 -0.0435 -0.0678
 7180W        W23441  15.900  14.539   2.296 -0.2972 -0.0299  0.0742
 7181W        W23442   9.155   8.279  12.426 -0.1146  0.1787 -0.1701
 7182W        W23443   9.174   9.645   0.046  0.3815 -0.1010 -0.3021
 7183W        W23444   1.391   1.900  14.543 -0.2509  0.0972 -0.1291
 7184W        W23445   8.989  10.156  14.314 -0.0008  0.2104 -0.2075
 7185W        W23446   3.545  12.397   1.526  0.1034  0.0411  0.1992
 7186W        W23447   2.752   3.797  11.915  0.0272  0.0265 -0.1937
 7187W        W23448  11.490   5.213   5.632  0.1220 -0.1952 -0.1053
 7188W        W23449  16.679   5.396  16.739  0.1478  0.0001 -0.0559
 7189W        W23450   6.890   5.010  14.852 -0.1891 -0.0016  0.1025
 7190W        W23451  15.626  15.924  15.489  0.2073 -0.2153 -0.1004
 7191W        W23452  15.625   9.883  16.890  0.2504 -0.0793 -0.0688
 7192W        W23453  11.789  10.202   1.369  0.2898 -0.1128  0.1631
 7193W        W23454   5.661  14.737   1.357 -0.0836 -0.0490 -0.0589
 7194W        W23455  17.584   0.826  13.056  0.0837  0.2248  0.2657
 7195W        W23456   1.537   3.149   2.899 -0.0738  0.1346  0.0088
 7196W        W23457   9.371  17.841  15.179 -0.2831  0.1538  0.0140
 7197W        W23458   6.498  16.564  13.801 -0.0160 -0.0350  0.1513
 7198W        W23459   1.449   9.051  14.128 -0.1950 -0.2470  0.1328
 7199W        W23460   9.941  16.154  16.673  0.2156  0.2127  0.0081
 7200W        W23461   9.451  15.030  13.104 -0.4977 -0.3401 -0.0536
 7201W        W23462  12.380   9.719   3.712 -0.0514  0.2849 -0.2521
 7202W        W23463  16.692  10.937   5.179 -0.0066  0.2188 -0.1842
 7203W        W23464  16.961  10.397   0.020  0.0477  0.0801 -0.1855
 7204W        W23465   4.371   9.245   2.163  0.1900  0.3127  0.0402
 7205W        W23466  13.142   6.528   0.325 -0.0874 -0.1213 -0.1394
 7206W        W23467   7.160   7.797   2.271 -0.0592  0.0589  0.1718
 7207W        W23468   4.783  17.072   4.866 -0.1740 -0.0282  0.0387
 7208W        W23469  13.990  17.828  15.349  0.2816  0.2942 -0.0387
 7209W        W23470  10.212   9.236   1.694 -0.2484 -0.2896  0.1284
 7210W        W23471   5.966   3.158   3.964 -0.1034  0.1288 -0.1546
 7211W        W23472  12.644  14.316   5.385  0.1442  0.0496  0.0326
 7212W        W23473   4.292  17.839   3.361 -0.0837  0.1253  0.2824
 7213W        W23474   3.548   3.943  16.147 -0.4038  0.0798 -0.1109
 7214W        W23475  14.188  13.192  16.493 -0.3084 -0.0280  0.1912
 7215W        W23476  16.041  15.180   3.755  0.1807 -0.0216 -0.0798
 7216W        W23477   6.340  11.734   4.539  0.0769  0.0915  0.5949
 7217W        W23478  15.307  12.930  15.179 -0.1209  0.0474 -0.0049
 7218W        W23479  12.203   8.232  16.312  0.4306  0.2351 -0.0001
 7219W        W23480   2.294   8.139   1.124  0.0881 -0.1667  0.2016
 7220W        W23481   6.693  12.958   0.621  0.0440 -0.1396  0.2505
 7221W        W23482   1.087   9.321  12.266 -0.2616  0.1161  0.1587
 7222W        W23483   6.394   7.730   3.640  0.2606 -0.0165 -0.1203
 7223W        W23484   5.496   9.331   0.754  0.4893 -0.3046 -0.0998
 7224W        W23485   2.527   0.807  13.915  0.1337 -0.0621  0.1041
 7225W        W23486   6.886  10.909   1.681 -0.1411 -0.3754  0.2120
 7226W        W23487   8.928  12.728   5.434 -0.2760  0.0023 -0.2023
 7227W        W23488  15.645   0.583   3.734 -0.3635  0.2871  0.0808
 7228W        W23489   0.593  10.370   0.183  0.4978  0.0111 -0.1519
 7229W        W23490   3.601  16.962   2.361  0.3541 -0.1737 -0.1295
 7230W        W23491  16.073   0.079  12.185 -0.1885 -0.0718  0.0701
 7231W        W23492  13.467  17.582   5.280  0.3000  0.0454  0.2030
 7232W        W23493  10.469   0.158   2.919  0.0962 -0.0082 -0.2494
 7233W        W23494   6.275   8.910  12.525  0.0192 -0.1526  0.0816
 7234W        W23495   5.094   8.235  14.699  0.0874 -0.0790  0.4309
 7235W        W23496   2.525  12.658  16.223 -0.0610  0.0883  0.1678
 7236W        W23497   1.749  11.536   6.230 -0.0090 -0.0694  0.0662
 7237W        W23498   0.568   1.719  15.954  0.0985 -0.2219  0.1996
 7238W        W23499   9.223   3.979   2.272  0.0956 -0.1893 -0.0379
 7239W        W23500  13.428  14.220  15.762 -0.1070 -0.0674 -0.0948
 7240W        W23501  11.240   9.261  14.861 -0.1408  0.1424 -0.2325
 7241W        W23502   0.247   2.356  12.083 -0.3531 -0.2599 -0.0135
 7242W        W23503  12.533   1.850  11.395  0.0797  0.2732  0.2104
 7243W        W23504   2.225  12.342   1.167  0.3474 -0.0076  0.0662
 7244W        W23505   4.790  13.344  15.809  0.0311  0.0666  0.0564
 7245W        W23506   1.510   4.294   2.267  0.1047 -0.3119  0.0741
 7246W        W23507   5.625   9.774   1.890 -0.1522  0.0106 -0.0103
 7247W        W23508   2.173   2.355   1.531  0.1924 -0.2769  0.1515
 7248W        W23509   3.815   7.390   3.309  0.0501 -0.1593 -0.1747
 7249W        W23510   8.861  13.188  13.507  0.0213 -0.0606 -0.1543
 7250W        W23511  15.502   8.152   1.744 -0.0643  0.3748 -0.0663
 7251W        W23512   5.759   1.965   5.280 -0.0616 -0.1001  0.0373
 7252W        W23513   4.354  11.766   4.997 -0.0638 -0.1373 -0.1278
 7253W        W23514   6.745  17.627   4.369 -0.0415  0.0471  0.0585
 7254W        W23515   4.407  14.780   2.211 -0.0727  0.0162  0.1377
 7255W        W23516   4.532   2.333   0.788 -0.1483 -0.2078 -0.2136
 7256W        W23517   5.010  14.305  14.256  0.3735 -0.1018  0.2540
 7257W        W23518  10.269   2.141   3.279 -0.2742 -0.1422 -0.1412
 7258W        W23519   5.183   2.151   2.678  0.1614 -0.0355  0.0894
 7259W        W23520   4.361  17.065  13.942 -0.0038  0.1065  0.1995
 7260W        W23521  13.108   4.475  14.680  0.0273 -0.0215  0.2433
 7261W        W23522   3.150  13.338   3.357  0.0356 -0.2832  0.1585
 7262W        W23523   6.112   7.071   1.123 -0.1136  0.0125  0.2525
 7263W        W23524   7.373  13.137   3.019  0.0912 -0.3313 -0.2101
 7264W        W23525   6.244   6.646   2.532  0.2604 -0.0312  0.3857
 7265W        W23526   1.452   2.938   5.462 -0.0680 -0.0452  0.0475
 7266W        W23527   6.967   0.805   4.232 -0.3819  0.0644  0.4026
 7267W        W23528   0.659   3.537   4.199 -0.2263 -0.0906 -0.1852
 7268W        W23529  10.257  12.872  15.245 -0.2123  0.0046  0.0969
 7269W        W23530  17.856   4.531  12.706  0.0956 -0.2883  0.0197
 7270W        W23531  13.958   9.163   2.226 -0.2400 -0.0819 -0.0291
 7271W        W23532  16.412  13.555   4.551 -0.1706 -0.0636  0.0722
 7272W        W23533   8.586   0.209   1.444 -0.1230  0.0484 -0.1258
 7273W        W23534   4.568   8.173  13.832 -0.0029  0.0102 -0.0613
 7274W        W23535   0.672   8.104  12.342  0.0068  0.2833  0.0515
 7275W        W23536  12.047  16.324  14.702 -0.0248 -0.1074  0.1249
 7276W        W23537   9.856  12.650   3.478  0.0910  0.0277  0.1840
 7277W        W23538   6.852   5.303   5.456  0.1875 -0.2019  0.1462
 7278W        W23539   5.420   9.993  14.527  0.0427 -0.0819  0.3207
 7279W        W23540  10.925   6.634   1.632 -0.1654  0.2208  0.0429
 7280W        W23541  16.625  17.290   4.330  0.0388  0.2408 -0.1897
 7281W        W23542  13.716   3.697   0.991 -0.0149 -0.2633  0.2433
 7282W        W23543   4.132   5.081   2.254  0.3704 -0.2774  0.2389
 7283W        W23544  14.800   1.811  11.681 -0.0219  0.0442 -0.0862
 7284W        W23545   4.536   3.981   4.524  0.0397  0.0831 -0.0780
 7285W        W23546   3.498   8.517   2.666  0.1456  0.1177 -0.1189
 7286W        W23547   8.939  14.639  13.976 -0.1140  0.0521  0.1341
 7287W        W23548   5.832   7.213   2.208  0.0440 -0.0508 -0.0549
 7288W        W23549   7.912   4.681  14.812  0.0544  0.1571 -0.0680
 7289W        W23550   5.279  12.895   3.277  0.1755 -0.1323 -0.2095
 7290W        W23551   3.370   2.903   5.456  0.0909  0.3807  0.0135
 7291W        W23552   4.510  13.080  12.734 -0.0733  0.1052  0.1373
 7292W        W23553   9.124  16.249   4.480  0.0581 -0.0033 -0.0794
 7293W        W23554   2.962   8.818  13.847 -0.1475  0.0854  0.0803
 7294W        W23555   6.196   8.513  12.822 -0.2255  0.0581  0.0156
 7295W        W23556   8.950   3.097   3.209  0.2228 -0.0840  0.0921
 7296W        W23557  17.239  17.245   2.046  0.3269 -0.2248 -0.1096
 7297W        W23558  16.839  13.511   6.876  0.0993  0.0028 -0.2995
 7298W        W23559   7.337   4.346   3.040  0.0122 -0.0194  0.1684
 7299W        W23560  17.732   4.664   5.586 -0.3422  0.1583 -0.1573
 7300W        W23561   2.726  17.497   1.981 -0.1551  0.2983 -0.0207
 7301W        W23562   6.259   7.486   1.377  0.0502  0.6592  0.1469
 7302W        W23563  15.848  12.523   4.875 -0.1249  0.0894  0.0974
 7303W        W23564   4.933  12.770   4.957  0.0388 -0.1470 -0.1887
 7304W        W23565   2.250   8.556   6.175  0.1768 -0.3231  0.0732
 7305W        W23566   3.032   2.468  12.167  0.2208  0.2223  0.3814
 7306W        W23567   7.118   4.450  14.039 -0.0820 -0.1620 -0.1274
 7307W        W23568  14.650   1.508  13.333  0.0803  0.1254  0.0651
 7308W        W23569  14.944   1.354   2.427 -0.0045  0.1061  0.0038
 7309W        W23570   2.859  16.377   1.725  0.1981  0.1082 -0.1733
 7310W        W23571   1.242   5.119  14.864  0.0742 -0.1664 -0.2359
 7311W        W23572   7.860  10.113  14.663  0.1389 -0.0102 -0.1037
 7312W        W23573   6.758  11.167  13.174  0.0025 -0.0476 -0.0213
 7313W        W23574  15.501   9.250   0.376 -0.0262 -0.1384 -0.0239
 7314W        W23575  10.685  15.682  13.817 -0.0105 -0.1084  0.1114
 7315W        W23576   7.295  16.255   5.338 -0.2030 -0.2354 -0.0693
 7316W        W23577  13.542  12.887   0.307 -0.0206 -0.2230 -0.1538
 7317W        W23578   0.204   5.675  16.646  0.1690 -0.1802  0.2065
 7318W        W23579   7.162   4.876  11.840 -0.0144  0.0738 -0.2373
 7319W        W23580   0.622   4.029   1.288  0.3258  0.1007 -0.1653
 7320W        W23581   2.192  12.948  14.559  0.1276  0.0787 -0.1571
 7321W        W23582   6.530   7.964   0.637 -0.0941 -0.1547  0.1650
 7322W        W23583  12.997  12.082   5.196 -0.0415  0.3543 -0.3537
 7323W        W23584   8.283   3.024  16.193 -0.0771  0.2290  0.1875
 7324W        W23585   1.096   8.384  12.777  0.2095  0.0201  0.4036
 7325W        W23586   2.532   0.505  12.546 -0.3343 -0.2952  0.1523
 7326W        W23587   4.011  12.277  13.678 -0.1802 -0.1552 -0.0037
 7327W        W23588   3.259  15.826   0.527 -0.0899  0.1483 -0.1332
 7328W        W23589   3.089   5.993   1.381 -0.0087  0.0345  0.1436
 7329W        W23590  15.950   2.012  13.797  0.1640  0.5326  0.0569
 7330W        W23591   1.024  11.658  15.623  0.0313 -0.0945 -0.0695
 7331W        W23592   9.301  10.829   2.309  0.3820 -0.1328 -0.0211
 7332W        W23593   4.690   1.449   0.668  0.0764  0.2254 -0.2038
 7333W        W23594  14.219   3.154   1.193  0.1993  0.1482 -0.2834
 7334W        W23595  15.612   2.415   5.605 -0.1164 -0.3008 -0.0988
 7335W        W23596  12.761  11.342  14.274 -0.0166 -0.0467 -0.2108
 7336W        W23597  17.683  12.941   2.874 -0.0008 -0.2390 -0.0817
 7337W        W23598   0.475  15.110   4.559 -0.0495  0.0514  0.0589
 7338W        W23599  17.526  11.095   5.819  0.1425 -0.0833 -0.0311
 7339W        W23600  10.654  13.952   5.176  0.4221 -0.0811  0.0174
 7340W        W23601  16.051  16.184   4.975 -0.1580 -0.1741 -0.1965
 7341W        W23602   1.761   8.265  16.406 -0.2332 -0.1352 -0.1426
 7342W        W23603   0.118   1.956  12.355 -0.1731 -0.4026 -0.1157
 7343W        W23604   4.343  17.799  12.132  0.1940  0.0796 -0.2306
 7344W        W23605  12.490  13.749   5.416 -0.0202 -0.3385  0.1653
 7345W        W23606  13.656  13.486   3.536 -0.1355  0.0394  0.1424
 7346W        W23607  15.055   2.435   6.120 -0.1277  0.1962 -0.3995
 7347W        W23608   0.161  12.094   5.729  0.0662  0.0619 -0.4504
 7348W        W23609   6.041  11.405   1.423  0.2060 -0.0104 -0.1975
 7349W        W23610  13.761   6.149  14.378 -0.0966  0.1801  0.1483
 7350W        W23611   4.204   6.350   1.418  0.3378 -0.0324 -0.1694
 7351W        W23612  14.593  12.341   0.705  0.1804 -0.1678  0.2022
 7352W        W23613  10.952  15.160   4.497 -0.1928  0.0514  0.0331
 7353W        W23614   5.514   4.383   0.773 -0.1800  0.1355  0.3881
 7354W        W23615   9.077  17.113   2.335 -0.1590 -0.0819  0.1635
 7355W        W23616   2.438   7.100   4.188 -0.0174  0.0012 -0.3225
 7356W        W23617  16.031   1.774  13.121 -0.1350 -0.3621 -0.0875
 7357W        W23618  10.368   3.725   2.909  0.1427  0.1712  0.2599
 7358W        W23619  17.293   6.200   4.875 -0.2403  0.0896  0.2408
 7359W        W23620  10.527   8.079   2.598  0.0060  0.3144 -0.0034
 7360W        W23621   5.221  15.451   4.322  0.3566 -0.0786  0.0524
 7361W        W23622  12.291   3.208   4.111  0.1169 -0.1162  0.1416
 7362W        W23623   4.730   6.951   0.299 -0.1703  0.0214 -0.0201
 7363W        W23624  13.065   7.184  12.265  0.2199  0.2797 -0.2265
 7364W        W23625  10.971  14.935  15.662  0.0157  0.1727 -0.1989
 7365W        W23626   7.752  17.670   4.753 -0.0385 -0.2415 -0.1605
 7366W        W23627   7.254  13.091   0.569 -0.1089  0.0164 -0.0993
 7367W        W23628  12.598   1.926  12.599 -0.2101  0.0572 -0.1580
 7368W        W23629  16.914   7.501  13.758 -0.1262  0.2666 -0.1879
 7369W        W23630  15.234  10.736   2.750  0.0659  0.0025  0.2047
 7370W        W23631  17.470  17.498  12.012  0.3861 -0.2409  0.2826
 7371W        W23632   0.129   0.683  14.868 -0.0012 -0.0417  0.0402
 7372W        W23633   0.037  13.456   1.442  0.0340  0.2957 -0.3671
 7373W        W23634  11.828   5.739  12.353  0.0269  0.1442 -0.0851
 7374W        W23635   6.538  16.626  16.650  0.1304 -0.1053 -0.0360
 7375W        W23636   0.087   2.272  11.637 -0.3643  0.2306 -0.0884
 7376W        W23637   2.940  10.116  14.834 -0.0727  0.4098  0.2563
 7377W        W23638   4.857  17.141   3.844  0.1549 -0.2839  0.2716
 7378W        W23639   8.928   7.660  13.206 -0.0270  0.0582  0.1449
 7379W        W23640   4.232   7.246   5.346 -0.0942 -0.1021  0.0541
 7380W        W23641   2.152   6.547   3.779 -0.1356 -0.1624 -0.0859
 7381W        W23642  14.323  16.491  15.793 -0.1940  0.0966  0.1179
 7382W        W23643   6.520  16.958  11.856 -0.0202 -0.0092  0.1105
 7383W        W23644  12.738   8.211   0.855  0.1537  0.1063  0.1160
 7384W        W23645  12.640   4.317   4.818  0.2256  0.1779  0.1705
 7385W        W23646  12.580  10.582   3.041 -0.1939 -0.0996  0.2224
 7386W        W23647  11.393   2.451  15.708  0.0792 -0.0809  0.2359
 7387W        W23648   5.059  16.165  13.088 -0.0855  0.0004 -0.0023
 7388W        W23649  16.962   4.986   0.569  0.0141  0.0880 -0.2907
 7389W        W23650   4.334  15.629  10.671  0.2295 -0.0819  0.3258
 7390W        W23651  17.177   3.967  14.739 -0.0077  0.0203  0.2119
 7391W        W23652   7.098  10.996  14.583 -0.0878  0.3484 -0.0020
 7392W        W23653  15.914   3.035   0.985  0.0702  0.2911 -0.1787
 7393W        W23654   2.947  14.669   5.483 -0.0122 -0.0440  0.0028
 7394W        W23655   6.713  14.281  11.647  0.3094  0.0359  0.1625
 7395W        W23656   0.348   4.334   0.952 -0.0435 -0.3828 -0.0086
 7396W        W23657  10.369  14.039   0.102 -0.1334 -0.0091 -0.1032
 7397W        W23658   0.445  12.497   2.308 -0.2378  0.0420 -0.0664
 7398W        W23659   6.801   6.823  11.953  0.2555 -0.0239  0.2364
 7399W        W23660  17.221   2.719   1.131  0.0946 -0.0909  0.1508
 7400W        W23661  13.811   3.237  11.908  0.1201 -0.0555 -0.1750
 7401W        W23662  11.443  14.027  12.147  0.2486 -0.2943 -0.0139
 7402W        W23663  12.787  12.465  11.836 -0.1516 -0.2301  0.1416
 7403W        W23664  12.585   9.448  12.091  0.1387  0.0941  0.1129
 7404W        W23665   7.280  16.008  13.941  0.0759  0.1343 -0.1640
 7405W        W23666  11.790   4.162  14.416  0.0445  0.0787 -0.1291
 7406W        W23667  16.483  15.338   0.195 -0.1727  0.1554 -0.0072
 7407W        W23668  10.082   5.579   1.690 -0.1216 -0.1401 -0.1401
 7408W        W23669   4.639  15.488   4.377  0.0875  0.2196 -0.0419
 7409W        W23670   6.999   4.852   0.585  0.2418 -0.2172 -0.2297
 7410W        W23671   8.511  16.698  15.638  0.0648  0.2635 -0.0636
 7411W        W23672  16.810   8.150   1.048 -0.0968 -0.0785 -0.0128
 7412W        W23673   1.740   8.231   4.482  0.1619  0.0748 -0.5254
 7413W        W23674   7.117  11.424  11.876 -0.2575  0.1166 -0.0281
 7414W        W23675   6.120   3.263  15.109 -0.0763 -0.0400  0.2095
 7415W        W23676   5.086  13.924  16.794  0.1642  0.2826  0.0307
 7416W        W23677   8.559   9.510   4.035  0.2305 -0.0897 -0.2182
 7417W        W23678  11.358   0.282  15.586  0.0076 -0.0829  0.0419
 7418W        W23679   8.849   0.820  14.039  0.5712 -0.0486  0.0600
 7419W        W23680   1.340  17.745  11.807  0.1065  0.1843  0.2214
 7420W        W23681   6.254   5.586  14.252  0.1951  0.3273 -0.0388
 7421W        W23682  11.806   6.838  13.445 -0.2689  0.3693  0.0278
 7422W        W23683   6.049  14.204  16.408 -0.1550  0.0693 -0.0379
 7423W        W23684   8.582  14.069   5.336  0.0238 -0.0370 -0.0088
 7424W        W23685  17.075  16.722  14.576 -0.4412  0.0519  0.0074
 7425W        W23686   0.440  10.438   5.759 -0.2041 -0.2171  0.1305
 7426W        W23687   8.568  13.059   0.472 -0.0553 -0.3137  0.0185
 7427W        W23688   9.102   1.655   5.619 -0.3590  0.0754 -0.1046
 7428W        W23689  10.296   6.861   1.431 -0.1469 -0.1516  0.0587
 7429W        W23690   2.997  17.463  11.583  0.4726  0.2073  0.1574
 7430W        W23691   1.589  16.943  11.380 -0.1753  0.0355 -0.2730
 7431W        W23692   4.087  13.046  12.011 -0.0887 -0.0451 -0.3569
 7432W        W23693  15.783   8.956   4.957 -0.1714  0.2274 -0.0977
 7433W        W23694  12.974  16.140   2.315 -0.1699  0.1404 -0.1121
 7434W        W23695  12.905   2.064  14.062  0.1429  0.1566 -0.3003
 7435W        W23696   3.421   3.163  15.502  0.0374  0.0838 -0.2704
 7436W        W23697   1.709  13.878   1.845  0.0327  0.0770  0.2047
 7437W        W23698   3.040   7.729  16.448 -0.1450  0.2351  0.0574
 7438W        W23699   9.741  15.303  12.335 -0.3092  0.0354 -0.1701
 7439W        W23700   8.021   3.906   2.360 -0.3552  0.0184  0.1616
 7440W        W23701   8.276  11.271  14.158 -0.2291 -0.0790  0.2138
 7441W        W23702   2.291   6.810   5.379  0.1209  0.0144 -0.0852
 7442W        W23703  11.639   4.831  12.328 -0.1445  0.0250  0.0006
 7443W        W23704   4.585  12.857  15.265  0.0494 -0.1256  0.0989
 7444W        W23705  12.422  12.057  15.413 -0.4912  0.1634  0.2193
 7445W        W23706   5.119   0.225  13.880 -0.1678 -0.2060 -0.1189
 7446W        W23707   9.521  15.295  16.895 -0.0853 -0.1798 -0.1365
 7447W        W23708  13.869  12.486   0.136 -0.1526 -0.0405 -0.1044
 7448W        W23709  11.573  13.903  11.634 -0.0717  0.0099  0.0363
 7449W        W23710  17.104   9.629   5.629  0.0753  0.1584  0.1509
 7450W        W23711   7.296  11.082  12.673 -0.1181 -0.0581 -0.1663
 7451W        W23712  10.611   8.004  14.870 -0.0302  0.1940 -0.3449
 7452W        W23713  12.197  12.872  15.369 -0.3038  0.1359 -0.0855
 7453W        W23714  11.786   1.369   5.110  0.1557 -0.0841  0.0197
 7454W        W23715   8.099   1.651   0.878  0.2044 -0.1630  0.2227
 7455W        W23716   7.611  16.411   4.539 -0.2403  0.0533 -0.0376
 7456W        W23717  12.415   4.793  13.050 -0.0695  0.3284  0.0928
 7457W        W23718   6.180   5.908   3.256  0.2315  0.2371  0.0213
 7458W        W23719   5.635  10.036  16.664  0.1162 -0.2209  0.0844
 7459W        W23720   4.072   0.136  11.319  0.1248  0.0943  0.1520
 7460W        W23721   2.726  11.071  12.078  0.2885  0.1879 -0.0068
 7461W        W23722  17.164   6.959   5.125  0.2290  0.1358  0.1537
 7462W        W23723  16.575  11.296  14.012 -0.2171 -0.3109 -0.1044
 7463W        W23724   6.250  10.234  14.706 -0.0147 -0.0850  0.1136
 7464W        W23725  17.439   2.947  16.652 -0.1471 -0.2112 -0.0608
 7465W        W23726   8.526  17.114   2.209 -0.3186  0.2889  0.4406
 7466W        W23727   8.961   0.496   1.588  0.0812  0.2047  0.0404
 7467W        W23728   1.849  10.829  15.481 -0.1113  0.0114  0.0582
 7468W        W23729   7.316   3.399  13.690  0.0833 -0.0494 -0.1643
 7469W        W23730   4.711  10.602   3.867  0.0194  0.1025  0.2699
 7470W        W23731   9.543   8.027  12.575  0.2405  0.0800  0.0757
 7471W        W23732  14.987  17.152  15.727 -0.2781  0.2563  0.1483
 7472W        W23733  13.759  13.966  16.084 -0.1264  0.0230  0.0770
 7473W        W23734   4.546  15.481   5.459 -0.0019  0.1382 -0.0661
 7474W        W23735  10.898   1.059  16.635  0.0993 -0.0020 -0.3502
 7475W        W23736  16.397   2.429   3.313 -0.0415  0.1591  0.2304
 7476W        W23737   7.355   2.554  13.305 -0.1501 -0.1973  0.1444
 7477W        W23738   5.129   5.171  13.413  0.0210  0.1364  0.1095
 7478W        W23739   6.381  17.273   0.401 -0.3660 -0.0673 -0.2549
 7479W        W23740  14.840  11.581  15.011  0.1958  0.1593 -0.0439
 7480W        W23741  14.255  13.124   5.638 -0.1129  0.0020 -0.1953
 7481W        W23742   4.039   9.019   0.846  0.3711 -0.0461  0.3371
 7482W        W23743  15.004   4.450  13.643  0.1473 -0.3211  0.0311
 7483W        W23744  14.176   4.827   1.797  0.1229 -0.4712 -0.0617
 7484W        W23745  10.961   7.408  12.361  0.0428 -0.1675  0.1482
 7485W        W23746   6.838   8.803   5.347 -0.2580 -0.0282  0.2276
 7486W        W23747  16.059   8.888   5.372  0.0567  0.0960 -0.0951
 7487W        W23748  13.792  13.814   1.016 -0.0851 -0.0065  0.2025
 7488W        W23749   7.357   4.385  15.356  0.0510 -0.1263 -0.0876
 7489W        W23750   3.895  17.688   5.102  0.3229  0.0194  0.3673
 7490W        W23751   5.326   8.845   2.912  0.3564  0.2860 -0.0951
 7491W        W23752  17.252  10.931   0.878  0.1721 -0.1515  0.3561
 7492W        W23753  15.074   8.952  12.137 -0.0510  0.1927  0.0727
 7493W        W23754   5.092   1.606   3.172  0.0636  0.1108  0.3795
 7494W        W23755  15.999   5.771   0.635  0.2704 -0.1279 -0.1234
 7495W        W23756   0.292   3.805   0.780  0.2088  0.0672  0.0587
 7496W        W23757  11.239   2.258   6.212  0.0066  0.2044  0.2926
 7497W        W23758   2.624   4.654   1.976 -0.2370  0.1336 -0.2242
 7498W        W23759  10.314  10.404  15.114 -0.2038  0.1615 -0.0217
 7499W        W23760   6.603  15.315  12.882 -0.1356 -0.2489 -0.0070
 7500W        W23761   9.132   2.022  15.424 -0.2244  0.1543  0.4151
 7501W        W23762  13.551  14.900  13.005 -0.3080  0.0269 -0.1260
 7502W        W23763   5.032   6.675   3.191 -0.1897 -0.0273 -0.2127
 7503W        W23764   6.284   7.770  16.794  0.3064 -0.1634 -0.1295
 7504W        W23765  17.766   7.221  15.042  0.0626  0.0975  0.3476
 7505W        W23766  15.988  15.380   6.017  0.2287 -0.0073  0.1030
 7506W        W23767  16.442   2.233   0.764  0.0159  0.1480  0.0028
 7507W        W23768   5.292  11.926  12.274 -0.0586 -0.0209  0.2002
 7508W        W23769   4.858   5.722   4.472 -0.1618  0.1515 -0.2095
 7509W        W23770  11.428   2.922   3.546 -0.1115  0.0888  0.0245
 7510W        W23771  15.386  13.461   2.243 -0.0864 -0.1141 -0.3913
 7511W        W23772   8.945  13.839  14.694  0.2758 -0.3429  0.0204
 7512W        W23773   5.225   7.644  12.178 -0.0951  0.1795  0.0106
 7513W        W23774  13.759  16.077  12.053  0.2039  0.0473 -0.0968
 7514W        W23775   9.705  17.374  14.344 -0.0047 -0.0253  0.2094
 7515W        W23776   8.705   3.692  12.623 -0.0261  0.1864 -0.2190
 7516W        W23777  10.490  14.421   0.460  0.2900 -0.1388  0.2846
 7517W        W23778  14.941  11.127   4.801  0.0911 -0.0938 -0.0063
 7518W        W23779   7.294  15.264  14.976  0.0262  0.4753  0.0482
 7519W        W23780   5.817   9.869  14.833  0.0822 -0.2693 -0.1158
 7520W        W23781  15.556  16.336  16.798 -0.0179 -0.0156  0.2363
 7521W        W23782   0.857   5.051  15.683 -0.2025 -0.1540 -0.1670
 7522W        W23783  11.504   6.639   4.074 -0.2817  0.2426 -0.2030
 7523W        W23784  14.331  12.980  16.931 -0.0797  0.1486 -0.0709
 7524W        W23785  11.577   3.964   0.582  0.1472 -0.1193  0.3213
 7525W        W23786   8.804  11.427  14.792  0.0166 -0.1780  0.0610
 7526W        W23787  17.384  12.459   2.926 -0.2037 -0.2260 -0.1529
 7527W        W23788   3.292   6.595   0.392 -0.3808  0.1552 -0.0823
 7528W        W23789  15.113  10.882  14.681  0.1199 -0.1735 -0.0450
 7529W        W23790  14.382   6.435  15.769  0.1139 -0.0706 -0.1432
 7530W        W23791   7.465   0.649  12.549  0.0987 -0.2745 -0.2289
 7531W        W23792  11.055  16.353  13.401 -0.1082 -0.0889 -0.2781
 7532W        W23793  13.776  13.743  15.639  0.0968 -0.0842 -0.0379
 7533W        W23794  13.056   5.086  16.203  0.0408  0.1908  0.1613
 7534W        W23795   6.665   8.909  14.278 -0.2974  0.1051  0.1625
 7535W        W23796   5.774  11.744   4.589  0.1995 -0.1582 -0.0349
 7536W        W23797  10.360  16.889  13.134  0.1663 -0.1522 -0.1880
 7537W        W23798  12.578  14.562  15.427  0.2941  0.2128  0.0240
 7538W        W23799  17.481   3.882  12.926 -0.2453  0.2033  0.0750
 7539W        W23800  11.637   2.745  13.378 -0.1540  0.1396 -0.2904
 7540W        W23801   2.046   0.654   3.029 -0.4034 -0.0258  0.1276
 7541W        W23802   6.011   4.646   5.426 -0.1669 -0.0352 -0.0063
 7542W        W23803   4.069  15.211   0.291  0.1026 -0.0969 -0.1590
 7543W        W23804  16.373   4.487   0.600 -0.2889  0.2333  0.1209
 7544W        W23805  15.100  10.118   5.980  0.0593  0.1016  0.1951
 7545W        W23806   8.781   1.183  14.983 -0.2252 -0.1181 -0.0944
 7546W        W23807   5.808  14.448   5.470 -0.1320  0.1280  0.2107
 7547W        W23808   2.219  14.037   4.440  0.1551 -0.1507 -0.1554
 7548W        W23809   4.804  17.542   4.638  0.1714 -0.5219 -0.0565
 7549W        W23810  16.376  15.934   2.034 -0.2145 -0.0676  0.1338
 7550W        W23811   7.349   2.537  12.501 -0.2236 -0.1714 -0.2142
 7551W        W23812   3.557   6.891  12.716  0.0958 -0.0148  0.1335
 7552W        W23813   3.420  16.706   3.915 -0.0777 -0.2808 -0.0528
 7553W        W23814  10.562   1.934  15.068  0.0624 -0.2029  0.3422
 7554W        W23815   2.775  16.738  13.340  0.2877 -0.0670  0.0951
 7555W        W23816   8.438   2.234  15.860  0.0445  0.0098  0.0870
 7556W        W23817   2.831  12.076  13.487  0.0909 -0.0987 -0.0788
 7557W        W23818  11.367  15.001   1.062  0.1532 -0.0526  0.1496
 7558W        W23819   1.449   9.112  13.056  0.1044  0.1285  0.1529
 7559W        W23820  13.312   0.518  16.777  0.3093  0.2112  0.0040
 7560W        W23821  14.716   6.775   4.421 -0.1254 -0.2110 -0.0079
 7561W        W23822   3.938   0.358  14.862  0.0160 -0.2049  0.2106
 7562W        W23823  10.157   1.601  15.364  0.2503 -0.1127 -0.0565
 7563W        W23824   6.846  14.480   3.169 -0.1191  0.0011 -0.2428
 7564W        W23825   4.703   7.526   3.617 -0.1539  0.1185 -0.0844
 7565W        W23826   3.518   5.085   3.086  0.1077  0.2113 -0.0565
 7566W        W23827   0.155   5.866   0.575 -0.1729  0.0308  0.0834
 7567W        W23828  12.316   1.114   5.857 -0.2807 -0.1217 -0.0241
 7568W        W23829   1.478  14.754   0.773 -0.1108  0.0529  0.0846
 7569W        W23830  10.390   6.607  14.267 -0.2416 -0.1379 -0.1314
 7570W        W23831   8.628   2.497  13.105 -0.0600  0.0253  0.1497
 7571W        W23832  13.594   0.178  13.356  0.1530 -0.0959  0.2138
 7572W        W23833   6.839   6.132   0.092 -0.0178  0.0194  0.1953
 7573W        W23834  14.083   6.333  13.329  0.2411  0.4449  0.2335
 7574W        W23835   5.188   4.924   2.299  0.2436  0.1747  0.0850
 7575W        W23836   3.305   3.879   4.293 -0.0194  0.1863 -0.1191
 7576W        W23837   5.587   1.767  13.498  0.0110 -0.0473 -0.0465
 7577W        W23838   3.888   6.190  12.253  0.1657  0.0391  0.1906
 7578W        W23839   8.290  14.704  11.446 -0.1423 -0.1727  0.0405
 7579W        W23840  16.419   6.792  12.375 -0.1081 -0.0232 -0.0380
 7580W        W23841   2.996   6.359  12.792  0.1411  0.0893  0.0367
 7581W        W23842  16.411   0.533  14.249 -0.1810  0.0772 -0.0379
 7582W        W23843  14.304  16.692   1.200  0.1360  0.2209 -0.2819
 7583W        W23844   8.832   7.145   5.294  0.0292 -0.2160 -0.2396
 7584W        W23845   4.966   2.851   2.510 -0.2940  0.1961  0.1425
 7585W        W23846  13.838  15.719  12.851 -0.0778 -0.1789 -0.0411
 7586W        W23847   3.952   7.465  14.168  0.2738  0.1201  0.1284
 7587W        W23848  15.651  14.905   3.972  0.2844  0.1344  0.0564
 7588W        W23849  15.885   3.571   1.102 -0.1311  0.1091  0.1176
 7589W        W23850  10.826   3.886   3.182  0.0072  0.1408 -0.0546
 7590W        W23851  10.550   3.945   1.251  0.0236 -0.3339  0.3323
 7591W        W23852   5.814   4.057   2.347  0.3434  0.0669  0.3875
 7592W        W23853  10.672   5.942  15.191 -0.4169  0.2215 -0.3375
 7593W        W23854   3.078  17.039   1.312  0.1019 -0.0084  0.4041
 7594W        W23855  10.995   5.916   3.469  0.0753 -0.1109 -0.1537
 7595W        W23856   9.129   5.836   2.711 -0.3602 -0.0603 -0.1537
 7596W        W23857   5.477   7.247   3.385 -0.0472 -0.2276 -0.0988
 7597W        W23858  16.388  12.580  15.908 -0.1635  0.2301  0.0118
 7598W        W23859  13.276   2.745  13.500 -0.0050  0.2806  0.1495
 7599W        W23860  13.211   0.824  16.176  0.1656  0.1459 -0.1150
 7600W        W23861   1.040   4.710  12.548 -0.1299  0.3112 -0.0528
 7601W        W23862   7.667  13.941  14.987 -0.2689 -0.1098  0.0290
 7602W        W23863  12.842  14.249   2.443 -0.0204  0.1735  0.3743
 7603W        W23864  16.524   3.346  13.042 -0.4764  0.0902  0.1611
 7604W        W23865  12.735   5.983   1.372  0.0581 -0.0085 -0.1306
 7605W        W23866  12.205   7.306   1.261  0.3251  0.0784  0.1340
 7606W        W23867  16.056  13.226  14.427 -0.3370  0.0789 -0.1867
 7607W        W23868  14.842   6.265  16.032  0.0149  0.0738 -0.2238
 7608W        W23869   5.664   3.103  14.942 -0.0103 -0.3743  0.0310
 7609W        W23870   8.761  17.789  14.180 -0.1572  0.1952  0.1526
 7610W        W23871  16.954   6.777   4.307  0.1541 -0.2387 -0.2941
 7611W        W23872  14.620   9.111   3.026 -0.1681 -0.4069 -0.1878
 7612W        W23873  17.526  13.729   5.280  0.1581 -0.0364  0.0983
 7613W        W23874   0.993  15.501   3.244  0.1230  0.2042 -0.0854
 7614W        W23875   7.298   0.708   0.271  0.1797 -0.2817 -0.0477
 7615W        W23876  16.341   0.110  15.522 -0.3748  0.1421  0.3103
 7616W        W23877  11.332   4.462   5.116  0.0295 -0.2853 -0.1580
 7617W        W23878   3.307  15.169  13.463  0.1432 -0.1404 -0.0627
 7618W        W23879   2.521  10.999   1.201 -0.2733  0.1019 -0.0900
 7619W        W23880  16.577  13.995  14.695  0.1511 -0.0815  0.3138
 7620W        W23881   8.076   7.411  12.177  0.3448  0.2486  0.0286
 7621W        W23882  11.201   2.663   3.916 -0.1673 -0.0885 -0.1656
 7622W        W23883  12.400  16.336   0.188 -0.1314 -0.1507 -0.0700
 7623W        W23884   1.975  13.477  15.504  0.1796 -0.0263 -0.1713
 7624W        W23885   0.433   1.427   4.669 -0.2566  0.1924  0.1101
 7625W        W23886  11.386   1.581   5.370 -0.2531  0.1186  0.0944
 7626W        W23887   9.847  13.046  15.018 -0.0415  0.3206 -0.3962
 7627W        W23888   7.242   5.503  15.975 -0.0228 -0.2963  0.0737
 7628W        W23889  16.958   7.778  12.271 -0.1242 -0.1888  0.0429
 7629W        W23890   2.401   7.179   1.299  0.3689  0.0752  0.0627
 7630W        W23891   3.244  17.009   3.526 -0.0046 -0.3042  0.1546
 7631W        W23892  15.462   9.954  14.497 -0.1753 -0.0186 -0.2115
 7632W        W23893  14.866   8.681   3.519 -0.2391 -0.0119  0.0671
 7633W        W23894   7.095   5.135   3.770 -0.0798  0.0223 -0.1727
 7634W        W23895  10.821   8.044  11.599 -0.0038  0.1237  0.0870
 7635W        W23896   0.247   0.595  11.888 -0.1124 -0.2437 -0.2316
 7636W        W23897  11.934  17.274   4.407 -0.0028  0.2634  0.0712
 7637W        W23898  15.710  13.875   4.128 -0.2983 -0.1434  0.1782
 7638W        W23899  10.614   5.016  15.312  0.0829 -0.0501 -0.2060
 7639W        W23900   5.589   0.301  13.424  0.0063 -0.0142 -0.0627
 7640W        W23901  15.342  17.671  13.255  0.1425 -0.0988 -0.2710
 7641W        W23902   5.730  10.715  14.265 -0.2295  0.2179  0.2943
 7642W        W23903  11.360  15.541   5.134 -0.0475 -0.2866 -0.1596
 7643W        W23904  14.923   6.278   0.632 -0.0415 -0.1644  0.0391
 7644W        W23905   1.266  14.058   5.328  0.0461  0.5073 -0.3158
 7645W        W23906   9.731   6.387   4.239 -0.0444  0.4421  0.1562
 7646W        W23907   5.069   4.585   5.478  0.2946 -0.1653 -0.2040
 7647W        W23908   1.226   6.334   2.640 -0.0410  0.0181 -0.3767
 7648W        W23909   1.240   5.623   1.273  0.1468 -0.1291 -0.0114
 7649W        W23910  11.563   1.953  16.084  0.0552  0.0147  0.0060
 7650W        W23911   6.297   3.416  16.839  0.0546 -0.1795 -0.1542
 7651W        W23912  12.007   6.562   2.678 -0.0110  0.0949 -0.0601
 7652W        W23913  10.514   2.615   4.998  0.1779 -0.1504  0.0679
 7653W        W23914   6.099  14.977  13.801  0.2439  0.3150 -0.1253
 7654W        W23915   3.952   4.761   2.579  0.2316 -0.1841  0.1681
 7655W        W23916  14.766   4.617   4.856  0.1748  0.4053  0.0418
 7656W        W23917  17.683   6.233  12.850  0.1401 -0.3859  0.2674
 7657W        W23918  16.265  12.423  13.780 -0.1281  0.0949 -0.1005
 7658W        W23919  11.227  15.438   0.106 -0.0763 -0.0359 -0.0514
 7659W        W23920  14.919  14.477   1.339  0.1124  0.0316 -0.1375
 7660W        W23921   9.873   6.457   0.140  0.0009  0.0131 -0.4230
 7661W        W23922   4.251  13.420  15.754  0.3171 -0.2001  0.2457
 7662W        W23923  10.736   8.971   5.072 -0.0847  0.0678  0.2965
 7663W        W23924  15.032   3.915  13.452 -0.1052  0.2045 -0.0475
 7664W        W23925  11.301  11.787   1.620 -0.0729  0.1294 -0.1327
 7665W        W23926  13.011  12.329   3.441  0.1019 -0.1074 -0.3953
 7666W        W23927   6.177   5.359   3.164  0.2247  0.1678  0.2597
 7667W        W23928   7.675  14.653  13.385 -0.1200  0.3436  0.0909
 7668W        W23929  13.856  16.956  13.776 -0.0532  0.1895  0.1253
 7669W        W23930   4.015   3.751   2.626  0.0532 -0.1778  0.1952
 7670W        W23931   1.716  17.804  14.190 -0.3854  0.0716  0.2108
 7671W        W23932  15.971  10.510   5.731 -0.1625  0.2693 -0.1589
 7672W        W23933   0.040   2.663  16.488 -0.0370  0.0131  0.0598
 7673W        W23934  13.412   9.109   2.017 -0.0311  0.0327  0.4070
 7674W        W23935   2.998   2.338   4.668  0.3235  0.1362 -0.0872
 7675W        W23936   7.097  10.414  14.225 -0.0566 -0.0823 -0.1642
 7676W        W23937  16.713  17.790   3.135  0.1536 -0.1735 -0.2180
 7677W        W23938   4.429   9.792  13.246 -0.1487  0.0596 -0.1887
 7678W        W23939  16.778  16.212  15.819 -0.4067 -0.2637 -0.1021
 7679W        W23940  11.575   0.839   4.084  0.0343 -0.0267 -0.2521
 7680W        W23941  11.299  11.219   1.394  0.0010 -0.1314  0.0300
 7681W        W23942  10.387   6.396   0.095 -0.0861  0.2952  0.3691
 7682W        W23943   9.989  11.943   2.477  0.0133  0.2745  0.1425
 7683W        W23944   5.552  11.540  12.454  0.0179 -0.3809  0.1252
 7684W        W23945  15.682  15.737   1.702 -0.2221  0.2318  0.0030
 7685W        W23946   8.534   0.786  11.532  0.1708  0.0612  0.0042
 7686W        W23947  12.687   1.969  11.935 -0.1166 -0.1988 -0.1713
 7687W        W23948  11.767   7.603   4.981 -0.3121 -0.2020  0.0198
 7688W        W23949   2.234   9.171  15.409 -0.0282 -0.0918  0.0021
 7689W        W23950  12.664   4.657   4.041  0.1352  0.1703 -0.0988
 7690W        W23951   7.916  16.044  12.614 -0.0535  0.1497 -0.0488
 7691W        W23952  10.795  14.686  13.552  0.0720  0.2386 -0.3224
 7692W        W23953  10.699   5.215  14.447  0.0637  0.3053  0.0020
 7693W        W23954   8.981  13.596   4.849 -0.0655 -0.0877 -0.1375
 7694W        W23955   6.755  13.654   4.239  0.0635 -0.1874 -0.1778
 7695W        W23956   4.223  15.635  11.704  0.1532  0.1016  0.2310
 7696W        W23957   0.707   5.712   1.312  0.0828 -0.1678 -0.1191
 7697W        W23958  12.856  13.497  13.374 -0.1251 -0.1017 -0.3029
 7698W        W23959  11.841  14.536  12.682  0.0959  0.2578  0.0796
 7699W        W23960   7.384   6.669   1.546  0.0925 -0.2039  0.0488
 7700W        W23961   7.923  11.829   4.892  0.1978  0.1124  0.2198
 7701W        W23962   4.687   1.534  12.163 -0.0255 -0.1702  0.0084
 7702W        W23963  12.198   5.575  13.540 -0.4943 -0.3831  0.0871
 7703W        W23964   2.048   3.097   1.916  0.2207 -0.0555 -0.0160
 7704W        W23965   8.012   2.181   0.820  0.2607  0.0981 -0.2948
 7705W        W23966  15.567  15.082   6.394  0.0448 -0.1480  0.2425
 7706W        W23967   6.567  10.075   3.155 -0.2990 -0.0815 -0.2672
 7707W        W23968  12.984   5.568  16.372  0.1755  0.0060 -0.0349
 7708W        W23969  15.383  13.651   0.335 -0.1850  0.0371  0.2301
 7709W        W23970   4.874   9.404   0.849 -0.2717 -0.0146 -0.0059
 7710W        W23971   5.521  14.882  15.071 -0.0415 -0.1727  0.0228
 7711W        W23972   7.079   5.963  12.040 -0.0688 -0.2084  0.0057
 7712W        W23973   6.393   1.975   0.255  0.0465  0.1879 -0.0046
 7713W        W23974  16.325  10.752   2.699 -0.1097  0.0595  0.0026
 7714W        W23975   1.247  10.283  16.971 -0.0764 -0.0059  0.0677
 7715W        W23976   4.009  13.593  16.559  0.2010 -0.1841 -0.0164
 7716W        W23977   8.348   4.592   0.695 -0.2412 -0.0247  0.5106
 7717W        W23978   2.342  17.253  15.692 -0.0126 -0.0240 -0.0195
 7718W        W23979   4.309  14.083  16.479  0.2142 -0.1241  0.1924
 7719W        W23980   4.612   1.030   0.999  0.1123 -0.1019  0.4405
 7720W        W23981   7.084   9.893  14.366  0.0472 -0.1297  0.0480
 7721W        W23982   2.225   9.523  14.552  0.0647  0.0844  0.2044
 7722W        W23983   0.983  13.987   4.699  0.1776  0.0136  0.2724
 7723W        W23984  10.964  11.121  11.422 -0.1561 -0.0065  0.1939
 7724W        W23985   2.415  17.370  13.845 -0.1907  0.1857  0.3509
 7725W        W23986   2.268   7.522   6.093  0.1991 -0.1747  0.2536
 7726W        W23987  17.684   7.027  13.207  0.1021  0.0968 -0.0975
 7727W        W23988   2.477   6.528   4.158  0.2805  0.0794  0.0224
 7728W        W23989   0.552   8.947   4.892  0.0294  0.3478  0.2507
 7729W        W23990   1.145  17.301  12.365  0.2280  0.0110 -0.2482
 7730W        W23991   5.088   3.805   5.156 -0.1644  0.1220 -0.0870
 7731W        W23992  17.115   9.551  12.724  0.0679  0.1611  0.1724
 7732W        W23993  10.822  16.295  16.106 -0.0119  0.2443  0.1899
 7733W        W23994   1.278   9.482  15.519 -0.2969 -0.0944 -0.1202
 7734W        W23995  10.390  16.357  15.758  0.1589  0.2083 -0.0156
 7735W        W23996   9.988   5.708  15.941 -0.1605  0.0725 -0.1406
 7736W        W23997   5.512   5.370  16.712 -0.1266 -0.1766  0.1709
 7737W        W23998  17.264   1.230  15.242  0.1756  0.0731  0.0298
 7738W        W23999   7.864  16.821  14.190  0.0304  0.0910 -0.0593
 7739W        W24000  16.192  10.250   1.801  0.0243  0.1696 -0.0582
 7740W        W24001   3.036   6.676   6.085 -0.2356 -0.1191 -0.0740
 7741W        W24002  15.882  16.615   3.966  0.0481 -0.0281  0.1561
 7742W        W24003   7.835   7.538  14.682 -0.1475 -0.0090  0.0707
 7743W        W24004   0.348   6.837  13.835  0.0665 -0.1447 -0.0552
 7744W        W24005  11.740   1.371  12.832 -0.2550  0.0252  0.2704
 7745W        W24006   1.261  10.069   4.555  0.1789 -0.0917  0.0835
 7746W        W24007  13.406  11.300  12.314 -0.1176 -0.2281  0.0250
 7747W        W24008  10.308   3.888   3.453 -0.1869 -0.0736 -0.0155
 7748W        W24009  14.254  16.971  13.431  0.0800  0.0062 -0.0410
 7749W        W24010   0.040   7.970  15.787  0.0993 -0.2041  0.0206
 7750W        W24011   9.392   6.467   4.592  0.1016  0.0191 -0.1419
 7751W        W24012  10.919   3.658   2.102  0.1109 -0.1751 -0.0096
 7752W        W24013  10.118   2.516  14.583  0.1101 -0.2595 -0.0007
 7753W        W24014   8.890  14.904   4.811  0.3009  0.1514 -0.2231
 7754W        W24015   4.350  12.217   1.391  0.1551  0.1927 -0.0378
 7755W        W24016   0.495  14.680  12.168 -0.2458 -0.0511 -0.1857
 7756W        W24017   7.120   8.249   3.513  0.0664  0.0930  0.2346
 7757W        W24018   0.754  15.431  12.890 -0.1504  0.1288 -0.1725
 7758W        W24019  11.746   6.150  12.050 -0.0113  0.0604 -0.0143
 7759W        W24020   6.388   3.206   0.861 -0.0691  0.0897 -0.0810
 7760W        W24021   1.354   2.561  11.936  0.2136 -0.0747  0.1492
 7761W        W24022   7.835   0.180   4.424  0.2884 -0.3057 -0.1946
 7762W        W24023   3.692   7.026  14.207 -0.0071 -0.0828  0.2309
 7763W        W24024  12.105  16.466  15.863  0.1691  0.0042 -0.2271
 7764W        W24025   9.389  12.319   4.325 -0.0638  0.0160 -0.0093
 7765W        W24026   8.300   7.102   0.851 -0.2842  0.0449  0.1316
 7766W        W24027   1.351   6.665  14.399  0.1119 -0.0597  0.2216
 7767W        W24028   6.503   5.839  15.108  0.1619 -0.2369  0.1443
 7768W        W24029  12.330   1.755  16.509 -0.2701 -0.1610 -0.0244
 7769W        W24030   0.249   2.182   2.883  0.1024  0.0171  0.2523
 7770W        W24031  11.201  17.662   4.041  0.3169  0.0243 -0.2607
 7771W        W24032   8.366   3.353  12.464  0.0948  0.1147 -0.0141
 7772W        W24033  10.904   7.039   4.174  0.1753  0.0776 -0.1677
 7773W        W24034  15.552  13.701  15.090  0.0955 -0.3228 -0.1112
 7774W        W24035   4.805   3.497  12.261 -0.3162 -0.0023 -0.0588
 7775W        W24036  15.623  10.622  14.626 -0.2941  0.0984 -0.2279
 7776W        W24037  16.625  15.118   3.064 -0.2185 -0.2028  0.1568
 7777W        W24038  11.643  10.849  15.161  0.3420  0.1956  0.2507
 7778W        W24039  12.149   6.492  16.453 -0.1933 -0.2163  0.2122
 7779W        W24040  10.914   1.879  12.135  0.2627  0.2701  0.1285
 7780W        W24041   1.468  14.967   3.825  0.1215 -0.1171 -0.0770
 7781W        W24042  13.837  15.249   1.785  0.0942  0.0494 -0.0517
 7782W        W24043  12.256   8.157   0.918 -0.1165  0.0634 -0.0567
 7783W        W24044   6.265  13.468  11.666  0.0115  0.0479 -0.0529
 7784W        W24045  16.719   1.011  16.494 -0.0304 -0.1830 -0.0750
 7785W        W24046  14.622   9.997  11.806  0.1084  0.2613 -0.0033
 7786W        W24047  16.150  16.677   4.714  0.1034  0.0676  0.0562
 7787W        W24048   0.090  14.130  16.756  0.1158 -0.1683 -0.2006
 7788W        W24049  11.938  10.300   4.296  0.2886 -0.3147  0.2595
 7789W        W24050   8.190  15.307  14.017 -0.0460  0.1587  0.0173
 7790W        W24051   6.330  14.404   5.827  0.0052  0.4126  0.0267
 7791W        W24052  15.423  16.924   1.344  0.0963  0.1796  0.1679
 7792W        W24053  16.203   6.140   4.042  0.1026 -0.1052 -0.3671
 7793W        W24054   6.804  16.453   0.992 -0.0408 -0.1091 -0.0751
 7794W        W24055   6.907   2.805  15.848 -0.1206  0.0118  0.0360
 7795W        W24056   6.922  12.420  13.552 -0.1062 -0.0346 -0.1268
 7796W        W24057   5.101   8.043  12.982  0.1175  0.1259  0.0354
 7797W        W24058  15.390  14.212   0.870  0.0379 -0.0820  0.0229
 7798W        W24059  15.114   6.946   4.160  0.0322  0.1738 -0.0636
 7799W        W24060   6.287   0.020  16.050  0.2841  0.4881 -0.2396
 7800W        W24061   1.378  11.615   4.228 -0.2607  0.1404 -0.1682
 7801W        W24062   4.151  14.963  13.357  0.3405 -0.0449 -0.1146
 7802W        W24063   8.386   1.890  12.300  0.0699  0.1008 -0.3024
 7803W        W24064  14.058  14.889   5.500  0.2033 -0.0767 -0.4137
 7804W        W24065   5.440   7.846  13.628  0.2640  0.0689  0.2849
 7805W        W24066  14.353   1.419   6.249  0.1054  0.1320  0.1717
 7806W        W24067  16.503  12.637  12.786 -0.1429  0.0130 -0.1726
 7807W        W24068   1.577   2.158   0.088  0.1069  0.0512  0.1274
 7808W        W24069   3.306   0.230  12.855 -0.0686  0.0163  0.1226
 7809W        W24070   7.726  14.020   4.542  0.0378 -0.2344 -0.0223
 7810W        W24071   3.163  14.397  14.161 -0.1866 -0.0157 -0.2489
 7811W        W24072   9.053   1.117  12.487 -0.2087 -0.1455  0.1857
 7812W        W24073  11.751   9.781   1.089 -0.0243  0.2210 -0.0237
 7813W        W24074   6.609  17.313   2.039  0.0069 -0.0246 -0.1519
 7814W        W24075  15.760  16.560  15.421 -0.3198 -0.0290 -0.2031
 7815W        W24076   6.490   4.090  13.432 -0.0720 -0.0156  0.2937
 7816W        W24077   4.131   7.779   3.473  0.1325  0.0500 -0.0311
 7817W        W24078   4.161   6.122   5.499  0.3338  0.0872  0.2732
 7818W        W24079  14.075  13.930   1.395 -0.1662 -0.0940 -0.0948
 7819W        W24080   8.110   8.038  14.818  0.0340  0.0840  0.0228
 7820W        W24081  14.130   3.300   6.363 -0.1452  0.0556 -0.0545
 7821W        W24082  16.310  10.050  16.094 -0.2332  0.3358  0.0636
 7822W        W24083  13.754  10.557  15.543 -0.0837 -0.3447 -0.1323
 7823W        W24084  16.321  15.182   1.395  0.0256  0.0325 -0.1355
 7824W        W24085   8.877  15.787  15.785 -0.3668 -0.0166  0.0617
 7825W        W24086   9.008  10.113  13.399 -0.0811 -0.1017 -0.0564
 7826W        W24087  10.058   2.300  12.821  0.2420  0.0363  0.3593
 7827W        W24088  15.196   5.673  14.919 -0.1201  0.2454  0.4421
 7828W        W24089   7.935   1.269  16.960  0.0126  0.1320  0.1818
 7829W        W24090   7.749   8.437  15.811 -0.1173 -0.1161  0.0140
 7830W        W24091  13.880  13.058   5.266 -0.1283  0.0539  0.2031
 7831W        W24092   8.419  10.769  12.019 -0.1112  0.0155  0.0374
 7832W        W24093  17.269   8.613   4.215  0.2249  0.0193 -0.2066
 7833W        W24094   0.642  12.978  11.914 -0.4341  0.1765  0.1349
 7834W        W24095   3.255  14.415   1.547 -0.1345  0.4032 -0.1346
 7835W        W24096  17.041  15.337  14.969  0.0212  0.0857  0.3464
 7836W        W24097  13.646   9.795   1.408  0.3048 -0.1127 -0.0105
 7837W        W24098  13.339   5.923   2.034 -0.0800 -0.3573  0.1815
 7838W        W24099  12.043  11.521  16.032 -0.0091  0.3255 -0.0942
 7839W        W24100   2.266   8.851   0.304  0.2265  0.0107 -0.5069
 7840W        W24101   4.701  12.264  13.880 -0.2211  0.1102  0.0523
 7841W        W24102  11.978  12.934  11.507 -0.0398  0.1138 -0.0962
 7842W        W24103   5.221   5.824   3.339  0.1336  0.1446 -0.1254
 7843W        W24104   3.605   1.898   2.834 -0.1328 -0.0402 -0.0782
 7844W        W24105   7.004   0.462  12.733  0.0383  0.1254  0.2504
 7845W        W24106  16.055   5.909  14.861 -0.0835  0.0464  0.0332
 7846W        W24107   2.408  10.511  16.070 -0.0347 -0.1222 -0.0471
 7847W        W24108   6.090  16.187   5.124  0.0819  0.1150 -0.0135
 7848W        W24109   4.966   1.820  11.849  0.2195 -0.2773 -0.1024
 7849W        W24110   9.399   2.513  13.389 -0.0201  0.1079 -0.5398
 7850W        W24111  15.136  14.014  16.376  0.0103  0.0276 -0.4431
 7851W        W24112  10.140   7.630   4.343  0.1912  0.1825 -0.2853
 7852W        W24113  11.997   5.668   1.557 -0.0793  0.3013  0.0428
 7853W        W24114   6.199  10.910   1.161  0.0523  0.0068  0.4278
 7854W        W24115   0.892  13.174  16.699 -0.0041  0.1501  0.0597
 7855W        W24116   3.331  11.156   2.574 -0.0641 -0.2954 -0.0929
 7856W        W24117   6.086   2.405   0.224  0.1215 -0.0198 -0.2330
 7857W        W24118  14.695   9.992   5.663  0.0131 -0.1515 -0.2792
 7858W        W24119   7.055  17.426   3.113 -0.2243 -0.2373 -0.1809
 7859W        W24120  10.977  15.866   5.166 -0.1153  0.0855  0.0772
 7860W        W24121   0.802   6.441  15.352  0.1814  0.2019  0.3045
 7861W        W24122   8.943   4.328  13.142  0.0475 -0.3902 -0.0601
 7862W        W24123  10.817  13.038   0.099  0.1446  0.1560 -0.2738
 7863W        W24124   6.745   9.798   3.561  0.0182 -0.1491 -0.1713
 7864W        W24125   5.652   8.199  15.387 -0.1045 -0.1040 -0.0335
 7865W        W24126   1.777  16.379   4.464  0.1605  0.3539  0.2645
 7866W        W24127   8.579  16.593  12.365  0.0262  0.2100 -0.0809
 7867W        W24128   9.819   0.853   2.151  0.1081 -0.2145 -0.1236
 7868W        W24129   8.330  14.233  12.390  0.2332 -0.0941  0.0909
 7869W        W24130   8.484  14.597   4.445  0.1657  0.1449 -0.2256
 7870W        W24131   7.711   0.825   2.454  0.3693  0.0704 -0.0379
 7871W        W24132  11.281   6.696  14.757  0.0257 -0.1198 -0.0977
 7872W        W24133   0.367  12.162   0.486  0.2016 -0.3532  0.2070
 7873W        W24134   4.226   1.115  12.747 -0.0533 -0.3105  0.3539
 7874W        W24135  12.576   9.167  13.658  0.1433  0.0423  0.0702
 7875W        W24136  12.632   8.880   2.581 -0.3956 -0.1665 -0.1902
 7876W        W24137   8.479   9.919   4.391 -0.0986  0.2641 -0.2653
 7877W        W24138   6.327   2.070   1.919  0.4114  0.1398 -0.3057
 7878W        W24139   4.550   9.703   4.455 -0.2165 -0.2295  0.0669
 7879W        W24140  15.142   7.419   5.269 -0.1169  0.1509  0.1187
 7880W        W24141   0.495   2.215   6.372  0.2106  0.4415  0.0428
 7881W        W24142   9.768  10.463  14.824  0.1610 -0.1352 -0.1774
 7882W        W24143   5.901   5.421   2.416  0.3246 -0.0816  0.0360
 7883W        W24144   3.509   3.405  16.690 -0.2196 -0.0260  0.0138
 7884W        W24145  16.305  16.708  15.638  0.2978  0.1088 -0.3255
 7885W        W24146   0.111  12.614  11.081 -0.0149 -0.2483 -0.1303
 7886W        W24147   3.687  15.633   2.971 -0.1029 -0.4360 -0.0705
 7887W        W24148   8.352  12.867   3.626  0.0399  0.2417 -0.1784
 7888W        W24149  16.078  12.921  12.617 -0.4395  0.2910  0.1506
 7889W        W24150  14.284   2.612  14.066 -0.1008 -0.0086 -0.4528
 7890W        W24151  10.629   1.148  15.416  0.2440  0.1876 -0.1102
 7891W        W24152   2.783   2.666  11.827  0.0303 -0.4511  0.0648
 7892W        W24153  15.543  12.909   5.997  0.2401 -0.1509 -0.0576
 7893W        W24154   0.854   1.536   3.340  0.0328 -0.0316  0.1225
 7894W        W24155   1.578  17.144  12.239 -0.1188  0.2217  0.0984
 7895W        W24156   7.095  16.165  11.787  0.1593  0.2476 -0.0085
 7896W        W24157   2.854   2.218   3.376  0.0163 -0.3350 -0.0752
 7897W        W24158   0.568   7.824   6.194 -0.2075 -0.0003  0.1420
 7898W        W24159  13.183  15.114   1.488  0.1052 -0.0940 -0.0509
 7899W        W24160   7.689  15.850  16.125 -0.4383 -0.0166  0.1637
 7900W        W24161   1.389   6.440   5.583  0.0849  0.0426  0.5262
 7901W        W24162  11.194   2.550  12.555  0.0292 -0.2662 -0.0884
 7902W        W24163  15.939  10.809   4.233  0.2419 -0.2049  0.2081
 7903W        W24164  16.869   3.244   3.004  0.0218 -0.3103  0.3994
 7904W        W24165  11.269  14.024   0.926 -0.3767  0.2299  0.0133
 7905W        W24166  14.275   8.590  14.756 -0.0309  0.1235 -0.2549
 7906W        W24167   5.946   3.280  12.273  0.1337 -0.0861 -0.0665
 7907W        W24168  13.583  17.611   0.801  0.2433  0.0376  0.1031
 7908W        W24169  10.297  17.627   1.636  0.2773  0.0315  0.1020
 7909W        W24170  13.434   8.650  16.278 -0.5543  0.1902  0.0854
 7910W        W24171   1.456  13.401  13.276 -0.2688 -0.1114  0.1590
 7911W        W24172  13.447   0.256   1.459  0.0282  0.0171 -0.2597
 7912W        W24173  17.261  13.065   4.537  0.4086  0.1242  0.3404
 7913W        W24174   1.224  17.777   3.876 -0.2296  0.2370 -0.2122
 7914W        W24175   4.015  12.478   0.198 -0.2015  0.3193  0.4148
 7915W        W24176  11.054  14.671   2.483 -0.1358 -0.0528  0.1797
 7916W        W24177  11.001  11.264  12.753 -0.1133 -0.1417 -0.0833
 7917W        W24178  12.979   1.096   2.583  0.1604  0.3102 -0.1316
 7918W        W24179   5.466  10.890  14.668 -0.0648 -0.2078 -0.0426
 7919W        W24180  13.133  16.340   3.556  0.0896  0.1866  0.1192
 7920W        W24181  12.724   0.691  11.677 -0.0228  0.0305  0.1161
 7921W        W24182  16.296   7.478  11.621 -0.1376  0.0500  0.1615
 7922W        W24183  14.709  15.437   5.702 -0.0916  0.0482 -0.3963
 7923W        W24184   3.347  16.743   0.585 -0.0177 -0.0819 -0.0353
 7924W        W24185   4.694  11.754  15.168 -0.1263 -0.0802  0.1367
 7925W        W24186   3.237   4.311  16.064  0.0014 -0.1227 -0.0591
 7926W        W24187  11.502   6.316   1.610  0.1761 -0.0481  0.0106
 7927W        W24188  14.220   9.777   2.597 -0.2924 -0.0107  0.1144
 7928W        W24189   0.565   2.840   3.036 -0.1241 -0.1297  0.0095
 7929W        W24190  16.410  11.028  13.538  0.1538  0.0422 -0.1765
 7930W        W24191   0.501   6.057   3.339 -0.2037  0.0051  0.0032
 7931W        W24192   8.509   0.816  15.872  0.1801 -0.3143  0.0408
 7932W        W24193   1.819   6.634   5.329  0.0166 -0.1009  0.1065
 7933W        W24194  11.020   3.647  15.166 -0.2527  0.0254 -0.1162
 7934W        W24195  15.668   9.789   0.438 -0.4269  0.1093  0.0527
 7935W        W24196   0.421   3.761  14.627  0.0413 -0.0875 -0.0959
 7936W        W24197  12.628   7.169  13.600  0.2936  0.0289  0.1692
 7937W        W24198  11.595   1.883   6.389  0.2821 -0.1125  0.0830
 7938W        W24199   7.568   7.148   1.569 -0.1179 -0.0923  0.2032
 7939W        W24200   5.832   5.504   1.239 -0.3419  0.1343  0.0214
 7940W        W24201  11.247   3.576  11.939 -0.1825 -0.2841  0.3207
 7941W        W24202  12.585   8.553  16.184  0.3773  0.0117  0.0876
 7942W        W24203   0.330   7.216   0.633  0.0741 -0.1318 -0.0713
 7943W        W24204  12.065   9.361   1.116 -0.1839  0.1895 -0.1661
 7944W        W24205   9.905   4.334   4.968  0.1602  0.0807  0.4313
 7945W        W24206  12.152   5.472  14.775 -0.3037  0.2909  0.2392
 7946W        W24207   8.497  16.080  16.554 -0.0992  0.0322 -0.2212
 7947W        W24208   1.252  12.282   2.676  0.0256  0.0616 -0.4924
 7948W        W24209  17.192   0.620   2.782 -0.0771 -0.1597 -0.2698
 7949W        W24210  13.751  12.349  13.324  0.0162  0.4964 -0.0707
 7950W        W24211  10.688   0.941   3.633  0.0533 -0.1209  0.2897
 7951W        W24212  13.362  12.755  14.297 -0.2209 -0.3681 -0.1110
 7952W        W24213   8.264   3.106  15.689 -0.0665  0.0373  0.0686
 7953W        W24214   8.730  16.017  12.022  0.1135  0.1331 -0.1321
 7954W        W24215   2.525   3.002  12.650  0.0139 -0.0785 -0.2371
 7955W        W24216  10.287   2.449  13.598 -0.3233  0.0551  0.2267
 7956W        W24217  11.195   2.195   4.793  0.0742  0.0140  0.3151
 7957W        W24218   1.574   9.588   1.584 -0.1666 -0.2033 -0.3637
 7958W        W24219   5.206   0.582   3.357 -0.2185 -0.0627  0.2600
 7959W        W24220  11.429  16.540   4.711  0.2821  0.0605  0.2211
 7960W        W24221   7.496  17.614  14.020  0.2669  0.1439  0.2883
 7961W        W24222  17.715   6.335   0.679  0.0747  0.3526 -0.3662
 7962W        W24223  14.716   0.530   2.099 -0.2009 -0.0301 -0.0813
 7963W        W24224   7.625   7.090  14.880  0.1276  0.0401  0.0587
 7964W        W24225  12.224  13.055   3.765  0.2195  0.0330 -0.2602
 7965W        W24226   3.408  17.528   0.174 -0.0656 -0.0865  0.0288
 7966W        W24227   2.213  14.769  14.230 -0.2090 -0.1289 -0.0284
 7967W        W24228   6.940  15.189   5.958 -0.1081 -0.2023 -0.1414
 7968W        W24229   2.173   5.534  14.366 -0.2379 -0.3461 -0.2344
 7969W        W24230   8.093   7.337  15.098 -0.0662  0.0555  0.0633
 7970W        W24231  13.514   7.228   4.527  0.0447  0.1323  0.0254
 7971W        W24232   9.853  11.957  14.249 -0.1375 -0.0208 -0.0494
 7972W        W24233  13.800   3.969   1.943  0.3824  0.1074 -0.1436
 7973W        W24234   0.142  11.307   1.104  0.3387 -0.2973 -0.0612
 7974W        W24235   0.860  17.312   4.090 -0.2626  0.0478 -0.0377
 7975W        W24236  15.316   3.393  16.311 -0.0368  0.0312 -0.1874
 7976W        W24237   5.957   4.845   3.136 -0.0784 -0.0389  0.0578
 7977W        W24238  16.890  14.274   1.849 -0.2742  0.0660 -0.2351
 7978W        W24239  10.233  14.784   5.286 -0.1577  0.0239  0.0575
 7979W        W24240  12.051  12.653  12.559  0.3692  0.2620  0.0452
 7980W        W24241   0.963  10.802   1.925 -0.1684  0.0771  0.0899
 7981W        W24242  10.796   5.377   1.700  0.0531 -0.1004 -0.1028
 7982W        W24243  12.384  16.920  16.543  0.2230  0.0785  0.1186
 7983W        W24244  11.693   4.859   0.989 -0.0946 -0.2525 -0.1330
 7984W        W24245  13.401   7.054  15.603 -0.2645 -0.0081  0.0302
 7985W        W24246  16.286  15.419   4.105  0.0069 -0.3105  0.0961
 7986W        W24247   3.811   7.286  11.926 -0.1964  0.2049  0.1469
 7987W        W24248   0.789   9.385   3.102  0.0070 -0.2859 -0.0629
 7988W        W24249   3.242  12.651   4.740 -0.1137 -0.1427  0.0080
 7989W        W24250   7.789   0.808  12.136 -0.0715  0.1219 -0.0819
 7990W        W24251   7.352   1.063   5.145  0.3064  0.0600 -0.0905
 7991W        W24252  12.246  12.630  15.886 -0.3745 -0.3891  0.1047
 7992W        W24253  11.844  16.245  14.227  0.3022 -0.0726  0.1531
 7993W        W24254  11.302   2.755  12.135  0.0814  0.0713 -0.0062
 7994W        W24255   1.439   1.754   4.460  0.0245 -0.0304  0.2153
 7995W        W24256   2.279   7.202   2.278  0.4753 -0.0283 -0.3090
 7996W        W24257   6.292   1.634  12.341 -0.0962 -0.1217  0.0419
 7997W        W24258   6.587  15.701  15.484 -0.1624  0.2257 -0.3235
 7998W        W24259  13.720   6.927   2.070  0.0484 -0.0884  0.0784
 7999W        W24260  13.743   6.710   5.395  0.0126 -0.1384 -0.1681
 8000W        W24261   7.392  11.486  11.463  0.2101  0.1488  0.2191
 8001W        W24262  10.983   0.016   2.839 -0.2092  0.0981 -0.1372
 8002W        W24263  14.371   1.682  16.882 -0.0750  0.1018  0.1199
 8003W        W24264   7.690   3.048   1.844 -0.1213  0.0290 -0.0238
 8004W        W24265  14.558   2.952  13.853 -0.1619 -0.0311  0.0420
 8005W        W24266   5.624  14.428  14.924  0.1356 -0.1307 -0.2425
 8006W        W24267  14.925  11.953   0.772 -0.0604  0.1613  0.1657
 8007W        W24268   3.517  14.702  11.790  0.0491  0.1593 -0.1699
 8008W        W24269  14.339   5.089   0.622 -0.0100  0.0662  0.0477
 8009W        W24270   4.780   7.764  12.472 -0.0755  0.4296  0.0337
 8010W        W24271   8.465   0.578   2.235  0.0921 -0.2201 -0.2369
 8011W        W24272   1.764  16.277  11.941  0.0193  0.0006  0.0648
 8012W        W24273  17.555   5.432  14.020  0.1096 -0.3225  0.2886
 8013W        W24274   9.894  16.225   1.924 -0.1275 -0.0334 -0.1080
 8014W        W24275  16.559   2.162   4.151  0.0696 -0.1273  0.0655
 8015W        W24276   6.572  13.936   3.881 -0.0999 -0.2231  0.0340
 8016W        W24277  10.347   2.414   5.444 -0.0921 -0.2150  0.0637
 8017W        W24278   0.335   6.171   4.565 -0.0481 -0.1697 -0.0372
 8018W        W24279   5.321  15.923  11.738 -0.0787 -0.1771 -0.0676
 8019W        W24280  10.495  16.819   4.391  0.0830  0.4987 -0.1757
 8020W        W24281   5.422   8.413  16.040  0.0213  0.2031  0.0309
 8021W        W24282   7.534   0.787   3.202  0.1174 -0.0024 -0.1755
 8022W        W24283   2.373  16.918  13.597  0.0623  0.0785 -0.1850
 8023W        W24284  12.768  12.738   3.244 -0.1118 -0.1819 -0.0504
 8024W        W24285   6.185   8.741  12.049  0.1021  0.0389  0.2147
 8025W        W24286  14.384  13.224   2.181  0.1712  0.1223 -0.0717
 8026W        W24287  17.713   0.642   2.637  0.0113  0.1876  0.1849
 8027W        W24288   5.379  13.172   0.277  0.1183 -0.1057  0.1335
 8028W        W24289  16.107   5.090   3.105 -0.1439  0.1314  0.0433
 8029W        W24290  16.586  10.619   1.397 -0.0559  0.2032  0.1678
 8030W        W24291   2.886   1.400  13.877  0.2897 -0.1190 -0.0117
 8031W        W24292  17.273   7.896  11.897  0.1748  0.0308  0.0281
 8032W        W24293  12.524  12.977   1.426 -0.1725  0.4485  0.1138
 8033W        W24294   3.471  12.896   1.418 -0.1510  0.1325  0.1206
 8034W        W24295   0.292  15.915   3.427 -0.5579  0.1700  0.0504
 8035W        W24296   9.445  10.995   3.247 -0.0685  0.2466  0.0266
 8036W        W24297   3.095  14.433   4.926  0.0139 -0.1077 -0.3290
 8037W        W24298  11.573   8.558  13.186 -0.2593 -0.0115  0.2672
 8038W        W24299  12.247  16.780   4.524 -0.1929  0.1581 -0.0565
 8039W        W24300  12.596   7.642   3.152 -0.0143  0.0501  0.1217
 8040W        W24301   8.013   2.310  10.996  0.2667  0.0159  0.1435
 8041W        W24302   1.841  11.655  13.698  0.2540 -0.0984 -0.0833
 8042W        W24303   5.544  11.926  16.655 -0.2427  0.0197  0.1606
 8043W        W24304   6.074   7.903   0.846 -0.2611 -0.0228  0.1521
 8044W        W24305   7.553  14.449   1.749  0.1134  0.0103  0.1997
 8045W        W24306   9.479   8.522   0.473  0.0313  0.0858  0.0559
 8046W        W24307  11.025  13.854   3.513 -0.1465 -0.0456 -0.0989
 8047W        W24308  13.530   0.655   1.786  0.0938  0.0951 -0.0933
 8048W        W24309  11.852   1.971  13.013  0.2575 -0.0251 -0.2766
 8049W        W24310  11.415  11.078  15.541  0.1200  0.2343 -0.3076
 8050W        W24311  11.207   0.324   3.185 -0.0550 -0.0030 -0.2293
 8051W        W24312  13.526  15.447   2.609  0.0065 -0.1833 -0.2004
 8052W        W24313   0.136   3.655  13.714  0.0131  0.0038  0.0449
 8053W        W24314  16.906  10.972  14.071 -0.0708  0.0196 -0.1392
 8054W        W24315  13.834  10.074   3.693  0.0807 -0.1107  0.1974
 8055W        W24316  17.267   3.598   4.645 -0.1629 -0.0641 -0.2284
 8056W        W24317   1.043  17.770   4.351 -0.0203  0.0548 -0.0978
 8057W        W24318   9.722  10.048   3.679  0.1122 -0.1576 -0.2279
 8058W        W24319   8.626   0.565  16.884  0.0546  0.0258  0.1494
 8059W        W24320   3.925   1.964   5.075  0.4087 -0.0365  0.0897
 8060W        W24321  13.104  11.402  13.278  0.1064  0.2677 -0.1036
 8061W        W24322   2.337   4.871   3.872  0.0133  0.0492 -0.0800
 8062W        W24323  15.783   1.692  14.659 -0.1166 -0.3210  0.2598
 8063W        W24324   1.458  11.766   3.769 -0.0955 -0.1924 -0.0901
 8064W        W24325  13.237  11.402   5.652  0.0066 -0.0567  0.1176
 8065W        W24326   2.058   7.519  11.843  0.1684  0.0508 -0.0547
 8066W        W24327  12.280  11.726   4.143 -0.0858 -0.1353  0.0990
 8067W        W24328   8.881   7.097   2.988  0.1872  0.2195 -0.0816
 8068W        W24329   7.150  14.842   5.587  0.3148  0.1706  0.0739
 8069W        W24330   8.085   6.548   5.515 -0.1233  0.0499  0.0212
 8070W        W24331  15.374  12.617   1.303 -0.1613 -0.0881  0.1654
 8071W        W24332   7.321   1.259  14.316 -0.1614  0.0668  0.0626
 8072W        W24333   3.956  15.528  13.355 -0.2740 -0.1293 -0.0325
 8073W        W24334   7.354   6.290  16.816  0.0858 -0.3290 -0.0357
 8074W        W24335  12.001   7.505  11.412 -0.0716  0.2563 -0.1237
 8075W        W24336  12.371  11.025  14.344 -0.2101  0.2345 -0.0376
 8076W        W24337  10.408  11.522  16.208 -0.0118 -0.0613  0.0277
 8077W        W24338  12.989  12.742   4.650 -0.0962 -0.0732  0.2642
 8078W        W24339   0.198   7.255  16.768 -0.3001 -0.2873 -0.0415
 8079W        W24340  13.852   8.399  13.769  0.1666  0.1150  0.1315
 8080W        W24341   2.271   4.030   3.287  0.2755 -0.3240  0.0314
 8081W        W24342   5.764  11.193  14.356  0.1257 -0.2089  0.0303
 8082W        W24343  11.234   1.910   5.780  0.2742 -0.0666 -0.0196
 8083W        W24344  17.508   5.123   3.397  0.0369 -0.1788 -0.0556
 8084W        W24345   5.162  17.501  11.853 -0.0965 -0.0892 -0.0398
 8085W        W24346   1.037   1.653   5.390  0.2108 -0.2511 -0.2499
 8086W        W24347   0.165   1.454  15.957  0.0982 -0.0805 -0.1503
 8087W        W24348   3.010   4.495  12.800  0.1281  0.4264 -0.2737
 8088W        W24349  17.767  15.658   3.141  0.2703 -0.0167  0.0220
 8089W        W24350  15.400  12.585   5.134  0.0094 -0.0865 -0.0624
 8090W        W24351   6.533   5.397   4.504 -0.1982  0.2593  0.0751
 8091W        W24352  10.541   2.385   1.055  0.0438  0.3823 -0.1111
 8092W        W24353  17.768   8.308   0.078  0.1452  0.1074  0.0381
 8093W        W24354   7.465   7.680  14.050  0.1564 -0.2233  0.0451
 8094W        W24355   4.797   5.483  14.285 -0.0758 -0.2392  0.0483
 8095W        W24356  13.164   3.390   6.085  0.1670  0.1716  0.1765
 8096W        W24357  13.247   3.097  13.872  0.1358  0.0569  0.2824
 8097W        W24358   6.334  11.494   0.998 -0.2164 -0.2352 -0.0476
 8098W        W24359  12.818   0.983  13.042  0.2411  0.0421  0.0834
 8099W        W24360  12.479   7.200   4.384 -0.1532 -0.2712 -0.0910
 8100W        W24361   1.081  13.884   1.182 -0.2446 -0.0340 -0.4081
 8101W        W24362   0.084   7.515  16.017  0.0797  0.0503 -0.0020
 8102W        W24363  10.668  13.358  11.214  0.2138  0.2602  0.0702
 8103W        W24364   6.466   3.529   4.836 -0.1040  0.3020 -0.0267
 8104W        W24365   6.216   1.455   4.365 -0.1335  0.2038 -0.0130
 8105W        W24366   2.718  15.710   5.552  0.0689 -0.1083  0.1145
 8106W        W24367  11.866  11.686  14.462 -0.0118 -0.2295 -0.0481
 8107W        W24368  10.531   1.414   4.912 -0.0665 -0.1103  0.0799
 8108W        W24369  16.738  13.265   1.514  0.0384 -0.2425 -0.0962
 8109W        W24370  12.504  17.135  13.991 -0.2622  0.1103  0.2018
 8110W        W24371  12.735   6.052  16.384  0.0678  0.2691  0.2171
 8111W        W24372   5.565   8.223   1.469 -0.0413  0.1042 -0.0584
 8112W        W24373  17.458   1.646   4.864  0.0772 -0.0122  0.4064
 8113W        W24374  10.409  14.717  15.686 -0.0632  0.0231 -0.1110
 8114W        W24375   6.963  11.907  11.629  0.1593 -0.0457  0.1855
 8115W        W24376   8.595   5.050   2.163 -0.2665  0.1011  0.2040
 8116W        W24377  11.130  10.401   0.246  0.1885  0.0305 -0.1670
 8117W        W24378  13.266   0.863  13.086 -0.1245 -0.1305  0.1754
 8118W        W24379   5.564  16.270  12.163 -0.0274  0.0557 -0.1877
 8119W        W24380   1.951  16.376  14.770 -0.0151  0.4467  0.1325
 8120W        W24381  12.554   7.326   0.000 -0.0394  0.0567  0.0274
 8121W        W24382   7.331   8.293  10.471 -0.1099 -0.2732 -0.0357
 8122W        W24383  10.994   8.536  11.450  0.1242  0.1125 -0.1009
 8123W        W24384  13.995   8.578   5.456  0.1070  0.1608  0.2052
 8124W        W24385  17.764  16.344   0.591  0.0230 -0.1187  0.1915
 8125W        W24386  12.648  12.619  13.603 -0.1726 -0.1058  0.1763
 8126W        W24387  12.485  12.608  16.827 -0.0887  0.2116  0.0564
 8127W        W24388  10.221  12.651   3.133  0.3554  0.0779  0.0094
 8128W        W24389  13.406   2.768   5.599 -0.0393  0.0091  0.0398
 8129W        W24390   4.827  12.239   1.506 -0.0463 -0.0705  0.0513
 8130W        W24391  11.331   7.017   5.136  0.1474 -0.0612  0.1858
 8131W        W24392   5.775   0.700  12.469 -0.1966  0.1034 -0.3643
 8132W        W24393   3.682   3.654  13.277 -0.0761 -0.2360 -0.3349
 8133W        W24394   5.399   2.734   2.875  0.0654  0.0195 -0.1408
 8134W        W24395  14.831  11.291  12.314  0.2617  0.0156 -0.3329
 8135W        W24396   6.885  11.241  12.277  0.3785 -0.0956 -0.1443
 8136W        W24397   7.047  10.573  13.776  0.1787 -0.0558  0.3216
 8137W        W24398   2.687   3.639  12.737  0.0091  0.0574  0.1181
 8138W        W24399  15.787   4.799   2.519  0.0498 -0.1947  0.3040
 8139W        W24400  16.746   3.559   4.809 -0.3407  0.0110 -0.0859
 8140W        W24401   8.566  11.005   2.967  0.1563 -0.1914  0.0127
 8141W        W24402  12.580   9.622  13.901 -0.0197 -0.0537  0.0723
 8142W        W24403   3.358   5.150   2.460 -0.1293 -0.4210 -0.1901
 8143W        W24404   2.817   6.346  15.846 -0.3091 -0.2154  0.1294
 8144W        W24405  11.000  16.599   0.777  0.0958 -0.0941  0.2810
 8145W        W24406  12.906   0.009   3.219  0.1441 -0.0407  0.1594
 8146W        W24407  13.883  14.533  14.673  0.1308 -0.1621  0.2825
 8147W        W24408  17.314   7.667   3.933  0.0718 -0.3171  0.3409
 8148W        W24409  16.797   0.688   1.536 -0.2438  0.0441 -0.1210
 8149W        W24410   5.193   2.196  12.149 -0.1222  0.0452  0.0316
 8150W        W24411   5.625  13.770  12.187 -0.2064  0.1822 -0.1436
 8151W        W24412  12.361   1.453   3.611  0.2818  0.2011 -0.2243
 8152W        W24413  16.232   0.600   3.644  0.0347  0.1615 -0.2977
 8153W        W24414   7.583  13.418   3.436  0.0316  0.1421  0.0630
 8154W        W24415   5.778   5.341  14.096  0.0108  0.1685  0.1321
 8155W        W24416   8.420  15.427   2.479 -0.1550  0.1003 -0.0250
 8156W        W24417   4.447  10.461  15.627 -0.1422  0.0819  0.4109
 8157W        W24418   5.805   9.564  16.912  0.1330 -0.0603  0.0523
 8158W        W24419  15.680  14.393   4.218  0.2392 -0.2932 -0.0089
 8159W        W24420   8.915  15.419   3.993  0.1150  0.2007 -0.0722
 8160W        W24421  15.177   2.982   4.310  0.2897 -0.1105  0.0085
 8161W        W24422  15.330  10.363   2.425  0.0550 -0.0303 -0.1666
 8162W        W24423   6.514  11.996  16.520 -0.2604  0.2256  0.0018
 8163W        W24424   1.497   9.315  12.602  0.0142  0.1653 -0.1262
 8164W        W24425   5.707  17.024   1.050  0.0117 -0.1849 -0.1320
 8165W        W24426   7.578   7.152  13.982  0.1651 -0.0828  0.1911
 8166W        W24427   8.584  16.195   3.312 -0.0370  0.2382 -0.0268
 8167W        W24428   7.669  14.787  16.177 -0.0747  0.1124 -0.1226
 8168W        W24429   7.833   3.015   0.067 -0.2374  0.1874  0.0109
 8169W        W24430   1.561  10.835   3.928 -0.0011  0.0487  0.3249
 8170W        W24431   2.026   3.343   2.937 -0.4684  0.1276  0.0600
 8171W        W24432   4.736  14.827   0.817  0.0015 -0.1662 -0.0345
 8172W        W24433  15.871   8.788   2.451 -0.1795 -0.2061 -0.2953
 8173W        W24434   4.564  12.474  16.443  0.1792  0.0366 -0.0630
 8174W        W24435  17.698  16.608  15.886 -0.1580 -0.0444  0.2762
 8175W        W24436  11.478  12.600   3.877 -0.1336 -0.0374  0.2120
 8176W        W24437  17.295   7.200  15.131 -0.2585 -0.0797 -0.0681
 8177W        W24438   8.585   5.750   3.447  0.0906  0.0778 -0.0541
 8178W        W24439  12.817  14.604   6.304 -0.0295  0.0337  0.1465
 8179W        W24440  10.398   4.941   6.189  0.0697  0.1622 -0.0538
 8180W        W24441   1.114   6.090  15.090  0.2294 -0.1006  0.0282
 8181W        W24442   8.173  16.959   2.586 -0.0155 -0.1522 -0.2288
 8182W        W24443  14.599  15.374   0.617  0.1459  0.2791 -0.2398
 8183W        W24444   3.126   6.474  16.281  0.0728  0.1996  0.1437
 8184W        W24445   6.989   8.541   4.253  0.4079  0.0720 -0.0228
 8185W        W24446   7.294   3.403   1.533 -0.2489  0.1892 -0.0421
 8186W        W24447  17.168   6.508  12.739  0.0343  0.0035 -0.3634
 8187W        W24448   5.923  11.226   2.660 -0.0105 -0.0970  0.1854
 8188W        W24449   4.573   1.892   3.945  0.0095  0.3694 -0.0955
 8189W        W24450  13.424   4.783  16.406  0.1344 -0.1168  0.2539
 8190W        W24451   4.647   3.585   1.431  0.1006 -0.0792  0.1632
 8191W        W24452  13.789   1.226   2.872  0.0875  0.0154 -0.0009
 8192W        W24453  17.035   5.343  12.171  0.2382  0.2788 -0.1074
 8193W        W24454   2.714   5.653   0.631 -0.0755 -0.1374 -0.1403
 8194W        W24455   3.524   0.368   2.022 -0.0517 -0.0383 -0.3082
 8195W        W24456  11.287   7.612  16.592 -0.2339  0.3065  0.1831
 8196W        W24457  13.480   2.117  12.659  0.2052 -0.1602  0.0110
 8197W        W24458  12.884  11.635   1.471 -0.0233 -0.0160 -0.1012
 8198W        W24459  12.768   5.019   3.112  0.1731  0.0654  0.0670
 8199W        W24460  11.759   8.988  14.082  0.1478 -0.1757 -0.1213
 8200W        W24461   7.793  13.553   1.324  0.0752  0.0392 -0.1733
 8201W        W24462   6.656  10.616   0.349 -0.2134  0.1981 -0.2390
 8202W        W24463   8.827   8.122   2.992 -0.0638 -0.0329 -0.0407
 8203W        W24464   9.587  12.968  11.334  0.0307 -0.2512  0.2100
 8204W        W24465  10.146   6.090  13.403 -0.0693 -0.0988  0.1968
 8205W        W24466  12.176   3.307  16.023  0.0707  0.0584 -0.0053
 8206W        W24467   7.674   3.084  13.873  0.0824 -0.1217  0.0818
 8207W        W24468  14.456  17.525   3.292 -0.2013 -0.2719  0.2081
 8208W        W24469   9.601  11.373  12.234  0.0217 -0.0780 -0.0857
 8209W        W24470  17.793   3.924  16.091  0.1465 -0.4276 -0.2868
 8210W        W24471   1.714   4.850   3.079 -0.0344 -0.0124 -0.1310
 8211W        W24472  17.289  14.265   2.885  0.0020 -0.4733 -0.0617
 8212W        W24473   7.537  17.643  16.844 -0.0578 -0.1769  0.1072
 8213W        W24474   9.028   7.058   3.920 -0.0635  0.0871 -0.0804
 8214W        W24475   4.549   3.320  14.454  0.0730 -0.1436  0.4325
 8215W        W24476   2.873   3.118   1.580  0.4498 -0.2482 -0.0138
 8216W        W24477   0.670   8.162  10.602 -0.0429 -0.1768 -0.1916
 8217W        W24478  16.438   3.978   0.411  0.1522 -0.0031 -0.0067
 8218W        W24479   7.673  10.558  16.660  0.0110 -0.2304 -0.1470
 8219W        W24480   0.885   7.401   0.579 -0.0301  0.2115 -0.0803
 8220W        W24481  10.847   8.026   1.619 -0.0291 -0.0323  0.1000
 8221W        W24482   6.702  10.215  11.892  0.0585 -0.1806 -0.0010
 8222W        W24483  10.218  12.440   0.042 -0.0438  0.0495  0.1088
 8223W        W24484   3.533  12.179   2.053 -0.5032  0.0849 -0.0387
 8224W        W24485   6.494   9.826   4.034  0.0433 -0.2106 -0.2029
 8225W        W24486  17.334   5.920   6.103 -0.0123  0.0757 -0.3628
 8226W        W24487   6.990  12.119  16.339 -0.1769 -0.3034 -0.4764
 8227W        W24488  11.393  12.503   2.924 -0.1978  0.1274  0.1027
 8228W        W24489  16.690   2.217  14.892 -0.0130  0.0062 -0.2134
 8229W        W24490  11.904   4.368   4.342  0.0443 -0.3751  0.2110
 8230W        W24491  13.447   9.664   3.454 -0.1838 -0.1665  0.1981
 8231W        W24492   2.652   9.842   0.865 -0.0591 -0.0414 -0.1075
 8232W        W24493   0.926   5.775   3.546  0.0440 -0.0926  0.0831
 8233W        W24494   4.627   5.300  15.786 -0.0771  0.2400 -0.0199
 8234W        W24495   8.269  16.852  11.994 -0.0274  0.0328 -0.0640
 8235W        W24496  16.677   7.139  11.757 -0.1909 -0.1395  0.0896
 8236W        W24497   6.246   4.198   3.173 -0.2574  0.2341  0.0356
 8237W        W24498   1.637  15.117   5.182 -0.1121  0.2020  0.0666
 8238W        W24499   2.708  16.088  15.985  0.3743 -0.0791  0.0715
 8239W        W24500  14.024   9.913  10.670  0.0191  0.1967 -0.0871
 8240W        W24501   0.076   4.762   3.034 -0.1827 -0.1750 -0.2200
 8241W        W24502   2.831   2.481   0.395  0.0571 -0.0927  0.1791
 8242W        W24503   5.280  13.241   2.385 -0.0183 -0.0733  0.1290
 8243W        W24504   8.981   9.429   2.052 -0.0744  0.2517 -0.0241
 8244W        W24505  12.528   5.802  16.015 -0.1059 -0.1481  0.1653
 8245W        W24506   0.031  12.240  16.138 -0.0871 -0.3079 -0.4088
 8246W        W24507  10.985  13.761   2.985 -0.1731 -0.0931  0.0156
 8247W        W24508  17.317   1.580   3.810 -0.0465 -0.0983  0.0976
 8248W        W24509   3.259  17.648  11.993  0.0561  0.0606 -0.0546
 8249W        W24510   1.375  12.760   6.237  0.0563  0.1285  0.0873
 8250W        W24511   7.321   9.033   4.533  0.2544 -0.0899  0.1079
 8251W        W24512  13.627  15.793   4.097  0.1161  0.1772 -0.0987
 8252W        W24513  13.120  12.575   5.563 -0.0225  0.4186 -0.0081
 8253W        W24514   5.485   1.052  16.156 -0.0205 -0.0031 -0.1177
 8254W        W24515   8.892   4.375   0.195 -0.0119 -0.2784 -0.0436
 8255W        W24516  11.079  14.345   5.248 -0.1279  0.1343  0.0428
 8256W        W24517   2.626   0.609   3.702  0.0471 -0.1256  0.1239
 8257W        W24518   9.264   4.824   3.357  0.2259  0.0308 -0.2611
 8258W        W24519   1.075  10.531  13.759 -0.3894 -0.1220 -0.1548
 8259W        W24520   6.464  17.406  12.076 -0.0104  0.2273 -0.0123
 8260W        W24521  15.478  17.404   3.677 -0.2307  0.1412 -0.0180
 8261W        W24522  11.294  10.998  14.318  0.1474  0.0727  0.2617
 8262W        W24523   4.838   4.962   0.483  0.1152  0.2536  0.0348
 8263W        W24524  17.275  15.538  16.359 -0.0099 -0.0412 -0.0711
 8264W        W24525   7.873  12.628  12.356  0.2355 -0.0518 -0.1511
 8265W        W24526  12.555   7.975   1.254 -0.2193  0.4404  0.0697
 8266W        W24527   4.042   8.826   5.270  0.2152  0.0339 -0.2148
 8267W        W24528   5.036   9.995   1.348 -0.1132  0.0614  0.1074
 8268W        W24529  11.135   5.579  16.353  0.2375 -0.1946 -0.1765
 8269W        W24530  14.835  17.405  13.984  0.1243 -0.1504  0.2027
 8270W        W24531  11.613   0.689   1.863 -0.0015 -0.2134  0.2048
 8271W        W24532  16.850  13.940  15.437 -0.2217 -0.2015  0.2141
 8272W        W24533   9.186  11.525   5.204 -0.0117 -0.0126  0.2647
 8273W        W24534   8.393  13.562  11.319 -0.0290 -0.0010  0.0011
 8274W        W24535   2.007   2.087  11.965 -0.0115 -0.2813 -0.0963
 8275W        W24536  16.110   0.348   5.181  0.0646  0.1652  0.2747
 8276W        W24537   0.710   6.560   3.159  0.0289  0.1316  0.2154
 8277W        W24538   3.368   7.421   0.908  0.0339  0.1120 -0.0388
 8278W        W24539   2.759   8.696  12.663  0.0624 -0.2766  0.0898
 8279W        W24540   3.446  10.598   0.747 -0.0413 -0.1401  0.2057
 8280W        W24541   5.322  10.667   4.524  0.0581 -0.1174  0.2468
 8281W        W24542   5.806  15.285  15.043  0.0281 -0.1227  0.0795
 8282W        W24543  13.305  16.413   2.663 -0.0502 -0.2948 -0.1845
 8283W        W24544   2.561   0.884  15.605  0.0294 -0.0853 -0.1802
 8284W        W24545   3.268  15.340   0.911  0.2725  0.3735 -0.1091
 8285W        W24546  12.115   9.719   2.023  0.2218  0.2627 -0.0988
 8286W        W24547  13.444  10.300   3.189 -0.2150 -0.3052  0.0198
 8287W        W24548  13.742  12.025   2.091 -0.3562  0.3133  0.0869
 8288W        W24549   9.654   0.657   3.815 -0.0930 -0.0698  0.0316
 8289W        W24550   3.064   8.799   2.308  0.0551  0.2909 -0.3140
 8290W        W24551   0.376   0.930   4.977  0.1287  0.1381 -0.1847
 8291W        W24552   5.234  12.143  16.338  0.3431 -0.0325 -0.1679
 8292W        W24553   5.543   6.401   6.481  0.0480 -0.1251 -0.0365
 8293W        W24554  16.822  16.040   4.819  0.1313  0.1372 -0.2115
 8294W        W24555   9.680   3.581   6.147 -0.3372 -0.0196  0.0780
 8295W        W24556   3.673   4.261  13.147 -0.2466 -0.0036 -0.0110
 8296W        W24557   7.466   4.141   5.401  0.2225 -0.4391  0.0121
 8297W        W24558   5.732   7.430   1.101  0.0843  0.0578  0.0032
 8298W        W24559  11.143   0.479   1.756  0.1405 -0.1384 -0.1270
 8299W        W24560   1.830   3.062  13.252 -0.1542 -0.2336  0.3401
 8300W        W24561   2.439   4.520  14.696 -0.0035  0.3007  0.0070
 8301W        W24562   7.665   8.504   1.320  0.1872  0.1255 -0.1280
 8302W        W24563  15.569  14.041   3.552 -0.1141  0.1591  0.3854
 8303W        W24564   3.435   3.121  10.787  0.0039  0.0875 -0.0453
 8304W        W24565   6.508  14.363  12.935 -0.0742  0.2878 -0.1533
 8305W        W24566   7.309  11.778   5.554 -0.3130  0.1839 -0.1298
 8306W        W24567   3.569   5.719  12.110 -0.1130 -0.2265  0.2336
 8307W        W24568   6.577   8.500  11.886 -0.3140  0.0852  0.0584
 8308W        W24569  16.024  11.943  11.716  0.0136 -0.1097 -0.3167
 8309W        W24570   4.846   2.880   4.906  0.1480 -0.0117 -0.1760
 8310W        W24571   7.530  14.282  15.402 -0.0692 -0.1545  0.1695
 8311W        W24572   7.111  15.936  16.832  0.0988 -0.0214  0.2836
 8312W        W24573  15.903  10.798  15.643  0.0265 -0.0830 -0.1423
 8313W        W24574   3.668  14.746  13.076  0.0157  0.2253 -0.3563
 8314W        W24575  10.939  15.935  16.470  0.0836  0.1294  0.0284
 8315W        W24576   9.500   0.100  15.674 -0.1593  0.1719 -0.1623
 8316W        W24577  12.761   9.913   1.097  0.1423  0.0543 -0.0136
 8317W        W24578   3.801   0.396  13.126  0.1518  0.1882  0.1529
 8318W        W24579   9.612   8.698  14.872 -0.0823 -0.0528  0.1280
 8319W        W24580  15.872   7.326   0.838  0.6212  0.0202  0.0153
 8320W        W24581   2.067   9.711   2.809 -0.1573  0.4635  0.0434
 8321W        W24582  15.180  16.084   0.022 -0.2209  0.0819 -0.0245
 8322W        W24583  12.127   0.961   3.646 -0.0003 -0.1338 -0.0358
 8323W        W24584   4.479   5.589  13.926  0.2943  0.1262 -0.1863
 8324W        W24585   9.151   0.577  13.761  0.0260  0.3563  0.2021
 8325W        W24586   3.098  13.513  12.886  0.2405  0.0555 -0.1298
 8326W        W24587   9.695   5.115  15.062 -0.0513 -0.0739  0.1289
 8327W        W24588   2.090   3.933   3.793  0.0344 -0.0717  0.1275
 8328W        W24589   6.957  17.010   4.434 -0.3141  0.2170  0.0316
 8329W        W24590   7.769   4.544   3.738  0.1225 -0.0201 -0.2314
 8330W        W24591   5.144  17.494  13.013 -0.0161 -0.0969  0.1223
 8331W        W24592   3.448  16.500   4.653  0.0669  0.2618 -0.2474
 8332W        W24593   9.823   7.588  12.690 -0.0017  0.1489  0.1672
 8333W        W24594   8.371  10.747  11.544  0.1828 -0.0157  0.2697
 8334W        W24595  13.381   4.227  13.399 -0.1566  0.2247  0.1765
 8335W        W24596  11.150   6.831   3.760 -0.0325 -0.2247 -0.1659
 8336W        W24597   1.936   6.395  15.497  0.0589  0.1170  0.2630
 8337W        W24598  15.660   1.741  13.440 -0.3569  0.0267  0.4051
 8338W        W24599   8.622  17.068  11.753  0.1804 -0.1821  0.0497
 8339W        W24600   1.432  14.711  11.937 -0.0420  0.0773 -0.1111
 8340W        W24601   4.553  11.461   2.764 -0.0980  0.0148 -0.1850
 8341W        W24602   9.943   5.210  13.702  0.0408 -0.3220 -0.1764
 8342W        W24603  16.345   9.544   4.107 -0.3043 -0.0210  0.1005
 8343W        W24604   4.837   0.710  10.591 -0.1016 -0.0990  0.2274
 8344W        W24605  11.010   9.744   5.123 -0.3067  0.2408  0.0809
 8345W        W24606   2.993  11.171   3.548  0.0994  0.0363 -0.0307
 8346W        W24607   0.664  16.976   2.368  0.1722 -0.0487  0.2296
 8347W        W24608   6.125  17.139   4.631 -0.2621 -0.1963 -0.1163
 8348W        W24609  13.292   8.457  12.215  0.4186  0.1556  0.1766
 8349W        W24610  17.814   4.952   2.602 -0.2307  0.0894  0.0474
 8350W        W24611  11.881   9.404  12.940  0.3011 -0.2432 -0.3574
 8351W        W24612  16.517  14.105   5.663 -0.0271  0.1637 -0.0645
 8352W        W24613  15.318  13.855  15.802 -0.3036 -0.0245 -0.3920
 8353W        W24614  15.430   9.895  15.556 -0.2135 -0.3262  0.1071
 8354W        W24615   0.054  13.866   4.985 -0.1836  0.0163  0.1994
 8355W        W24616  14.720   5.039  14.485 -0.0951  0.3776 -0.0738
 8356W        W24617   7.328   0.272  16.016  0.0446  0.2215  0.1341
 8357W        W24618  14.085  15.874   3.798 -0.0341 -0.0543  0.1797
 8358W        W24619  16.800   4.353   4.709 -0.2172 -0.1707 -0.0918
 8359W        W24620  13.754   8.770   1.728  0.2127  0.1880  0.0153
 8360W        W24621  14.347   5.442   0.979 -0.2369  0.0756  0.1522
 8361W        W24622   6.666  13.775  15.731  0.4939  0.2286 -0.0903
 8362W        W24623   0.108  13.323   2.865  0.2000 -0.1633 -0.0876
 8363W        W24624   9.104  11.015  13.667  0.2153  0.1919  0.2431
 8364W        W24625   3.969   1.553  14.118 -0.0908 -0.3204 -0.3279
 8365W        W24626   2.867  14.829  15.076 -0.0267 -0.3198  0.3041
 8366W        W24627   5.755   9.424   1.467  0.0906 -0.2116 -0.1589
 8367W        W24628  14.099   8.292  16.100 -0.1193  0.0688 -0.1059
 8368W        W24629   4.633   9.898  14.111 -0.1910 -0.1495 -0.1898
 8369W        W24630   7.222   8.121  15.787  0.0095 -0.1106  0.0068
 8370W        W24631  12.704  11.461   1.915  0.0996 -0.0507 -0.2920
 8371W        W24632  16.666  11.082   1.784 -0.1046  0.0587 -0.0568
 8372W        W24633   2.340   6.791  15.821 -0.0200 -0.0392 -0.0473
 8373W        W24634   0.557   9.494  16.096 -0.0172  0.0826  0.0181
 8374W        W24635   2.850   0.855   4.441  0.0054 -0.1581  0.3062
 8375W        W24636  17.853  12.180   2.772  0.1540  0.1304 -0.1533
 8376W        W24637  15.188   1.071  13.306 -0.2466  0.1058  0.0173
 8377W        W24638  13.220  12.757   0.838  0.3267 -0.0260  0.1197
 8378W        W24639   0.514   4.935   3.929  0.0756 -0.0501 -0.1620
 8379W        W24640  16.961   2.670  16.457 -0.3054 -0.3559 -0.2720
 8380W        W24641  16.081   8.869  14.414 -0.3332 -0.1179  0.0218
 8381W        W24642   2.712  14.546  14.746  0.1024 -0.2933 -0.0568
 8382W        W24643   8.288  12.232  16.711 -0.0296  0.3397 -0.1144
 8383W        W24644   9.697   2.244   0.249 -0.0229  0.2120  0.0709
 8384W        W24645  14.272   4.627   4.857  0.2652 -0.0527  0.0048
 8385W        W24646   2.629  15.119  14.152 -0.0825  0.0163  0.0472
 8386W        W24647   2.683  13.196   3.409 -0.1270 -0.0057  0.2215
 8387W        W24648   3.909   6.363  15.042  0.0799 -0.1802  0.0895
 8388W        W24649   8.015  13.106   3.372 -0.1271 -0.1444  0.0257
 8389W        W24650  15.630   3.283   0.659 -0.1646  0.3012  0.2834
 8390W        W24651  15.779  11.489   3.476  0.3272 -0.0466  0.1825
 8391W        W24652   7.616  12.123   2.439  0.1340  0.2112 -0.1752
 8392W        W24653   8.252   5.977  13.892  0.0474  0.1246  0.1308
 8393W        W24654  17.391  16.725   0.369 -0.1045 -0.0957  0.0734
 8394W        W24655   9.940   1.927  15.041 -0.0223  0.1736 -0.1870
 8395W        W24656  15.417   9.497  13.754 -0.0861 -0.0013  0.0661
 8396W        W24657  11.635   4.223  13.264 -0.2539  0.0346  0.0866
 8397W        W24658  12.097   2.233   2.024 -0.0121 -0.0908  0.0240
 8398W        W24659  13.497   0.161   2.373  0.1493  0.0284  0.0462
 8399W        W24660   0.672   2.334   1.685  0.0381  0.3110 -0.1148
 8400W        W24661   8.793   4.971  14.543 -0.0273 -0.1694  0.0080
 8401W        W24662  11.369  14.480   1.114  0.3479 -0.0295  0.0090
 8402W        W24663   5.328   7.148  16.270 -0.0804 -0.2132  0.0698
 8403W        W24664  16.260   5.598   1.470 -0.1879 -0.0937 -0.1807
 8404W        W24665   3.177  17.408   1.697  0.3480  0.1027 -0.2879
 8405W        W24666   3.427   2.508  16.177  0.1005 -0.3362 -0.2395
 8406W        W24667  12.737  11.777  14.967  0.1631 -0.0525 -0.0500
 8407W        W24668   4.656  14.588   5.010  0.0225 -0.0306  0.0910
 8408W        W24669  17.301   1.861   2.250 -0.4852  0.1648  0.2060
 8409W        W24670  12.743  16.654   3.473  0.1034  0.2090 -0.1298
 8410W        W24671  17.539   9.481   5.266 -0.1173 -0.2643  0.1178
 8411W        W24672  13.153   5.144   3.739 -0.2221 -0.0576  0.0308
 8412W        W24673   4.883   2.131   5.284  0.2775  0.2774  0.0696
 8413W        W24674  11.743   5.319  12.065  0.1607  0.0798 -0.0949
 8414W        W24675   4.159  17.508   1.032 -0.2093  0.0385  0.1410
 8415W        W24676   1.640  11.222   3.441  0.0644  0.0956 -0.0605
 8416W        W24677  14.273   6.738  15.338 -0.2033  0.1644 -0.2103
 8417W        W24678   1.385   2.614  16.967  0.0132 -0.1605 -0.0953
 8418W        W24679  16.046  10.722  16.595  0.2670  0.0050 -0.0944
 8419W        W24680  16.379  16.899  16.954  0.2142  0.1644 -0.1343
 8420W        W24681  16.293   3.633  14.604  0.0989  0.1621  0.1297
 8421W        W24682   6.880  16.827  13.141 -0.2567 -0.1653 -0.0145
 8422W        W24683   1.572  17.722   1.934 -0.2028 -0.0121 -0.0545
 8423W        W24684   0.569  13.734   1.115  0.1455 -0.1435 -0.2119
 8424W        W24685   7.129  12.607   5.041  0.2842  0.1202 -0.1188
 8425W        W24686  14.336   9.239  12.773  0.4788 -0.0365 -0.0665
 8426W        W24687  12.206   0.503  15.437 -0.0168 -0.1654  0.3194
 8427W        W24688   3.655   0.053   0.337 -0.1585 -0.0593  0.2242
 8428W        W24689   9.750  16.845   3.349  0.1542 -0.1549  0.4095
 8429W        W24690   5.178  17.699   5.475 -0.0676  0.2814  0.2028
 8430W        W24691  10.213   6.418   2.258 -0.3033 -0.1331 -0.0301
 8431W        W24692   6.314  10.102   0.976 -0.0033 -0.1329 -0.1214
 8432W        W24693  15.493  14.518   3.271  0.1158  0.1615 -0.0402
 8433W        W24694   5.659   6.069   4.110 -0.0676 -0.0172  0.0029
 8434W        W24695   5.434  13.172   5.673  0.1206 -0.3396  0.0401
 8435W        W24696  15.839  17.733  13.116  0.1262  0.0024  0.2452
 8436W        W24697   8.870   7.626   3.088  0.2441 -0.0761  0.1093
 8437W        W24698  12.660   0.155  11.886 -0.1294 -0.2165  0.1201
 8438W        W24699   5.692  13.811   1.437 -0.2862 -0.2609 -0.0967
 8439W        W24700  14.422   7.038   2.157 -0.0490 -0.1407 -0.0008
 8440W        W24701   9.819   9.878   4.219  0.0069  0.2997 -0.0205
 8441W        W24702  14.148   9.236   0.315  0.0639  0.1938 -0.1017
 8442W        W24703   2.905   6.800   4.321 -0.1609  0.0410  0.0300
 8443W        W24704  14.533   3.379  15.330  0.1685  0.0143 -0.2881
 8444W        W24705  13.889  14.896   1.461 -0.0364  0.1968  0.0624
 8445W        W24706  11.129   6.557   5.999 -0.1406  0.1053 -0.1006
 8446W        W24707   7.545  11.640   3.208  0.3591  0.0783  0.1122
 8447W        W24708   9.538   3.426  14.005 -0.3449 -0.1929  0.0311
 8448W        W24709  10.256  10.765   3.014  0.0083  0.2700  0.2928
 8449W        W24710  17.358   6.703  15.072 -0.2269  0.2319 -0.1993
 8450W        W24711   2.311   6.028  13.712  0.0935  0.0959 -0.0096
 8451W        W24712   2.918   6.844  16.644  0.3146  0.2135 -0.0111
 8452W        W24713   2.159  15.907   1.197  0.0594 -0.1007  0.0487
 8453W        W24714   2.062   8.392   3.480  0.4005  0.0372  0.0032
 8454W        W24715  15.328   9.518   3.263  0.3313  0.2012 -0.0355
 8455W        W24716   1.424  14.386  14.347 -0.0154 -0.0317 -0.2902
 8456W        W24717   4.046  16.131  13.979  0.2154  0.0165 -0.2533
 8457W        W24718  14.388   9.825  16.666  0.0677  0.3483  0.1635
 8458W        W24719  15.866  15.512   2.850 -0.0379 -0.1159  0.1001
 8459W        W24720   9.119   6.015   0.756 -0.2017  0.2585  0.0139
 8460W        W24721  11.695   7.603   4.114 -0.1310  0.0808 -0.1117
 8461W        W24722   4.000   4.572   2.137 -0.0054  0.0752 -0.1758
 8462W        W24723   1.108   8.541   5.119  0.2731  0.1266 -0.0005
 8463W        W24724  14.389  15.476   3.671  0.2612 -0.0081 -0.3023
 8464W        W24725  15.629  10.912  16.946  0.0682 -0.0207  0.2101
 8465W        W24726  11.738  13.185  15.111 -0.4375  0.0895  0.1022
 8466W        W24727  11.309   9.853  12.441  0.3811 -0.1712 -0.0021
 8467W        W24728   7.919  14.551  15.589 -0.0432  0.1609  0.3016
 8468W        W24729   1.311   3.302   1.855  0.1221 -0.0213  0.0893
 8469W        W24730   5.322  15.744  12.958  0.0330 -0.0672  0.0309
 8470W        W24731  13.521  14.932   4.358 -0.1847  0.2824 -0.0605
 8471W        W24732  10.088  15.491  11.431 -0.1013  0.0085 -0.4329
 8472W        W24733   2.255   8.045  11.894  0.1098 -0.0626 -0.2547
 8473W        W24734   5.814   9.938  13.443 -0.3746  0.0266  0.0494
 8474W        W24735   5.418  16.456   2.288  0.1041  0.3217  0.0194
 8475W        W24736   5.519   0.334   1.542 -0.0722  0.2350 -0.1067
 8476W        W24737   0.885  10.701   3.367  0.0795  0.0982 -0.0818
 8477W        W24738   5.415  10.434   6.416 -0.1742 -0.0296 -0.2483
 8478W        W24739   7.706   7.442   1.091 -0.0711 -0.0396  0.0622
 8479W        W24740   9.810   3.028  13.027 -0.0390  0.1806 -0.0079
 8480W        W24741  17.290   3.826  12.144  0.1110  0.0641  0.0210
 8481W        W24742   3.660   9.234  15.139 -0.1343 -0.2382  0.1695
 8482W        W24743  15.492  16.347  16.235  0.0221 -0.1485 -0.2170
 8483W        W24744  10.264  11.398  12.754 -0.3641  0.2835 -0.1202
 8484W        W24745   5.920  13.719   2.660  0.1476 -0.1952  0.0081
 8485W        W24746   1.001  16.885   1.780 -0.1439  0.0509 -0.1014
 8486W        W24747   4.533   1.925  16.898 -0.1188  0.0407 -0.0134
 8487W        W24748   2.041  15.386   4.874 -0.0081 -0.4021 -0.1056
 8488W        W24749   9.944  16.930   2.720 -0.4442 -0.1187 -0.0133
 8489W        W24750  10.766   6.121   4.161 -0.1932 -0.0702  0.1912
 8490W        W24751   4.834   2.511  15.973  0.1577 -0.6481 -0.1254
 8491W        W24752   9.162  12.435  16.181  0.0503 -0.0836  0.1283
 8492W        W24753   0.538  11.631   1.717 -0.5482 -0.0664 -0.0199
 8493W        W24754   6.293   5.132   0.122 -0.1303 -0.1443  0.0686
 8494W        W24755  11.828   7.310  13.655  0.2289  0.2877  0.2295
 8495W        W24756  16.004   3.394   3.165 -0.0271 -0.0064  0.2455
 8496W        W24757   2.879  16.856  11.544  0.2097 -0.1385 -0.1652
 8497W        W24758  12.690   6.106  11.916 -0.1302  0.3649  0.0609
 8498W        W24759   1.335   9.160   4.313 -0.0869  0.1856 -0.0770
 8499W        W24760   7.331   4.896  16.119 -0.1851  0.0768 -0.1378
 8500W        W24761  14.152  15.067  16.227 -0.0327  0.2278 -0.1823
 8501W        W24762   0.300   8.168   2.149  0.2100 -0.2307  0.2742
 8502W        W24763   6.545  15.010  15.910 -0.1152 -0.0664  0.0117
 8503W        W24764  14.269   1.681  12.938 -0.1475 -0.2739  0.0917
 8504W        W24765   1.654   8.019   0.430 -0.0629  0.0783 -0.0338
 8505W        W24766  10.163   4.185  16.212  0.0431 -0.0635 -0.0509
 8506W        W24767  12.168   8.100  15.023  0.0066 -0.0191 -0.1584
 8507W        W24768   1.851   4.821   4.014 -0.0208 -0.3262  0.0629
 8508W        W24769   4.284  14.870  15.371  0.2076 -0.0571  0.1846
 8509W        W24770  16.556   8.368  13.171 -0.0630 -0.4087  0.1029
 8510W        W24771   6.171   2.835   4.598 -0.0479  0.0793  0.0847
 8511W        W24772  16.713   3.242   5.888  0.0958 -0.1142  0.0567
 8512W        W24773   9.912   8.686   0.289 -0.4099 -0.0208  0.1226
 8513W        W24774  10.993  11.322  14.150  0.2345 -0.2978 -0.1445
 8514W        W24775   5.324   5.831   2.877  0.1453 -0.0582 -0.1524
 8515W        W24776   8.166   1.814   3.932  0.2499 -0.0527 -0.0815
 8516W        W24777   3.404   8.116  12.362 -0.0197  0.2299  0.0343
 8517W        W24778   2.526   2.769  11.418 -0.0724 -0.1014 -0.0733
 8518W        W24779  10.448  14.372  13.900 -0.0812  0.1460 -0.0675
 8519W        W24780   7.367   6.266  15.315 -0.2042 -0.0628  0.0658
 8520W        W24781   6.400  14.519  16.199  0.1827 -0.0942 -0.2988
 8521W        W24782  12.889  16.271  12.215 -0.0869 -0.0232 -0.0754
 8522W        W24783   9.614  11.794   3.439  0.2522  0.3727  0.0799
 8523W        W24784   1.845  11.244   1.914 -0.0476  0.0287  0.2068
 8524W        W24785  16.970  10.757  15.134  0.4481 -0.2759  0.4959
 8525W        W24786   1.559   8.213   3.465  0.2714 -0.0065 -0.0157
 8526W        W24787   1.078  10.498  14.761  0.3050  0.1164  0.1313
 8527W        W24788  10.510  14.774  11.433 -0.4191  0.1612 -0.1287
 8528W        W24789   0.263  16.361  13.332  0.0524 -0.0847  0.0580
 8529W        W24790  16.427  15.380   3.605 -0.3169 -0.2262 -0.0730
 8530W        W24791  10.734  10.921  14.338  0.4179  0.0827  0.2305
 8531W        W24792   1.002   2.270  16.204 -0.0910  0.0815 -0.0030
 8532W        W24793   9.070   6.111  11.737 -0.1612 -0.1876  0.3733
 8533W        W24794  13.087   6.460   5.278  0.3746  0.0685  0.0638
 8534W        W24795   6.296  15.085  15.370  0.1883  0.0704  0.0079
 8535W        W24796  16.357  17.441   2.026 -0.1229 -0.0505 -0.1998
 8536W        W24797   4.348   5.997   3.242  0.0574  0.0053 -0.1603
 8537W        W24798  14.797   0.394  16.651 -0.0167 -0.0912  0.2282
 8538W        W24799   9.892   4.683  12.743 -0.1605  0.1007 -0.0248
 8539W        W24800   6.479   2.101  15.886 -0.1759 -0.0607 -0.2333
 8540W        W24801   5.750   2.032  16.897  0.0715 -0.3235 -0.0298
 8541W        W24802   2.386  17.529  16.075  0.0286  0.0750  0.2201
 8542W        W24803   9.847   2.370  15.878 -0.2894 -0.2033 -0.0612
 8543W        W24804   1.620   6.129  15.787 -0.0236 -0.0761  0.1695
 8544W        W24805   8.139   2.484   5.733 -0.0951  0.0120 -0.1515
 8545W        W24806   7.329   8.250   2.477 -0.6040  0.4610  0.0565
 8546W        W24807  16.044  15.768  13.214  0.0614 -0.0037  0.0445
 8547W        W24808  10.047   1.482  11.028 -0.1024  0.2741 -0.1485
 8548W        W24809   1.295   6.917   3.679  0.1450  0.2159 -0.1395
 8549W        W24810   7.055  13.628   2.150  0.0561 -0.2037  0.0911
 8550W        W24811   6.844  15.467   0.746 -0.1506 -0.3640  0.1479
 8551W        W24812  13.176   2.490  15.683 -0.0874 -0.0924 -0.0281
 8552W        W24813  15.424   2.661   3.555  0.0306  0.0041  0.1991
 8553W        W24814   8.536  16.001   3.907  0.1663  0.2082  0.0961
 8554W        W24815  10.166   3.989   5.675  0.2200 -0.2181  0.1967
 8555W        W24816   4.887   1.861  12.467  0.1175  0.2365 -0.0308
 8556W        W24817   8.589   4.757  15.528  0.1417  0.0050 -0.4549
 8557W        W24818  17.062   0.518  15.746 -0.0292 -0.1816  0.0296
 8558W        W24819   0.736   6.336   1.898  0.2425 -0.0208 -0.2203
 8559W        W24820   4.788  16.933   5.377  0.0374 -0.0427  0.1111
 8560W        W24821   4.004  12.243   1.783  0.2051  0.0587  0.2204
 8561W        W24822  13.802   1.146   2.351  0.2229 -0.0401 -0.1837
 8562W        W24823   4.867   6.415   0.366 -0.1103 -0.0721 -0.2797
 8563W        W24824   4.402   5.741   5.291  0.1601  0.2107  0.1588
 8564W        W24825   7.042  14.535  12.925 -0.1495 -0.1589 -0.0284
 8565W        W24826  17.341   4.728   1.907  0.2207 -0.0437 -0.3026
 8566W        W24827   8.064   3.539   0.887 -0.0179  0.2371  0.1753
 8567W        W24828   7.931  10.402   3.102 -0.1178  0.0489  0.1828
 8568W        W24829  13.281  13.190   4.467 -0.0314 -0.1964  0.2516
 8569W        W24830  15.290  12.225   0.976  0.4237 -0.0976  0.2193
 8570W        W24831   1.685   7.194   0.534  0.2407 -0.0704  0.1751
 8571W        W24832   3.251   7.128   4.493  0.0652  0.1218  0.0559
 8572W        W24833  11.608   9.368  13.669  0.2037  0.1825  0.0184
 8573W        W24834  13.744  13.157  11.464  0.0503  0.0030  0.2742
 8574W        W24835  11.758  12.395  16.017  0.0706 -0.0614 -0.3225
 8575W        W24836   5.157   7.675  16.227 -0.2772 -0.0935  0.1710
 8576W        W24837  14.748   9.233  14.414  0.1558 -0.0205 -0.1045
 8577W        W24838   9.187   7.248   0.541  0.0152 -0.1605  0.0603
 8578W        W24839  17.264   7.838   2.523  0.2390 -0.1657  0.2216
 8579W        W24840   5.455  12.091   3.780 -0.1626 -0.1871 -0.0077
 8580W        W24841  14.155  13.882  16.509  0.2731  0.1048  0.2110
 8581W        W24842   7.383   2.862   2.913 -0.0373  0.1298  0.5337
 8582W        W24843   0.053  16.206   2.924 -0.0869  0.0638 -0.1552
 8583W        W24844  14.868   3.868  11.995  0.1309  0.1343 -0.2795
 8584W        W24845   7.064   3.025  12.482 -0.3501  0.0887 -0.0730
 8585W        W24846   3.356   4.364  14.813  0.0521 -0.0279 -0.1171
 8586W        W24847  16.223   0.168  13.953  0.0147  0.2011 -0.0349
 8587W        W24848  10.318  16.651  11.968  0.1016  0.1933  0.0815
 8588W        W24849  13.013   0.395  16.080 -0.0053  0.0200 -0.1740
 8589W        W24850  15.252  10.224   0.261 -0.0611  0.1842  0.0245
 8590W        W24851  10.164   2.129   0.841  0.0795  0.0559  0.0315
 8591W        W24852  14.027   7.601  15.491  0.0894 -0.0073  0.0866
 8592W        W24853  10.345  13.078   5.022 -0.1411 -0.0620 -0.1964
 8593W        W24854   3.762   4.698  12.480  0.1301 -0.2817  0.0348
 8594W        W24855   1.528  10.761   1.798 -0.1323 -0.3999 -0.3036
 8595W        W24856   4.364  17.689  11.571 -0.0294  0.2618  0.2632
 8596W        W24857  12.576   5.937   3.010 -0.0347 -0.0972  0.4433
 8597W        W24858   8.786   9.501   3.395 -0.3847 -0.0145  0.1428
 8598W        W24859   2.524   3.396  12.138  0.1040 -0.4073 -0.0476
 8599W        W24860   4.358   2.414   2.444  0.2601 -0.1231  0.1786
 8600W        W24861   3.175   4.686  16.449  0.0399 -0.1734 -0.1052
 8601W        W24862   4.824  17.346  13.943 -0.1981 -0.0144 -0.0259
 8602W        W24863   9.493  16.284  15.670  0.0501  0.0704  0.3303
 8603W        W24864   4.663   2.559  12.998  0.2184  0.1984 -0.2233
 8604W        W24865   4.373   1.462  15.375 -0.0809  0.1718  0.1074
 8605W        W24866  10.466   2.199  14.291 -0.0700 -0.2613 -0.0859
 8606W        W24867  12.421  15.484  15.442  0.3250  0.0862 -0.0628
 8607W        W24868   1.051  10.407  16.500 -0.2536 -0.3069 -0.0360
 8608W        W24869   4.036   1.791   1.519 -0.3126 -0.1190  0.0130
 8609W        W24870   2.518  11.666   5.563  0.0362 -0.1633 -0.0939
 8610W        W24871   5.686  13.397  16.832 -0.2488  0.2837  0.0076
 8611W        W24872   5.717  16.040   1.815  0.0160 -0.3499 -0.0935
 8612W        W24873  12.319   3.487  12.316 -0.1737 -0.1018 -0.0266
 8613W        W24874  16.742   8.764  14.443  0.1214  0.0124 -0.0357
 8614W        W24875  13.626   2.805   1.148  0.0729  0.1159  0.2513
 8615W        W24876   3.134  14.401  11.685 -0.1820  0.2386 -0.3115
 8616W        W24877   0.367  15.332   2.642 -0.0526  0.3782  0.3144
 8617W        W24878  11.658   0.064  13.233  0.0247 -0.1648 -0.2260
 8618W        W24879  17.009  15.643   5.089 -0.1277  0.1125  0.1063
 8619W        W24880   1.444  17.691  12.355 -0.1616 -0.1666 -0.2276
 8620W        W24881  12.278   9.613  14.887  0.0604  0.0648  0.3294
 8621W        W24882  16.777   6.695  16.170 -0.0318  0.1582  0.2433
 8622W        W24883   7.179   5.681  12.866 -0.2001 -0.0211  0.1819
 8623W        W24884   0.894   0.646   5.721 -0.1132 -0.0015 -0.0134
 8624W        W24885  13.580  10.821  14.224 -0.2441 -0.0034  0.0226
 8625W        W24886   6.121  15.327   3.720  0.0235  0.0497  0.2546
 8626W        W24887  16.189   2.843   3.811  0.2064  0.0663  0.0365
 8627W        W24888   6.999  14.700   3.589  0.0362 -0.1345  0.1360
 8628W        W24889   7.505  14.316   2.630 -0.1373  0.1344  0.3285
 8629W        W24890  13.178  14.515  15.403  0.0797 -0.1660  0.0720
 8630W        W24891  14.926   6.950  13.257  0.1983  0.0270  0.2225
 8631W        W24892  10.920  10.474   5.478 -0.0567  0.0333  0.0913
 8632W        W24893  13.484  12.715   4.324 -0.3833  0.3596  0.0428
 8633W        W24894   8.456   3.396   5.941  0.5236  0.3437  0.2736
 8634W        W24895   3.080  13.135   4.705  0.2165 -0.3215  0.0730
 8635W        W24896   1.934  16.372   5.013  0.2798 -0.1951 -0.3541
 8636W        W24897  15.225   6.015   3.713 -0.0666 -0.0155 -0.0841
 8637W        W24898  12.096   9.729  11.567  0.0097  0.1666  0.1853
 8638W        W24899  15.679  13.353   5.016 -0.0280 -0.0025 -0.1692
 8639W        W24900   0.965   8.279   3.413 -0.0607  0.0841  0.3021
 8640W        W24901  12.733   1.831   4.908 -0.1180  0.0969  0.0275
 8641W        W24902   2.694   5.265   1.203 -0.1244  0.0349 -0.2018
 8642W        W24903   7.982   2.053   3.183  0.1609  0.0705  0.1304
 8643W        W24904   4.691   3.235   2.694 -0.3989  0.0732  0.0716
 8644W        W24905   1.400  15.384   1.452  0.1104 -0.0934  0.2460
 8645W        W24906  11.871   6.243  14.540  0.0291 -0.1599 -0.0809
 8646W        W24907   0.566   9.379   1.113  0.1005  0.0924  0.0677
 8647W        W24908  13.210  10.361   2.126  0.0155  0.1660 -0.0108
 8648W        W24909   5.332  15.664   1.574 -0.3764 -0.3685  0.2930
 8649W        W24910   6.214   0.006  11.912 -0.2038 -0.0508  0.2250
 8650W        W24911  13.844   9.337  14.455 -0.2071 -0.3494 -0.1766
 8651W        W24912   7.439   0.292  16.921  0.1437 -0.2014 -0.0080
 8652W        W24913   5.777  12.863   3.180 -0.0715  0.0362  0.0691
 8653W        W24914   6.365   3.193  16.028 -0.2533  0.0608 -0.0052
 8654W        W24915   5.315   9.798  13.193 -0.1311 -0.0235 -0.2736
 8655W        W24916  16.056   6.327  14.113 -0.3632  0.1096  0.2857
 8656W        W24917   3.857   9.831   4.318  0.0442  0.1536 -0.0910
 8657W        W24918   9.960  13.081   3.096 -0.1679 -0.0261  0.1590
 8658W        W24919  16.062  10.814   0.208 -0.0416 -0.0011  0.0631
 8659W        W24920  12.896   4.412  14.133 -0.1596 -0.0886 -0.0419
 8660W        W24921   1.030   4.198   2.248  0.1684 -0.1683  0.0042
 8661W        W24922  11.723   3.394   4.703  0.2224 -0.0977  0.1404
 8662W        W24923   6.564  11.410  15.779  0.0791  0.0014 -0.0454
 8663W        W24924   0.341  10.731  14.290 -0.1001 -0.1934  0.0295
 8664W        W24925   4.577   6.131   2.249 -0.0547 -0.0141  0.2010
 8665W        W24926   4.959  13.957  12.041 -0.1652 -0.2594  0.1269
 8666W        W24927   5.369   8.315  13.314 -0.1175 -0.0439  0.1589
 8667W        W24928   7.935   7.573  13.162  0.0599  0.2632 -0.0410
 8668W        W24929  15.754   6.739  13.439 -0.1250  0.0880  0.0596
 8669W        W24930  11.009   3.062  11.800 -0.1515  0.0225  0.1000
 8670W        W24931  10.137  14.784   0.454  0.2609  0.1583 -0.4823
 8671W        W24932  16.990  10.552   2.413 -0.1386  0.0778 -0.2718
 8672W        W24933   7.149   9.079   4.080  0.1679 -0.3508 -0.0670
 8673W        W24934  11.944   5.457   0.921  0.1598  0.1172 -0.1202
 8674W        W24935   5.249  12.477  14.495  0.2243 -0.1535 -0.0110
 8675W        W24936  12.578   7.173  14.081 -0.0332 -0.0308  0.2460
 8676W        W24937   5.422   1.347  13.743  0.0460 -0.0373  0.2977
 8677W        W24938  16.350   7.559   4.636 -0.0875  0.2674  0.0006
 8678W        W24939  13.273  16.527   6.297  0.0068  0.2360 -0.0998
 8679W        W24940   9.643   9.773   0.249 -0.0476 -0.0291 -0.0932
 8680W        W24941  12.016   8.306   5.575  0.3322 -0.4543  0.1901
 8681W        W24942  15.289   1.985   2.946 -0.0491  0.1655 -0.2173
 8682W        W24943   3.755   1.987  13.941 -0.0699  0.0808 -0.0757
 8683W        W24944  10.160   8.202  16.488  0.1727 -0.0347  0.0245
 8684W        W24945  15.526  11.597   3.866 -0.0111 -0.1844 -0.1859
 8685W        W24946   1.220   0.774  15.209 -0.0405 -0.3042  0.1083
 8686W        W24947  12.744  10.317   3.449 -0.0724 -0.1469 -0.1632
 8687W        W24948  11.053   5.529  12.899  0.1650  0.2794  0.0326
 8688W        W24949  11.580  11.737  14.905  0.1262 -0.3661  0.2308
 8689W        W24950  10.868  17.673   4.538 -0.2208  0.0575 -0.1338
 8690W        W24951   8.939   5.434  13.195  0.2584 -0.3324  0.1332
 8691W        W24952   0.153   9.636   0.834 -0.0426  0.0036 -0.0969
 8692W        W24953   6.292  12.263  16.072  0.3725 -0.0988  0.1716
 8693W        W24954  13.941   1.246   4.994  0.0985  0.0398  0.0684
 8694W        W24955  13.571  15.148  12.341  0.2171 -0.0181 -0.1603
 8695W        W24956   2.585   1.267  16.796  0.2531 -0.4420 -0.0866
 8696W        W24957   9.446  13.351   4.810 -0.0351  0.0948  0.1069
 8697W        W24958   1.333   0.092  13.659  0.1631  0.3820 -0.0787
 8698W        W24959   1.340   5.859   4.398 -0.1285  0.0095  0.2840
 8699W        W24960  14.023   2.548   2.822  0.1153 -0.0751 -0.1112
 8700W        W24961   0.187   8.957  16.287 -0.3861  0.0293 -0.2817
 8701W        W24962  12.103   1.253  16.653 -0.0623 -0.2453  0.1394
 8702W        W24963  14.124  17.419   1.497 -0.1522 -0.1653 -0.2343
 8703W        W24964   5.932   6.043  14.090 -0.1389  0.3131  0.0676
 8704W        W24965  10.245  10.757   0.375  0.2041  0.0715 -0.1367
 8705W        W24966  17.561   4.983  16.895 -0.1532 -0.2292 -0.1091
 8706W        W24967  10.177  12.390  12.770 -0.4991  0.3349  0.0438
 8707W        W24968   9.180  17.142   0.450  0.2291  0.1356  0.4498
 8708W        W24969  10.930  12.774  16.293 -0.0218  0.0843 -0.1814
 8709W        W24970  14.848   1.404   0.873  0.3338  0.1281  0.0895
 8710W        W24971  14.373  17.469  15.696 -0.1124 -0.2407  0.5640
 8711W        W24972   4.022  17.089   1.776 -0.1580 -0.1408  0.1076
 8712W        W24973  10.465   7.711  13.358 -0.2009  0.1645 -0.3861
 8713W        W24974   4.167  13.376   4.316  0.1279 -0.1134 -0.0634
 8714W        W24975   2.639  15.703  14.757  0.0151 -0.1688  0.0111
 8715W        W24976  17.154   3.838  16.203  0.0381  0.0121 -0.0070
 8716W        W24977   5.614   3.603   0.514 -0.1661  0.1050 -0.2908
 8717W        W24978   3.688   2.847  14.463 -0.0935 -0.1012 -0.1921
 8718W        W24979  11.124  13.698  11.940 -0.2706 -0.3698 -0.2011
 8719W        W24980  15.273  14.077   4.102 -0.1813 -0.0092  0.0594
 8720W        W24981  15.202   5.061   5.722 -0.0420 -0.2905 -0.3292
 8721W        W24982  17.642   8.707  16.678 -0.0650 -0.0115  0.0922
 8722W        W24983   0.322   5.081  14.646  0.0346  0.1330  0.1858
 8723W        W24984   8.655   8.036   5.110 -0.1345 -0.0874  0.1001
 8724W        W24985   9.315   0.243   2.474  0.0771  0.0751 -0.0710
 8725W        W24986   0.420   4.629  16.528 -0.0015 -0.1711 -0.3005
 8726W        W24987   0.387   5.158  15.522  0.4108  0.1912 -0.0939
 8727W        W24988   4.744  15.641  11.854  0.2441  0.1279  0.0709
 8728W        W24989   5.722  12.499  13.967 -0.0595  0.1779 -0.1186
 8729W        W24990   9.713  16.063  13.045  0.0212 -0.2932 -0.0996
 8730W        W24991   4.872  15.860   1.599  0.1023  0.1928  0.2442
 8731W        W24992   2.152  10.795   0.945 -0.3649  0.0734 -0.0320
 8732W        W24993  17.766  16.365   4.829  0.0133  0.0050  0.1487
 8733W        W24994   2.318  17.266   4.686 -0.1382  0.1719 -0.4772
 8734W        W24995   4.215  10.038   3.984 -0.1083 -0.2129  0.1408
 8735W        W24996  10.019  13.246  16.857 -0.2149 -0.1423 -0.0368
 8736W        W24997   0.672   5.290   5.746  0.2504  0.1990  0.1653
 8737W        W24998  14.878  11.463  16.016  0.2226 -0.0063 -0.0853
 8738W        W24999   8.189   1.479  14.089 -0.2035 -0.1647 -0.1119
 8739W        W25000   6.990  15.586  12.656  0.0012  0.1585 -0.1918
 8740W        W25001   3.178  16.809   1.841  0.1774 -0.1000 -0.2451
 8741W        W25002  10.178   4.729   0.590 -0.1792 -0.1491 -0.0392
 8742W        W25003   5.661   1.956  11.923  0.0427 -0.0815 -0.2982
 8743W        W25004   2.603  15.494   2.065 -0.2416  0.1487  0.1945
 8744W        W25005   2.535   1.568   5.218 -0.2622 -0.0028 -0.1712
 8745W        W25006  13.006   8.708  12.569 -0.0647 -0.3791  0.0895
 8746W        W25007   1.333  16.437  14.113  0.2703  0.0834  0.1426
 8747W        W25008  11.484   6.339  15.725  0.1447  0.1579 -0.1972
 8748W        W25009  15.088  17.147   3.846 -0.0013 -0.0514  0.0124
 8749W        W25010   3.816  13.491  11.882 -0.0396  0.1360 -0.3457
 8750W        W25011   5.578  15.107   4.472 -0.1454  0.1468  0.2982
 8751W        W25012  17.816  17.322   6.302  0.1600  0.1238 -0.1580
 8752W        W25013   2.717   0.957   5.865 -0.2961  0.0735  0.0791
 8753W        W25014   1.583   1.328  13.144  0.4512 -0.0555  0.2179
 8754W        W25015   6.925   5.219  12.892 -0.1056  0.3100 -0.0324
 8755W        W25016   2.232  10.158   3.544  0.1709  0.1858  0.1928
 8756W        W25017  15.258  13.406  15.458 -0.0903 -0.2048  0.1459
 8757W        W25018   0.358  16.432   2.570 -0.2797 -0.2642 -0.0604
 8758W        W25019   4.994  14.749   3.020 -0.0155 -0.1598 -0.0308
 8759W        W25020   6.119  11.890   4.973  0.0855 -0.1232  0.1902
 8760W        W25021   8.972  11.201   0.463 -0.2464 -0.1133  0.1850
 8761W        W25022  17.611   6.074   2.048 -0.2305  0.5021 -0.3505
 8762W        W25023  12.988   7.363  12.798  0.2225 -0.2158  0.0127
 8763W        W25024   1.049  15.991  12.215  0.0221 -0.2028  0.1481
 8764W        W25025   7.636  14.613  14.447  0.0905 -0.0111  0.1618
 8765W        W25026  16.163  14.468  12.403  0.1175 -0.0242 -0.1644
 8766W        W25027  13.384   0.620  15.710  0.1088  0.2421  0.0501
 8767W        W25028  17.555  13.079  13.447 -0.0334  0.2443 -0.1445
 8768W        W25029  12.787  17.589  12.182 -0.3190  0.2504 -0.1363
 8769W        W25030   8.148   4.580   0.166 -0.0869 -0.2116 -0.1674
 8770W        W25031  17.603  16.502  13.152  0.1068  0.1662  0.1312
 8771W        W25032   4.369  13.753   5.956  0.1724  0.0369  0.0609
 8772W        W25033   4.672   3.486  13.251 -0.2863  0.3283  0.0484
 8773W        W25034   6.112  15.279  11.711  0.0356  0.3065 -0.0306
 8774W        W25035  17.478  15.296   3.390  0.2879  0.0766  0.0953
 8775W        W25036   6.164  12.640   3.537 -0.0255 -0.1085  0.2573
 8776W        W25037   6.969   9.980  16.883 -0.1197  0.0538 -0.2581
 8777W        W25038   4.939   0.691   3.742 -0.1060  0.0086 -0.3479
 8778W        W25039  12.981  11.042   0.461 -0.2804 -0.1415 -0.1190
 8779W        W25040  10.968   2.733   1.052  0.2512  0.0073  0.1590
 8780W        W25041  14.417   7.448   4.660  0.0166  0.0973  0.1414
 8781W        W25042  14.859   1.612  16.034  0.0226 -0.1888 -0.3443
 8782W        W25043   5.745  10.703   0.550 -0.1127  0.1275 -0.5268
 8783W        W25044  16.642  14.719  14.501  0.1989 -0.2864  0.3087
 8784W        W25045  17.844   3.250  13.405  0.1979 -0.2156  0.0947
 8785W        W25046   4.563  13.732   4.031  0.0564 -0.1322  0.0370
 8786W        W25047  16.267   7.399  15.996  0.1677  0.4131 -0.1595
 8787W        W25048   6.182  13.966  15.651  0.1013  0.2749 -0.2813
 8788W        W25049  13.668   7.786   4.195 -0.1314 -0.0174 -0.0076
 8789W        W25050  11.613   7.501  11.868  0.0530 -0.0071  0.0342
 8790W        W25051  16.291   8.888  15.775  0.1045 -0.3413  0.0816
 8791W        W25052  13.622   7.459  15.755  0.3731 -0.1503 -0.2958
 8792W        W25053  13.110   9.050  13.914  0.0694  0.0607 -0.7287
 8793W        W25054   2.810   2.949   3.084  0.1453 -0.0130 -0.4104
 8794W        W25055  16.222   8.359   0.284  0.2809  0.1049  0.1239
 8795W        W25056  11.994  17.503  15.069  0.1470  0.0800 -0.1203
 8796W        W25057  16.035   5.548   3.237 -0.0482 -0.2431  0.0426
 8797W        W25058   4.354  14.134   3.279 -0.3283 -0.1122 -0.0740
 8798W        W25059   2.407  15.744   4.605 -0.0628  0.0794  0.0570
 8799W        W25060   6.744  14.160  13.880 -0.0122 -0.2576  0.1064
 8800W        W25061   8.407  13.976  16.878  0.0959 -0.3097  0.2692
 8801W        W25062  14.649  14.054   2.662 -0.2248 -0.0629 -0.2896
 8802W        W25063   5.034  13.338   5.419  0.0555  0.2071 -0.0482
 8803W        W25064   3.978  10.330  16.328  0.0063  0.0793  0.2784
 8804W        W25065  14.009   8.204   0.444  0.0027 -0.2668 -0.1240
 8805W        W25066   8.107   4.107   5.493  0.1469 -0.2412 -0.0820
 8806W        W25067  16.047  11.523   5.923 -0.1047  0.1260 -0.3314
 8807W        W25068   9.047   0.322  13.326  0.0694 -0.2332 -0.0547
 8808W        W25069   2.361   6.511   1.631 -0.0760 -0.2196 -0.2907
 8809W        W25070  13.309   2.400   2.522 -0.2803  0.1416 -0.1104
 8810W        W25071   9.699  10.197  16.923 -0.0245  0.3106 -0.0657
 8811W        W25072   9.516   9.759  15.515 -0.0234 -0.4129 -0.0819
 8812W        W25073  11.801  12.734   3.095 -0.1431 -0.1013  0.1001
 8813W        W25074   1.499  11.211   0.939 -0.2305 -0.2713  0.2594
 8814W        W25075  11.266  14.779   4.668 -0.1514  0.1914  0.0542
 8815W        W25076   9.795   6.375  12.186  0.0304 -0.3398 -0.1254
 8816W        W25077  17.305  11.236   0.364  0.0314  0.0141 -0.0594
 8817W        W25078   6.127   2.349   3.793 -0.2323  0.2532 -0.1800
 8818W        W25079   0.326  10.031  14.974  0.0443 -0.0053  0.1659
 8819W        W25080   2.939  16.116  15.472  0.0310  0.0609  0.1010
 8820W        W25081   0.132  11.050   4.016 -0.3428  0.1188  0.1871
 8821W        W25082  16.192   5.904  11.875  0.1233  0.0115  0.2569
 8822W        W25083   0.807   8.025  12.883 -0.1847  0.0967 -0.2802
 8823W        W25084   9.961   9.919  15.285 -0.0503  0.0090  0.2099
 8824W        W25085   0.230   8.221  14.294  0.4148 -0.1915 -0.3645
 8825W        W25086  16.087   4.150   5.264 -0.0367  0.3123 -0.3138
 8826W        W25087   5.103  17.586  15.640  0.1295  0.1053  0.0245
 8827W        W25088   7.955   8.570  16.302 -0.0263  0.1525 -0.0628
 8828W        W25089   9.432  11.358   3.680 -0.0460 -0.2156 -0.2192
 8829W        W25090  14.830  16.422   6.016  0.1268 -0.0769  0.0567
 8830W        W25091   2.764  11.867  12.449  0.0091 -0.0522 -0.1840
 8831W        W25092   0.409  11.645   0.679 -0.2453  0.0447  0.1025
 8832W        W25093  16.093   0.728  13.322  0.2728  0.4841 -0.1222
 8833W        W25094   2.868   0.399  14.727 -0.2794 -0.1666  0.1596
 8834W        W25095   2.918   1.212   0.731 -0.2573 -0.1661  0.0419
 8835W        W25096   2.689  12.763  14.482 -0.0003  0.1614  0.2897
 8836W        W25097  15.033   4.492   5.628 -0.0302 -0.0212 -0.1330
 8837W        W25098   1.970  16.218  12.401 -0.0592  0.0772  0.2253
 8838W        W25099   0.748  16.912   5.949  0.2702 -0.1503 -0.1643
 8839W        W25100   6.544   2.712  13.554 -0.1741  0.1863 -0.1704
 8840W        W25101   9.814   9.414  15.369  0.0229  0.0694  0.0229
 8841W        W25102   0.702   2.438  13.430  0.1420 -0.2655 -0.0401
 8842W        W25103   5.305  16.070  15.508  0.2518 -0.0333 -0.0509
 8843W        W25104   1.437   1.659   5.044  0.2313 -0.0587  0.2269
 8844W        W25105   8.886  17.594   0.474 -0.1262 -0.0621  0.1680
 8845W        W25106  14.688   0.764  14.329  0.0887 -0.0758  0.0021
 8846W        W25107   5.326  10.168  13.620 -0.1644  0.1334 -0.1485
 8847W        W25108  12.941  17.022   1.423  0.0241  0.1546 -0.0099
 8848W        W25109   9.287  16.729   4.458 -0.1738 -0.1432  0.3021
 8849W        W25110   5.921   6.667   5.487 -0.0913  0.0164 -0.2248
 8850W        W25111   0.170   4.139  12.310 -0.3431 -0.0087 -0.1050
 8851W        W25112   7.973   1.567   3.526  0.0606 -0.1451  0.2540
 8852W        W25113   1.745   3.826   0.156  0.1147 -0.1144  0.0415
 8853W        W25114   8.369  17.445  11.995  0.2238  0.0100 -0.2156
 8854W        W25115   2.726   7.191   4.585 -0.0983  0.1739 -0.0767
 8855W        W25116   3.726   0.939  12.924 -0.1622  0.2087 -0.1770
 8856W        W25117  15.569  10.633  12.414  0.1333 -0.1516 -0.0597
 8857W        W25118  13.784  12.967   4.040  0.0409 -0.0499 -0.3609
 8858W        W25119  14.772   7.808  14.570  0.1520 -0.3087  0.0617
 8859W        W25120  10.997   9.891   0.030 -0.1544 -0.1732 -0.0398
 8860W        W25121  12.078  13.816   1.173  0.2817 -0.2746  0.3919
 8861W        W25122  14.750  11.848  16.303  0.1123 -0.2338 -0.1664
 8862W        W25123  14.718   8.502  15.062 -0.0520 -0.2324  0.0122
 8863W        W25124   3.583  16.892   1.450  0.1148 -0.1734  0.1768
 8864W        W25125  15.593   6.097   2.176 -0.3179  0.1462  0.0482
 8865W        W25126   4.643   4.776   3.647  0.0277 -0.0641 -0.1885
 8866W        W25127   3.418  16.007   0.003 -0.0116  0.2989 -0.3532
 8867W        W25128  11.627  14.099  12.583  0.4330  0.1536 -0.0913
 8868W        W25129  16.632   7.074   3.914 -0.3813  0.1134  0.2622
 8869W        W25130   1.265   6.154  14.587  0.1697  0.0891 -0.0057
 8870W        W25131   0.060  14.366   5.012 -0.0651 -0.0627  0.1779
 8871W        W25132  14.403  17.021  14.786 -0.1066  0.0388  0.2028
 8872W        W25133   2.808  15.289   1.243  0.1111 -0.0440  0.1960
 8873W        W25134   2.726  13.638  13.979 -0.0790  0.1896  0.1084
 8874W        W25135  11.217   5.080   4.647 -0.1602 -0.1493 -0.0930
 8875W        W25136   3.948   8.950  16.594  0.1000  0.1188 -0.0121
 8876W        W25137  15.415   3.620   4.112 -0.0398  0.1201  0.4083
 8877W        W25138   1.139  14.068  12.446 -0.0294 -0.2000  0.1366
 8878W        W25139   8.646  13.264   2.481 -0.0735 -0.1076 -0.1452
 8879W        W25140   9.920  10.881  15.669  0.0139 -0.2945  0.0971
 8880W        W25141   2.859   5.408   2.605  0.0163 -0.0166  0.0467
 8881W        W25142  15.716   5.754  15.861 -0.1881  0.2724  0.2407
 8882W        W25143   5.640   6.230  15.756 -0.0244  0.0144 -0.1475
 8883W        W25144  10.012   7.420   3.043 -0.0411  0.1438 -0.1446
 8884W        W25145  13.279  10.782   3.004 -0.2809  0.1807 -0.3778
 8885W        W25146   3.223   8.802   5.523  0.2146  0.5668  0.0402
 8886W        W25147   4.786  14.978   3.421 -0.2145 -0.0088 -0.0829
 8887W        W25148  15.954   9.033  16.249  0.1997 -0.1924  0.0388
 8888W        W25149  16.512   4.113  12.339 -0.0577  0.0986 -0.0084
 8889W        W25150  15.243  12.550  15.888  0.2972 -0.0840 -0.1264
 8890W        W25151  14.166   6.767  12.236  0.0775  0.0641 -0.0584
 8891W        W25152   2.996  13.209   0.176  0.0450  0.3022 -0.2761
 8892W        W25153   6.881  11.171   3.251 -0.1863 -0.1667  0.1859
 8893W        W25154  13.592   9.902   2.403  0.1369  0.1290 -0.2003
 8894W        W25155   8.831   7.780   1.272 -0.2609  0.0083 -0.3006
 8895W        W25156   0.317   7.779   5.225 -0.2221  0.2688 -0.0481
 8896W        W25157  14.230   7.336   3.810  0.1379 -0.1353 -0.3319
 8897W        W25158  13.210   2.946   2.500 -0.2512  0.0741 -0.1504
 8898W        W25159  10.414   7.758   5.226  0.1616 -0.1555 -0.0545
 8899W        W25160  13.085  17.451  14.834  0.0246  0.0470 -0.1254
 8900W        W25161  16.034  10.518  16.137  0.2113  0.4239  0.0379
 8901W        W25162  13.230  11.979  12.455  0.0050  0.0738  0.3917
 8902W        W25163   7.187   1.828   2.410 -0.0721 -0.0762  0.2781
 8903W        W25164   9.165   5.955  12.281  0.0070 -0.2120  0.0130
 8904W        W25165  12.556   6.676   0.768  0.4360 -0.2353  0.1478
 8905W        W25166   7.321   3.402   4.683 -0.1582  0.1047 -0.1202
 8906W        W25167  10.042  12.679   2.537  0.2588 -0.0645 -0.3903
 8907W        W25168   8.768   5.600   3.002  0.0029 -0.0839  0.0312
 8908W        W25169  14.051   0.195  12.684 -0.0271 -0.0099 -0.2854
 8909W        W25170   7.675  15.578  14.660 -0.2379 -0.1523  0.0676
 8910W        W25171   7.617  16.379  13.611  0.0117 -0.0110 -0.1983
 8911W        W25172   9.658  13.397  13.682 -0.0167  0.0621 -0.1050
 8912W        W25173  17.382  12.949   3.290 -0.1759  0.4654  0.0785
 8913W        W25174   0.620   8.443  15.034 -0.3494 -0.2666 -0.0461
 8914W        W25175  10.366   8.278  15.980  0.0820  0.0896  0.0060
 8915W        W25176   0.878  17.192   5.569 -0.2392 -0.2544 -0.1268
 8916W        W25177   7.490  11.138   2.972 -0.0041  0.1638 -0.0586
 8917W        W25178   4.577   9.443  11.874 -0.2499 -0.0653 -0.3286
 8918W        W25179   3.456   0.544   5.619  0.1078  0.1049 -0.1127
 8919W        W25180   0.757  12.091   1.521 -0.0637  0.2465  0.4457
 8920W        W25181  17.014   0.048  11.806 -0.0891 -0.0647  0.2786
 8921W        W25182   3.705   7.410  12.899 -0.0799  0.0563 -0.2620
 8922W        W25183  10.686  13.678  12.275 -0.2910 -0.3769 -0.2393
 8923W        W25184  10.630   3.256  15.178 -0.1717  0.1889 -0.0439
 8924W        W25185  17.160  11.972   1.472 -0.2420 -0.0356 -0.3612
 8925W        W25186  13.826  15.612  14.929 -0.2051 -0.1161  0.1233
 8926W        W25187   5.350  12.451   4.210 -0.0786  0.1237  0.1451
 8927W        W25188   0.605  17.471   3.688  0.4086 -0.1595  0.0839
 8928W        W25189  14.867  16.753  12.486  0.1023 -0.0300 -0.3044
 8929W        W25190   7.301  13.054  16.471  0.1941  0.0405 -0.0078
 8930W        W25191   1.954  12.653   4.087  0.0140 -0.0704  0.0187
 8931W        W25192   5.633   9.110  13.748 -0.1682  0.2695  0.1292
 8932W        W25193   7.749   9.465   0.494  0.1934  0.0137 -0.0497
 8933W        W25194   7.053  11.600   2.232 -0.3185  0.0368  0.0579
 8934W        W25195   1.324  13.550   2.011  0.0355 -0.0288  0.0688
 8935W        W25196   3.107  10.571  13.353 -0.4323  0.0976  0.0283
 8936W        W25197   8.249   9.366  13.611 -0.1040  0.2937  0.0607
 8937W        W25198   2.617   8.502   3.504 -0.1867  0.0797  0.0967
 8938W        W25199   7.550   5.823   1.853 -0.0876 -0.0508 -0.1493
 8939W        W25200   7.515  16.556  11.341  0.1783  0.4097 -0.0653
 8940W        W25201   5.836   6.350   3.679  0.3251 -0.2378  0.2535
 8941W        W25202  15.089  10.476  15.834 -0.4324  0.2309  0.0255
 8942W        W25203   2.337  17.571   0.768 -0.0957  0.3176 -0.0225
 8943W        W25204   3.585   8.820   0.924 -0.1388  0.2762 -0.0060
 8944W        W25205  10.389   1.369  11.557  0.2305  0.3300 -0.1276
 8945W        W25206   6.876  12.537  14.010  0.1469 -0.1073  0.1869
 8946W        W25207  11.104   1.249  16.063 -0.1393 -0.2854  0.2220
 8947W        W25208   5.382  15.265  14.756  0.0223  0.0816 -0.0495
 8948W        W25209   5.272  11.628  13.495  0.1869 -0.0040  0.1024
 8949W        W25210   6.830   4.699   5.818  0.0722  0.1400 -0.1086
 8950W        W25211  16.777   6.497   5.274 -0.0670 -0.2183 -0.0600
 8951W        W25212   1.744   0.697   3.466  0.1586  0.0591  0.0024
 8952W        W25213  15.346   6.345  14.771 -0.1451 -0.1731  0.1668
 8953W        W25214   0.166  11.463  12.533 -0.1495 -0.2173  0.3245
 8954W        W25215  10.238   3.808  15.836 -0.0630  0.1210  0.0225
 8955W        W25216   5.258  15.982   2.047  0.2412 -0.1809  0.2651
 8956W        W25217   6.405  13.368  16.539 -0.0756  0.0364  0.3829
 8957W        W25218   0.970   5.582   4.052  0.0215  0.1160 -0.1029
 8958W        W25219   1.197  15.614  13.151 -0.0786  0.1015 -0.0474
 8959W        W25220   7.777  14.325   5.017  0.1994 -0.1956 -0.0821
 8960W        W25221   1.630   3.359   0.321 -0.0780  0.0944  0.0130
 8961W        W25222   9.883  17.415   2.358 -0.0025  0.0900  0.0566
 8962W        W25223  14.955   2.890   0.114  0.0271 -0.0309 -0.0122
 8963W        W25224  17.827  11.595   3.333 -0.0125  0.3525 -0.0199
 8964W        W25225  16.112  11.496   2.741 -0.2293 -0.0820  0.0160
 8965W        W25226   5.891   7.644   2.025 -0.2389 -0.0874 -0.1263
 8966W        W25227   9.354  11.065  15.357 -0.0241  0.0226  0.1631
 8967W        W25228   5.890   9.566   4.549 -0.1141  0.1911  0.0729
 8968W        W25229  12.701  14.031   2.819 -0.1373 -0.2856 -0.1103
 8969W        W25230   9.663   5.746   2.363 -0.0522  0.1476  0.0575
 8970W        W25231  10.789  11.655  11.955 -0.0560  0.4365 -0.1036
 8971W        W25232   9.905   9.208   3.416  0.0758 -0.0833 -0.1004
 8972W        W25233   4.839   5.879   3.015 -0.1510  0.0173 -0.0660
 8973W        W25234   7.282   8.516   4.772 -0.0354 -0.0675 -0.1171
 8974W        W25235  12.771   5.010   2.305  0.3726 -0.0203  0.0830
 8975W        W25236   2.151  17.813   1.672  0.0843  0.2173  0.0624
 8976W        W25237  17.218   6.145  12.346  0.1352  0.0499  0.1368
 8977W        W25238  10.844   8.681  12.868  0.0152  0.0128  0.0268
 8978W        W25239  15.850   0.443  16.363  0.1108 -0.1065  0.1433
 8979W        W25240   2.618   8.270   4.762  0.2399 -0.0339 -0.0020
 8980W        W25241  16.714   6.155   0.376  0.0121  0.2146  0.0077
 8981W        W25242   4.859   5.174   5.441 -0.1873 -0.0169 -0.1296
 8982W        W25243   4.681  10.826  13.094  0.1399 -0.2254  0.0667
 8983W        W25244   9.208  15.220   3.638  0.2432  0.2024  0.1855
 8984W        W25245   0.800  12.371  14.279  0.0246  0.1999 -0.1986
 8985W        W25246  11.310  17.637   6.608  0.0604  0.2597  0.2049
 8986W        W25247   7.525  14.313  13.045 -0.2626  0.1336  0.0752
 8987W        W25248  17.735   4.571  12.228  0.4507  0.2256  0.1005
 8988W        W25249  11.425  12.571  16.373  0.1105 -0.2528 -0.1434
 8989W        W25250   1.839   8.482  13.445  0.0545  0.3131 -0.1583
 8990W        W25251   1.207   7.186  14.845 -0.3595  0.1604 -0.1481
 8991W        W25252   2.991   7.443  16.876  0.2578 -0.1903 -0.0264
 8992W        W25253   0.134  15.911   4.853 -0.0636 -0.2079  0.1528
 8993W        W25254  17.629  10.311   4.604  0.0046 -0.1692 -0.2436
 8994W        W25255  11.566   9.837   5.219  0.1952 -0.1497  0.0021
 8995W        W25256  11.630  17.078  10.716  0.1741  0.1051 -0.1287
 8996W        W25257   8.685  11.743  16.295  0.2791  0.2987  0.0488
 8997W        W25258   7.272  15.179   4.525  0.0568 -0.2321  0.3162
 8998W        W25259  13.780  10.975   3.962  0.0396  0.3753  0.1910
 8999W        W25260   0.284  11.389   0.091  0.0923  0.1278  0.1935
 9000W        W25261   5.168   0.118   0.127 -0.0956  0.0478 -0.1279
 9001W        W25262   7.064  12.295   3.961 -0.1277 -0.4043 -0.0235
 9002W        W25263   3.501  12.640  16.557 -0.2019  0.1095 -0.1380
 9003W        W25264   3.180  12.749  12.809  0.0686 -0.1093  0.3858
 9004W        W25265  16.823   5.518   3.684  0.0211  0.2257 -0.2081
 9005W        W25266  17.279   5.671   2.357 -0.1760 -0.1015  0.0638
 9006W        W25267  14.175   2.185   3.096  0.3456  0.1198  0.2242
 9007W        W25268  13.878   2.159  12.328 -0.0726 -0.0064 -0.2445
 9008W        W25269   4.664  14.588  13.333  0.1036  0.2080  0.2579
 9009W        W25270  12.207   9.730   2.873  0.1058 -0.1137  0.2681
 9010W        W25271  10.714   7.985   5.599  0.3410 -0.0495 -0.0736
 9011W        W25272  11.792  10.393  14.382 -0.1384 -0.4059  0.0884
 9012W        W25273  12.939  16.181  16.948  0.0612  0.2268 -0.2086
 9013W        W25274   3.223   3.888   3.040 -0.2415 -0.0556  0.2029
 9014W        W25275   2.721   4.663   3.054 -0.2781  0.1399  0.1612
 9015W        W25276  13.745  11.049  15.559  0.0870  0.1484  0.2010
 9016W        W25277  12.567   1.239  14.095  0.1937 -0.0310 -0.2003
 9017W        W25278   1.658   1.100  14.510  0.0691 -0.0936 -0.1894
 9018W        W25279  11.887   7.867  16.551 -0.2536  0.0803  0.0892
 9019W        W25280  17.352  17.239   0.375  0.0522  0.0044 -0.1172
 9020W        W25281  13.533  14.160   5.704 -0.0832  0.0240  0.3676
 9021W        W25282   9.995  15.989  15.735 -0.1049  0.1185 -0.1430
 9022W        W25283  10.763   0.290   5.467 -0.0433  0.0007 -0.2176
 9023W        W25284  14.603  12.161   4.209  0.1722 -0.0680 -0.0831
 9024W        W25285  13.762   8.046  14.690 -0.0547 -0.1390  0.0494
 9025W        W25286  16.606  12.953  16.142 -0.1054  0.1611 -0.3356
 9026W        W25287  17.206  13.175  13.782 -0.2719  0.1674  0.2929
 9027W        W25288  12.251   9.216   3.962  0.2903  0.1926  0.0442
 9028W        W25289  14.390   1.410   1.168 -0.0740  0.0139  0.3863
 9029W        W25290   6.726  17.135   1.120  0.1184  0.1348  0.1312
 9030W        W25291  17.519   4.241   0.203 -0.1026 -0.0896 -0.1754
 9031W        W25292  14.068   6.731   2.461  0.1238  0.3978  0.1099
 9032W        W25293   8.282   7.095   5.629  0.0838  0.0209 -0.0434
 9033W        W25294  12.981  13.994  14.456  0.1607  0.2722 -0.1819
 9034W        W25295   1.891   7.264  13.665  0.2824 -0.0058 -0.0257
 9035W        W25296  15.277   9.572   0.703  0.1579 -0.0509 -0.3190
 9036W        W25297   2.031  12.103   1.628 -0.0897 -0.1293  0.3952
 9037W        W25298   7.320   7.405   2.601 -0.0832  0.0065  0.0957
 9038W        W25299   9.294  13.007  16.089  0.1209  0.3853 -0.0419
 9039W        W25300  12.346  10.129  12.404  0.1987 -0.1546  0.0629
 9040W        W25301  13.637  16.108  16.098  0.0707 -0.0238  0.1988
 9041W        W25302  11.198   4.134  12.684  0.0133 -0.0587  0.0977
 9042W        W25303  14.325  17.741   3.712 -0.0213  0.1351  0.2278
 9043W        W25304   5.718  16.510   5.239  0.0555  0.0433 -0.0802
 9044W        W25305   3.568   0.111  15.867  0.1011 -0.1185  0.2186
 9045W        W25306   7.093  15.767   1.169  0.0255  0.2209 -0.0754
 9046W        W25307   6.455  15.528  15.937 -0.3123 -0.0078 -0.0369
 9047W        W25308   4.661   7.408  13.535  0.3531  0.5516  0.2343
 9048W        W25309  17.641   0.572  15.602  0.0718 -0.5283 -0.1263
 9049W        W25310  14.195   6.116   4.607 -0.1289  0.0851  0.2708
 9050W        W25311   2.919  13.303   0.676 -0.1001 -0.2014  0.0390
 9051W        W25312  10.392   0.896   2.338 -0.1544 -0.0568  0.0588
 9052W        W25313  14.498  17.769  14.654  0.1998  0.1285 -0.0618
 9053W        W25314   5.916   8.817   0.277 -0.4001 -0.0888  0.0152
 9054W        W25315   9.080   1.855  13.054  0.0387  0.2245 -0.0587
 9055W        W25316   3.615  12.222   0.024  0.0179 -0.1473  0.0126
 9056W        W25317  15.991   5.199   0.488 -0.0238 -0.3432  0.2039
 9057W        W25318  14.690   0.952  11.141  0.0307 -0.1673  0.1109
 9058W        W25319   7.723   4.103   5.899 -0.0041  0.1759 -0.0813
 9059W        W25320  10.953  12.027   4.110 -0.0720  0.0151 -0.1539
 9060W        W25321  15.021   9.879   2.506 -0.1557 -0.2286 -0.1050
 9061W        W25322  16.317   3.157   5.497  0.0015 -0.0131  0.1146
 9062W        W25323  16.729   8.820  16.051 -0.1234  0.0793 -0.1338
 9063W        W25324   8.398   6.488  12.405  0.1739  0.3082 -0.0831
 9064W        W25325  13.746   9.517   1.001  0.0927  0.3074 -0.1098
 9065W        W25326   3.443   5.509  16.312 -0.1426  0.2458 -0.0874
 9066W        W25327  14.318   7.793   3.665 -0.0355  0.2264 -0.0739
 9067W        W25328   1.269  16.187   4.525 -0.2957 -0.1162 -0.0151
 9068W        W25329   0.374   4.329   3.039  0.1934 -0.0779  0.0485
 9069W        W25330  15.798  11.805  14.495  0.0101  0.2484  0.0111
 9070W        W25331  16.931   2.571   5.605 -0.3175 -0.2121  0.0058
 9071W        W25332   3.865   1.094   5.075 -0.0056 -0.0499 -0.0533
 9072W        W25333   9.573  16.484   5.309 -0.2279 -0.2542  0.2046
 9073W        W25334   2.366  10.905  15.763  0.1041  0.0311  0.1587
 9074W        W25335  15.385   8.207  14.859  0.2647 -0.1101 -0.1808
 9075W        W25336  10.155   8.835  13.458 -0.2074 -0.0595 -0.5023
 9076W        W25337   9.767   6.735   0.702 -0.1692 -0.0583  0.0113
 9077W        W25338   5.059  17.117   4.377 -0.1295 -0.1759 -0.1596
 9078W        W25339   9.977   2.218   3.742  0.1583  0.3753  0.1891
 9079W        W25340   6.434   0.259   1.460 -0.2296 -0.0776  0.1458
 9080W        W25341   1.264   6.586  15.013 -0.1163 -0.0756 -0.1728
 9081W        W25342   0.767  13.139  12.516 -0.0274  0.0136  0.0450
 9082W        W25343   2.057   0.526   0.843 -0.0941  0.0149 -0.0605
 9083W        W25344   0.651   6.694  12.486 -0.4761  0.0571  0.0482
 9084W        W25345  13.337   0.962   2.126 -0.1182  0.1688  0.0881
 9085W        W25346  16.844  16.033   1.842 -0.1344 -0.1351 -0.0938
 9086W        W25347   4.961  10.585  13.914 -0.1130 -0.0384  0.2125
 9087W        W25348  12.948   0.325  15.483  0.1565 -0.1172  0.2756
 9088W        W25349   4.622   6.167   1.696  0.1949 -0.1187 -0.0361
 9089W        W25350   4.976  11.890   0.802  0.0826 -0.1021  0.1152
 9090W        W25351   3.963  15.295   3.562 -0.0650  0.0711 -0.2153
 9091W        W25352   7.140  13.494  13.585 -0.1148 -0.1952 -0.4034
 9092W        W25353  17.264  16.457   5.549  0.1988  0.1719 -0.1548
 9093W        W25354   2.533  11.008   4.286  0.0625 -0.0132  0.0140
 9094W        W25355   9.227  15.079   4.373  0.2273  0.3137 -0.4836
 9095W        W25356   3.821   0.963  14.652 -0.1591 -0.1081 -0.2050
 9096W        W25357   2.970   7.979   0.399 -0.2703  0.0548  0.1719
 9097W        W25358  15.986   1.528   3.201 -0.3289  0.1966 -0.3070
 9098W        W25359  12.189  15.848  13.718 -0.0974 -0.1599 -0.0604
 9099W        W25360   1.728   4.892  16.056 -0.0898 -0.1616 -0.2397
 9100W        W25361   9.331  15.985  11.398 -0.1088  0.1876  0.1912
 9101W        W25362  13.703   6.351  11.811  0.2265  0.2240 -0.0989
 9102W        W25363  15.361   5.728  13.041  0.3068  0.1453  0.0285
 9103W        W25364  15.039   6.439   4.897  0.1158  0.5199 -0.1136
 9104W        W25365  15.977   2.644  16.951  0.0328 -0.0472 -0.0950
 9105W        W25366  12.105  15.982   3.878 -0.0171  0.3332  0.3071
 9106W        W25367  16.612   8.149  15.433 -0.1463  0.1045 -0.0164
 9107W        W25368  10.738   9.308   3.057  0.3891  0.0939  0.3646
 9108W        W25369  12.582   7.561   5.329 -0.0950 -0.0177 -0.2359
 9109W        W25370   0.388   9.530   4.682  0.1326  0.1378 -0.0215
 9110W        W25371  14.291   8.643  15.301  0.2224 -0.0145 -0.1060
 9111W        W25372  16.876  17.085  13.952  0.1574  0.0499 -0.2173
 9112W        W25373  10.742  11.549   4.115  0.0983  0.0520  0.0429
 9113W        W25374  12.634   3.201  13.153  0.1468  0.0742  0.0459
 9114W        W25375  17.516  15.949  16.010  0.0509 -0.0293  0.0365
 9115W        W25376   6.524   2.439   0.595 -0.1160 -0.0604 -0.0269
 9116W        W25377   7.103  12.432  11.920 -0.0416  0.1406 -0.1017
 9117W        W25378   2.248   6.404  14.571 -0.0187  0.1133  0.0821
 9118W        W25379  13.873   9.748  15.472 -0.2224 -0.0158  0.0538
 9119W        W25380   9.933   7.167   0.200 -0.0919  0.2852 -0.0293
 9120W        W25381  10.659  12.122  16.766 -0.3404 -0.1000  0.0099
 9121W        W25382   6.042   7.914   5.509  0.1994  0.0212  0.2918
 9122W        W25383  11.865  15.132  13.419 -0.0579 -0.2609  0.0788
 9123W        W25384   5.005  10.264  11.435  0.0884  0.1645  0.1672
 9124W        W25385   6.589  16.636  12.272  0.0717  0.1181  0.2742
 9125W        W25386   1.868  10.064  13.851  0.3292  0.3749  0.0389
 9126W        W25387  13.446  14.709   1.200  0.0478  0.0886 -0.0751
 9127W        W25388   8.020  15.928  11.483 -0.0310  0.0093  0.0271
 9128W        W25389  14.114   4.884   3.567 -0.0662 -0.0652 -0.2175
 9129W        W25390   3.961  14.758   0.055 -0.0454 -0.0703  0.1235
 9130W        W25391   0.432  12.472   1.824 -0.4618  0.1329 -0.2986
 9131W        W25392  10.621   6.625   3.856 -0.0669 -0.0019  0.0198
 9132W        W25393  12.640  16.407   2.723  0.1013 -0.1455  0.2438
 9133W        W25394   5.571  10.678   1.945 -0.2254  0.0770 -0.1694
 9134W        W25395   6.909  11.704   1.662 -0.1351  0.2164 -0.1429
 9135W        W25396  16.790  15.196   6.299 -0.0720  0.2535  0.0157
 9136W        W25397  14.516  12.766   3.004  0.0592  0.0910  0.0829
 9137W        W25398   3.528   9.637   2.975  0.0704  0.2016  0.1964
 9138W        W25399   3.187   5.935   3.164 -0.3509 -0.1471  0.0284
 9139W        W25400   9.035   7.472  12.070  0.0284 -0.0245  0.1485
 9140W        W25401   0.214  17.785   4.944 -0.0123  0.2870  0.1258
 9141W        W25402   4.608  17.021   2.602  0.1242  0.1353  0.0283
 9142W        W25403  14.769  10.245  16.229  0.3013  0.0710 -0.1580
 9143W        W25404  11.239   8.755   2.325  0.2388  0.0406 -0.1965
 9144W        W25405  12.679   0.149   5.528 -0.1597  0.2749 -0.2785
 9145W        W25406  13.384  15.205   1.979 -0.0092 -0.3664 -0.0322
 9146W        W25407  11.484  12.106  11.624 -0.0672 -0.0865  0.0555
 9147W        W25408   4.684   5.466   0.484  0.0136 -0.1600  0.2591
 9148W        W25409   2.826   3.884  16.286  0.1249 -0.0198 -0.2531
 9149W        W25410  10.484   0.646   0.518 -0.0449 -0.0077 -0.0262
 9150W        W25411   9.160  13.286  13.858  0.1334 -0.1215  0.1937
 9151W        W25412   1.908   2.132   1.086 -0.0430  0.3592 -0.0066
 9152W        W25413   8.934  13.192   1.900 -0.2777  0.0333 -0.3474
 9153W        W25414   8.006   5.877   5.642  0.0099  0.1958 -0.1466
 9154W        W25415   5.595   9.493  15.157 -0.1818  0.2090  0.1741
 9155W        W25416   4.074   3.676   1.587 -0.0201  0.0758  0.0734
 9156W        W25417  14.155   8.856   4.997  0.2574 -0.1907 -0.2845
 9157W        W25418   8.276  11.422  13.185  0.2001  0.2008  0.1234
 9158W        W25419   2.309  10.811  12.313 -0.2580  0.0068 -0.0864
 9159W        W25420  15.099  12.325   0.466  0.0147  0.0045 -0.1635
 9160W        W25421   5.702   8.707   3.773  0.0416 -0.2383  0.1512
 9161W        W25422   1.950   5.275   3.200  0.2137  0.0236 -0.1724
 9162W        W25423  16.413   8.690  14.091 -0.2498  0.2922 -0.0039
 9163W        W25424   3.281   8.740   0.532 -0.0574 -0.0230 -0.0989
 9164W        W25425   5.798   9.391  14.705 -0.4751  0.1397  0.1423
 9165W        W25426   9.317  11.343  14.579 -0.0114  0.2203 -0.0673
 9166W        W25427  14.800  12.456  15.673  0.1845  0.0603 -0.0636
 9167W        W25428   7.016  17.291   6.485 -0.0679 -0.3787 -0.4387
 9168W        W25429  12.823   6.961   5.143 -0.1880  0.0361  0.0651
 9169W        W25430  15.747   8.689   3.438 -0.0049 -0.0178  0.0593
 9170W        W25431  15.604  14.478   5.092  0.1644 -0.0854  0.0273
 9171W        W25432   8.397  14.205   2.111 -0.2451  0.1319 -0.1084
 9172W        W25433  13.188   6.373  16.328  0.0635  0.1193  0.0105
 9173W        W25434   3.227  17.156  15.550  0.1212 -0.1360  0.1842
 9174W        W25435   3.999  13.369  14.560  0.3735  0.1348  0.2594
 9175W        W25436   8.868   9.313  15.360  0.1670 -0.1057 -0.2877
 9176W        W25437  13.146  17.410   3.464  0.0102  0.5580 -0.1668
 9177W        W25438   6.301   8.360  15.782 -0.0393  0.2753 -0.0360
 9178W        W25439  15.957   9.167  11.667  0.3767 -0.0344 -0.1564
 9179W        W25440  11.763  15.946   3.120  0.1357 -0.2317  0.1442
 9180W        W25441   6.268  12.445  12.013  0.0935  0.1187 -0.1815
 9181W        W25442   2.747   0.172  12.830  0.2022  0.1087 -0.1519
 9182W        W25443  11.885   2.297   1.023  0.0425 -0.1012 -0.1200
 9183W        W25444  13.098  16.592  12.469  0.0883  0.1116 -0.1020
 9184W        W25445   2.611   8.433  11.900 -0.1466  0.1606  0.1801
 9185W        W25446  16.038   7.809   5.223  0.1414 -0.0263  0.0744
 9186W        W25447   0.994   0.771  14.327  0.0800  0.0155  0.1670
 9187W        W25448   7.593  13.326  15.842 -0.1696 -0.2145  0.0020
 9188W        W25449   5.820  16.719   0.625 -0.2922  0.0620 -0.0123
 9189W        W25450  16.829   2.258   5.154  0.0527 -0.2888 -0.1457
 9190W        W25451  17.842  15.267   5.429 -0.1263 -0.1547  0.0854
 9191W        W25452   2.424   5.590  13.903  0.1626  0.0973  0.0003
 9192W        W25453  16.966   0.383   3.160  0.0703 -0.1856 -0.1986
 9193W        W25454   7.039   0.995  11.497  0.0567 -0.5489  0.2676
 9194W        W25455   7.697   1.610   0.550 -0.0978 -0.0820  0.1667
 9195W        W25456  15.642  16.276   3.022  0.1372 -0.1767 -0.1581
 9196W        W25457  11.894  10.007   3.822  0.3625 -0.0693 -0.0149
 9197W        W25458   1.642   0.080  14.749 -0.3096  0.2219  0.2757
 9198W        W25459   2.957  14.672   3.531  0.0211  0.1202  0.2201
 9199W        W25460  14.384  13.637   2.922  0.0005  0.1269 -0.1937
 9200W        W25461  15.971   0.772   3.260 -0.1089 -0.0767  0.0694
 9201W        W25462   3.956  11.752  11.825  0.0387  0.0638  0.0380
 9202W        W25463  16.334  10.533   4.232 -0.0834  0.1437  0.1320
 9203W        W25464   4.518   1.383   5.608 -0.2339 -0.1693 -0.0261
 9204W        W25465   2.265  14.939   4.993 -0.0296 -0.1705 -0.0941
 9205W        W25466  17.490   8.307   0.892  0.1262 -0.1324 -0.2555
 9206W        W25467  11.885   3.066  15.231  0.2220  0.2288  0.4969
 9207W        W25468  12.723  11.516   0.585  0.2796 -0.0819 -0.2069
 9208W        W25469   5.132   2.060  14.123  0.2355  0.2703  0.3668
 9209W        W25470  13.220  15.942   4.866 -0.0724  0.1255 -0.0943
 9210W        W25471  11.039   2.502  16.800  0.1336 -0.0037 -0.3501
 9211W        W25472   8.146   5.793  13.362  0.2002 -0.0460 -0.0988
 9212W        W25473  11.479   1.575  13.254 -0.2538 -0.1503 -0.1461
 9213W        W25474   5.309   0.938   3.985  0.3442  0.4435  0.0602
 9214W        W25475   8.542   6.627   2.210 -0.1913  0.2025 -0.1884
 9215W        W25476  16.794  16.197  14.620  0.4421 -0.0645  0.0040
 9216W        W25477   8.445   2.998   3.089 -0.0688 -0.0052 -0.1245
 9217W        W25478   8.865  10.728   2.053 -0.2056 -0.2091 -0.3780
 9218W        W25479  16.730   0.199  14.007  0.3925 -0.2567 -0.0375
 9219W        W25480   9.701  10.756   0.677  0.0815  0.0665  0.1540
 9220W        W25481  12.913   2.155  15.878  0.3770  0.0610 -0.0557
 9221W        W25482   7.692  16.356  15.893 -0.3813  0.0907  0.2104
 9222W        W25483  10.177   4.395  13.616  0.4895  0.2062  0.1549
 9223W        W25484  10.947  16.503   2.134  0.0743  0.1154  0.2896
 9224W        W25485  13.200  12.760   1.727 -0.0617 -0.1874 -0.5446
 9225W        W25486   6.040  12.256  15.250 -0.1954  0.3492 -0.0258
 9226W        W25487  15.355  14.897  12.099  0.0911 -0.1093  0.1357
 9227W        W25488   4.373  16.773  13.220  0.2519  0.0780  0.2455
 9228W        W25489  15.564   3.292  14.660 -0.0455 -0.1500 -0.2967
 9229W        W25490  13.573   3.900   3.369  0.0920  0.1386 -0.1230
 9230W        W25491   8.063  16.698  16.705 -0.2297  0.2926 -0.0713
 9231W        W25492  17.861  13.180   5.086 -0.0365  0.2124 -0.0096
 9232W        W25493  10.566   4.731  12.351 -0.0174  0.1574 -0.0264
 9233W        W25494   3.307   2.797  14.139  0.0556  0.0643  0.0691
 9234W        W25495  13.098   7.731  14.043  0.0240 -0.2671 -0.2557
 9235W        W25496   5.353   7.781  15.136  0.1116 -0.2435  0.1549
 9236W        W25497   2.092   4.578  14.162 -0.1196 -0.2372  0.0205
 9237W        W25498   3.545  14.136   5.781  0.2212 -0.2000 -0.0556
 9238W        W25499   3.311  13.391   3.871 -0.1627  0.0881 -0.0892
 9239W        W25500   9.941   5.545  13.273  0.1692 -0.3335 -0.1177
 9240W        W25501   5.169   3.609  11.944 -0.2947  0.0340  0.1458
 9241W        W25502   6.037   6.736  14.954  0.0629  0.0882 -0.1294
 9242W        W25503  15.138  17.603   1.234  0.1855  0.0527  0.0737
 9243W        W25504   6.278   8.686   1.922 -0.2912 -0.1891 -0.1340
 9244W        W25505   5.932   3.077  16.626  0.1427 -0.1617  0.4574
 9245W        W25506  14.698   2.685   5.054 -0.1342  0.0027  0.0060
 9246W        W25507   1.285   8.583   3.124  0.1395 -0.0714 -0.0385
 9247W        W25508   8.095   5.741   0.039  0.0345 -0.0095 -0.1545
 9248W        W25509   5.423   3.008  16.866 -0.2040 -0.0128  0.1217
 9249W        W25510  15.512   4.097  16.547  0.1791 -0.3751 -0.0545
 9250W        W25511   4.800  14.076  14.963  0.1152  0.2339  0.0818
 9251W        W25512   4.994   3.097  16.067 -0.2791  0.1360 -0.0166
 9252W        W25513   4.735   9.827  15.178  0.1108  0.1367  0.1344
 9253W        W25514   9.483   3.916   0.821  0.0848  0.1600 -0.2380
 9254W        W25515   5.999   4.089  13.351  0.0465  0.0027 -0.1480
 9255W        W25516   3.194  11.323  15.289 -0.0497 -0.3272 -0.0571
 9256W        W25517   4.298  11.905   2.669  0.0583  0.0678  0.1885
 9257W        W25518  14.140   2.764   5.107  0.0795 -0.0455 -0.1370
 9258W        W25519  11.284  13.405  13.773  0.0927 -0.0621  0.0493
 9259W        W25520  11.234   2.656   4.425  0.0568 -0.2259 -0.2573
 9260W        W25521   2.185   3.268  13.597 -0.0350 -0.3447  0.0316
 9261W        W25522  16.960  16.127  12.198 -0.1754 -0.1889 -0.1045
 9262W        W25523   4.156   2.108   5.454  0.0450 -0.2045  0.1509
 9263W        W25524   6.479   8.403   1.035  0.5303 -0.1555 -0.2191
 9264W        W25525  16.452  13.638   3.595  0.1195 -0.1694  0.1676
 9265W        W25526  10.493   7.243   5.209 -0.0422  0.0534  0.1202
 9266W        W25527  13.876   9.830   5.470 -0.1108  0.0602 -0.0037
 9267W        W25528   2.271  11.825   1.295 -0.1036 -0.2725  0.3327
 9268W        W25529  15.178   5.307   0.712  0.0952 -0.0994  0.1005
 9269W        W25530  12.391  14.658  12.814  0.0476 -0.1248  0.1009
 9270W        W25531  13.713  12.945  15.241 -0.1001  0.1673  0.0050
 9271W        W25532   5.748   7.872   4.291  0.2440 -0.1690 -0.1017
 9272W        W25533   9.944  12.697  11.510 -0.3721 -0.2296  0.0810
 9273W        W25534   5.437   5.829   2.302 -0.2980 -0.1379 -0.0257
 9274W        W25535   3.077   7.438  15.994  0.4832  0.3404  0.0109
 9275W        W25536   6.261  10.576   0.756 -0.1026  0.0091  0.0029
 9276W        W25537  13.080   0.018  13.176 -0.0838  0.2560 -0.0319
 9277W        W25538   7.099   4.042   0.913  0.2136  0.0495  0.1600
 9278W        W25539  11.478  12.705  14.149 -0.0154  0.0483 -0.2062
 9279W        W25540   8.246  11.497  16.087  0.1238  0.1148  0.0537
 9280W        W25541   3.616  16.468   0.195 -0.0096 -0.1148  0.2270
 9281W        W25542   2.644  13.908   3.810  0.0653 -0.4210  0.3730
 9282W        W25543  11.238   4.288  14.643  0.0294  0.4717  0.0375
 9283W        W25544  12.087   4.022   3.620  0.3848  0.0396  0.2681
 9284W        W25545  14.900   7.705   4.545 -0.0639 -0.0912  0.0653
 9285W        W25546   9.565   6.783  11.210  0.2178  0.3933  0.2941
 9286W        W25547  14.022   9.043   2.886 -0.1406 -0.2227 -0.0347
 9287W        W25548   9.681   7.287   6.409  0.0788 -0.0221 -0.0534
 9288W        W25549   5.464   2.073   1.826  0.4199 -0.3094  0.2548
 9289W        W25550   5.496   5.326   2.123 -0.2231 -0.0041 -0.1648
 9290W        W25551   6.945  15.371  11.891  0.0595 -0.4094  0.0527
 9291W        W25552   8.354   4.991  11.562 -0.1830 -0.0835 -0.0266
 9292W        W25553   6.527   8.731   3.026 -0.1483  0.0005 -0.0968
 9293W        W25554  10.007  15.158  15.603  0.1387 -0.2485  0.0970
 9294W        W25555   8.340  12.353  14.739 -0.0438  0.0656  0.1307
 9295W        W25556  13.472   9.123  16.174 -0.1856 -0.0595 -0.0563
 9296W        W25557   4.163  11.360   1.946 -0.0068 -0.1703  0.2427
 9297W        W25558  16.497   7.283  16.768  0.0979 -0.1916 -0.2787
 9298W        W25559  10.626  10.086   5.317 -0.1152  0.0665 -0.1310
 9299W        W25560  15.729   6.635   4.617  0.0389  0.0549 -0.2141
 9300W        W25561   0.733  17.284   1.907  0.1489 -0.0502 -0.0575
 9301W        W25562   2.074  16.424   1.139  0.0333 -0.0081 -0.1157
 9302W        W25563   0.316  11.163  13.818 -0.1835  0.1307 -0.2701
 9303W        W25564  17.834   2.559   2.006 -0.0247  0.1617 -0.0543
 9304W        W25565   4.244  11.540  13.510 -0.1178  0.0349 -0.0972
 9305W        W25566   1.772  10.853   4.853 -0.1910 -0.0081  0.0645
 9306W        W25567   4.766  13.242   0.113 -0.1846 -0.3947  0.0733
 9307W        W25568   6.994   4.091  15.490 -0.1672  0.0219  0.2509
 9308W        W25569  15.834   9.533   4.248  0.2757 -0.1178 -0.4880
 9309W        W25570   6.998   8.156   0.111 -0.0184 -0.4299  0.1831
 9310W        W25571  11.942   2.020   4.085  0.1892 -0.0519 -0.0705
 9311W        W25572  13.540   9.005  14.163 -0.1452  0.1399 -0.2779
 9312W        W25573   1.023   3.778  13.025 -0.0807  0.0385 -0.2190
 9313W        W25574  15.729  11.852   6.188 -0.0028  0.0081 -0.0291
 9314W        W25575   0.903  14.973  13.728  0.1080  0.0617 -0.0759
 9315W        W25576  12.065   7.838   3.269 -0.5770  0.3001 -0.0417
 9316W        W25577  14.139  17.560   4.108 -0.1252  0.0436 -0.2997
 9317W        W25578   3.550  13.696   4.173  0.0829 -0.1320 -0.0645
 9318W        W25579  13.753   5.287   6.765  0.1010  0.2520  0.0349
 9319W        W25580  17.765  17.260   3.632 -0.0594 -0.1199  0.0223
 9320W        W25581   9.065   9.402   5.215  0.0616 -0.1875 -0.1070
 9321W        W25582   6.790   3.270  15.643 -0.0129 -0.0933  0.1344
 9322W        W25583   8.486   1.821   4.311 -0.0621 -0.0315  0.1464
 9323W        W25584   8.688  12.581   0.641 -0.1311 -0.1577 -0.0855
 9324W        W25585   5.121  13.140  13.872 -0.0652 -0.0278  0.1728
 9325W        W25586  10.309  17.827  13.748 -0.1153 -0.0741  0.2508
 9326W        W25587   6.283  14.356  14.348  0.1193  0.2861  0.2497
 9327W        W25588   4.761   4.801   2.818  0.1931 -0.1102  0.3618
 9328W        W25589  17.322   3.564   0.454  0.0777 -0.2173  0.1646
 9329W        W25590   8.116   5.904   5.122 -0.0407 -0.0310  0.0991
 9330W        W25591  15.975  17.562   3.257 -0.2519 -0.1958  0.1185
 9331W        W25592   3.110  15.603  13.867  0.0344  0.0137  0.2606
 9332W        W25593   1.620  11.322   1.451 -0.0785 -0.0116  0.0232
 9333W        W25594  14.257   4.279  12.398 -0.4881  0.0414  0.0471
 9334W        W25595  14.900  10.293   2.781 -0.1679 -0.3901  0.3191
 9335W        W25596  13.884  14.382   3.386 -0.1572  0.3344  0.1003
 9336W        W25597   0.674  13.497  15.505 -0.0511 -0.0110  0.1765
 9337W        W25598   6.477   9.620   5.426 -0.1113  0.1204 -0.3133
 9338W        W25599  17.706  15.350   1.815 -0.2705  0.0883 -0.0495
 9339W        W25600   1.316  14.634  13.314  0.2424 -0.1158 -0.1918
 9340W        W25601   5.824  16.366  13.634 -0.1185 -0.1499  0.1293
 9341W        W25602  14.839  13.190  15.139  0.1810  0.1083 -0.1401
 9342W        W25603   3.634  14.986  10.859 -0.0998 -0.2233  0.0698
 9343W        W25604   6.373  13.847   2.862  0.1290 -0.0041 -0.1258
 9344W        W25605  11.523   2.975   3.007 -0.2860 -0.2411 -0.1305
 9345W        W25606  14.391  14.140   4.300  0.1151 -0.2632 -0.2414
 9346W        W25607  14.482  13.369  12.167  0.1386 -0.1507 -0.1695
 9347W        W25608   1.172   7.332   3.519  0.2279  0.0085 -0.1839
 9348W        W25609  11.408  14.396  13.780 -0.0437  0.0625 -0.2078
 9349W        W25610   0.523  11.520   2.497 -0.0714 -0.1013 -0.0902
 9350W        W25611  16.385  15.147   4.862 -0.0642  0.0814 -0.2420
 9351W        W25612  11.815   9.936   2.538  0.1448  0.1576 -0.2634
 9352W        W25613   1.724   3.057  12.728  0.0091 -0.0341 -0.1760
 9353W        W25614   0.303   3.136  12.808 -0.1693  0.4106  0.0307
 9354W        W25615  10.926   1.323  13.135 -0.2017  0.2273 -0.0649
 9355W        W25616   6.971   0.075  12.511  0.1093  0.2832  0.2525
 9356W        W25617   0.299  11.795   1.226 -0.1016 -0.1212 -0.0855
 9357W        W25618  12.358   8.457  15.334 -0.1552 -0.1753 -0.0077
 9358W        W25619   3.658   5.996  14.300  0.1906 -0.1303 -0.1226
 9359W        W25620   1.591  17.057   3.408 -0.1718  0.1756 -0.1564
 9360W        W25621  15.889   5.919  12.774  0.1524 -0.2479 -0.0083
 9361W        W25622   7.262  11.802   1.156 -0.2513 -0.1608 -0.0267
 9362W        W25623  14.078  10.393   0.944 -0.2287 -0.1207 -0.0620
 9363W        W25624   1.771   8.785  11.798  0.1677 -0.0706  0.0886
 9364W        W25625   9.170  16.858  14.992  0.2478 -0.1952  0.0387
 9365W        W25626  14.250   1.146   3.016  0.1135 -0.0401  0.0110
 9366W        W25627  11.099   5.729   2.018  0.0966  0.0208  0.0106
 9367W        W25628  16.599  14.080  13.780 -0.1122 -0.1472 -0.2336
 9368W        W25629   0.044   2.058   4.205  0.3711 -0.2693  0.2345
 9369W        W25630   3.777   6.276  16.065 -0.1535 -0.1722 -0.0509
 9370W        W25631   8.217   0.022  11.797  0.0354  0.2179 -0.1459
 9371W        W25632   5.702   4.599  15.370  0.2097  0.0114  0.0193
 9372W        W25633   2.992   6.012  14.883 -0.1221 -0.0041  0.1791
 9373W        W25634   1.444   0.682  14.727 -0.1018 -0.4217  0.2649
 9374W        W25635  10.917  13.331  15.835 -0.2008  0.1295  0.0673
 9375W        W25636   7.360   9.731   0.247 -0.1722  0.1608  0.1275
 9376W        W25637   2.158   4.409  13.715  0.2070  0.1439  0.0261
 9377W        W25638  10.004   7.233   1.592 -0.2264 -0.0762  0.0143
 9378W        W25639   5.620  10.619  16.628  0.1566 -0.0640 -0.3041
 9379W        W25640  16.867  13.843  15.930  0.0195  0.2369  0.0158
 9380W        W25641  12.959  15.236  11.436  0.0801 -0.0253 -0.1202
 9381W        W25642   0.216   3.474   0.346 -0.0517 -0.0265  0.3321
 9382W        W25643  14.639   6.325  16.504 -0.1683  0.3295 -0.0201
 9383W        W25644   9.466   1.492  13.196 -0.1289  0.0956 -0.0570
 9384W        W25645   9.142  17.010   1.813 -0.1024  0.0420 -0.1325
 9385W        W25646   7.862  15.349   3.961  0.0263 -0.1700 -0.0355
 9386W        W25647   1.533  17.417  15.012 -0.0651  0.2084  0.1862
 9387W        W25648  15.820   6.680   2.422  0.0563 -0.0367 -0.0842
 9388W        W25649  16.075   7.514   1.284  0.2371  0.2639 -0.1045
 9389W        W25650   0.488  15.166  13.204  0.0510 -0.1311 -0.4234
 9390W        W25651  16.968   6.470   1.171 -0.3359 -0.1032  0.2238
 9391W        W25652  13.382  10.192   3.675  0.0188 -0.1287 -0.0341
 9392W        W25653  11.745   3.158   0.112  0.0163  0.1553  0.2184
 9393W        W25654   7.605   4.790   2.170 -0.0159 -0.0462 -0.1128
 9394W        W25655  15.305  11.616  14.179  0.1048 -0.0563 -0.2410
 9395W        W25656   7.371   7.688  15.939 -0.0413 -0.0570  0.0228
 9396W        W25657  14.918  15.363   0.234 -0.0593 -0.1159  0.1263
 9397W        W25658  14.250   6.902   5.331 -0.2505 -0.1222 -0.0231
 9398W        W25659  11.372   6.971  13.665  0.1815 -0.0300 -0.4400
 9399W        W25660  13.765  17.020   5.556  0.3592 -0.0886  0.2267
 9400W        W25661   8.210   4.643  16.121  0.0169  0.0140  0.1518
 9401W        W25662   1.694  14.993   3.371  0.0726 -0.0756 -0.2544
 9402W        W25663  10.156   3.453   4.351 -0.2367  0.0848 -0.0768
 9403W        W25664  15.172   8.329   3.735  0.0438  0.2748 -0.1036
 9404W        W25665   7.475  14.867  12.924 -0.0282 -0.0682 -0.3870
 9405W        W25666  12.484   1.539  11.802 -0.0184 -0.2074 -0.1625
 9406W        W25667  14.264  16.443   4.564  0.0414 -0.1574 -0.0041
 9407W        W25668   4.683  12.363  15.450 -0.1113 -0.5753  0.2693
 9408W        W25669   5.958  14.709  16.253 -0.0090 -0.2152  0.2646
 9409W        W25670   9.450  14.511  12.983  0.0039 -0.4341 -0.0437
 9410W        W25671   6.123  11.575  11.737  0.0206  0.1126  0.2546
 9411W        W25672  14.134   6.579   1.467  0.3422  0.0122 -0.2646
 9412W        W25673   8.183  13.440   0.510 -0.1909  0.2075  0.0044
 9413W        W25674   1.615   7.277  11.554 -0.1801  0.2714 -0.5716
 9414W        W25675   3.726  14.220  13.017 -0.1332  0.0115 -0.1218
 9415W        W25676   3.522  12.132  16.464  0.0246  0.0631 -0.0986
 9416W        W25677   5.926   8.376  16.177 -0.1850 -0.3207 -0.0638
 9417W        W25678   5.093   1.722  13.791  0.0606  0.1554  0.0437
 9418W        W25679  10.813   1.604   1.177 -0.1490 -0.3308 -0.0089
 9419W        W25680   0.954  12.317   0.655  0.1108 -0.4266 -0.1206
 9420W        W25681   3.543   8.373   3.124 -0.2360  0.1648  0.1060
 9421W        W25682  12.826  11.639  10.672  0.1696 -0.0879  0.1054
 9422W        W25683   8.246   2.517   2.874 -0.1534 -0.0742  0.0187
 9423W        W25684  10.342   3.403   1.417 -0.1067  0.3909 -0.1135
 9424W        W25685  16.741   0.284   2.704  0.2623  0.1006  0.1022
 9425W        W25686   5.669  12.017   1.414  0.2568  0.0134 -0.1059
 9426W        W25687   4.028   6.996  12.922 -0.1231 -0.1469  0.0005
 9427W        W25688  11.278   7.797  11.664 -0.0213 -0.1667  0.2019
 9428W        W25689   4.618  12.576   4.011 -0.1524  0.0241  0.0082
 9429W        W25690   4.273   4.034   2.323 -0.0232 -0.0832 -0.2792
 9430W        W25691   0.984   1.546   4.780  0.0384 -0.3841  0.1688
 9431W        W25692   0.748  10.092  15.774 -0.0768 -0.0012 -0.0578
 9432W        W25693  14.551  13.322   3.245  0.1180  0.0233  0.1110
 9433W        W25694   2.984   7.395   5.789  0.0665  0.1923  0.1718
 9434W        W25695  11.133   4.239   2.207 -0.2442 -0.1614 -0.6031
 9435W        W25696   7.295  10.932  12.076  0.3291  0.3634  0.0532
 9436W        W25697   3.950  15.191  12.826 -0.0094 -0.0133  0.1482
 9437W        W25698   6.269   7.215   6.332  0.1885  0.1016 -0.0403
 9438W        W25699   3.725   1.744   0.478  0.1013  0.0852  0.1271
 9439W        W25700  12.680   0.020   0.921 -0.0081 -0.0233 -0.0621
 9440W        W25701  13.289   1.446  13.105  0.1337  0.0597 -0.0054
 9441W        W25702  10.476  17.444  13.415  0.4889  0.4487 -0.0151
 9442W        W25703  12.862   4.991  15.298 -0.3204  0.0275 -0.1026
 9443W        W25704   1.814   2.708   4.543 -0.1311 -0.2742  0.1126
 9444W        W25705   9.471  17.262  12.953  0.0184  0.1685 -0.0998
 9445W        W25706   4.887   2.357   1.680 -0.0286 -0.0493 -0.1655
 9446W        W25707  17.560   7.176   3.343 -0.0921  0.2649 -0.2107
 9447W        W25708   5.750  17.074  14.113  0.0580 -0.1516  0.1478
 9448W        W25709  10.372   9.358  12.767 -0.0438  0.2655 -0.0751
 9449W        W25710  13.934  15.726   1.698 -0.1030 -0.0844 -0.1200
 9450W        W25711   1.327   7.279   2.606  0.2228 -0.3400  0.1212
 9451W        W25712  12.204  13.271   4.710  0.2193 -0.2878 -0.2362
 9452W        W25713   4.967  16.944   1.815  0.2250 -0.0327 -0.0551
 9453W        W25714   0.355   0.410  16.595  0.1854 -0.1033 -0.1599
 9454W        W25715  10.400   5.062   2.405  0.1747  0.0408 -0.3432
 9455W        W25716   7.051   4.422  14.939  0.2833 -0.0941 -0.0125
 9456W        W25717   8.174   9.832  13.792  0.3041  0.0983  0.0551
 9457W        W25718  10.801   1.077   4.247 -0.0612  0.0150 -0.0208
 9458W        W25719  10.464  12.754   0.858 -0.0950  0.3979 -0.3220
 9459W        W25720  17.431   0.183  15.358  0.1074 -0.0246  0.2075
 9460W        W25721  10.543  14.545  12.214 -0.3314 -0.0359  0.3160
 9461W        W25722   7.254  15.155   3.568 -0.2907 -0.3740  0.0711
 9462W        W25723  17.613   5.720   6.514  0.0945 -0.5086 -0.3690
 9463W        W25724   9.006  16.616   1.044 -0.2083  0.3416  0.2821
 9464W        W25725   3.366   1.239   6.615  0.0587  0.0384 -0.1201
 9465W        W25726   3.762   4.425  16.038 -0.3221  0.0168 -0.1639
 9466W        W25727   3.632   7.015   1.814 -0.1992  0.0330 -0.0404
 9467W        W25728   5.932   2.722  15.289  0.1064  0.2767 -0.0073
 9468W        W25729  15.828  16.570  15.895 -0.0051  0.2986 -0.1247
 9469W        W25730   7.311   8.035  12.326  0.0151  0.0687 -0.0292
 9470W        W25731  12.104   4.296  16.753  0.1121  0.3736  0.4393
 9471W        W25732   1.711  10.948   4.397  0.2377 -0.1741  0.4283
 9472W        W25733   8.253  14.109  14.894 -0.0134  0.2596  0.2986
 9473W        W25734  15.583   2.799  14.808  0.3168 -0.1495 -0.1847
 9474W        W25735   1.846  14.099  14.355  0.4281 -0.0298 -0.3773
 9475W        W25736  16.320  17.125  15.285 -0.3295  0.0769 -0.0356
 9476W        W25737   5.075  14.834   5.071 -0.0047  0.0000 -0.1118
 9477W        W25738  16.357   9.615  13.355  0.2143  0.0139  0.3941
 9478W        W25739  16.684   2.920   5.241  0.2130  0.1039 -0.0320
 9479W        W25740  16.359  14.653   4.703  0.1519 -0.1593  0.0511
 9480W        W25741   2.686  10.423   3.533  0.0701 -0.1074 -0.0132
 9481W        W25742  12.179   5.638  12.692 -0.0229  0.0146 -0.1870
 9482W        W25743  17.583   8.520   5.558  0.0081  0.2565 -0.2655
 9483W        W25744   7.088  14.483  14.092 -0.1671 -0.1533  0.2442
 9484W        W25745  11.591   8.151   3.597 -0.2670  0.0698  0.1075
 9485W        W25746  11.245  17.848   2.082  0.0722  0.2765 -0.3858
 9486W        W25747  16.249   6.715   6.178 -0.5242 -0.0087 -0.0987
 9487W        W25748   7.232  10.179  12.782 -0.2237  0.1934  0.0759
 9488W        W25749   2.997   3.996   1.541  0.0545 -0.3781  0.0647
 9489W        W25750   2.914  13.142  14.087  0.1835  0.0729  0.2351
 9490W        W25751  13.645   8.559  13.368 -0.1023 -0.0307  0.3518
 9491W        W25752  11.760   4.074   1.432 -0.1765  0.0373  0.0636
 9492W        W25753   3.812   1.400  12.733  0.0607 -0.1129 -0.2713
 9493W        W25754   2.264   1.764   0.672 -0.1393 -0.1905  0.2265
 9494W        W25755  13.913   7.554   4.690  0.2684  0.1826 -0.1108
 9495W        W25756  16.963   1.379   4.802  0.0679  0.2396  0.0936
 9496W        W25757   1.061   8.262   0.812  0.1399  0.0384 -0.1497
 9497W        W25758  12.076  16.492   4.073 -0.1100  0.1770 -0.0547
 9498W        W25759   8.179   1.216   1.245 -0.0021 -0.0512  0.1508
 9499W        W25760   5.973   3.371  14.622  0.3716 -0.0092  0.1862
 9500W        W25761   5.215  16.095  16.606 -0.2183 -0.3990  0.0629
 9501W        W25762   1.025   8.091  15.802 -0.0698 -0.1234  0.1315
 9502W        W25763   3.886   3.432  12.178  0.1472  0.1017  0.1274
 9503W        W25764  10.260  17.784  15.000  0.1991  0.2771 -0.2460
 9504W        W25765   9.655  10.259   3.229 -0.0151 -0.0657  0.0101
 9505W        W25766  13.980   7.977   1.091 -0.1052 -0.1122  0.1824
 9506W        W25767  16.358  14.987   5.644 -0.2229 -0.0306  0.2211
 9507W        W25768  13.569  15.035  16.780 -0.1489 -0.3470  0.0379
 9508W        W25769   8.689  13.361  15.962  0.0982  0.0114 -0.0325
 9509W        W25770   6.675   9.579   0.414 -0.0224 -0.3662  0.1189
 9510W        W25771   3.420   8.706  14.060  0.0022 -0.1346 -0.0353
 9511W        W25772   4.253  10.175   2.633  0.0139  0.0195 -0.1165
 9512W        W25773   0.514   7.254   5.211  0.0254  0.2797 -0.2382
 9513W        W25774  15.736  10.323  14.215 -0.4545  0.2107  0.0158
 9514W        W25775  16.249   7.789  15.175 -0.0594 -0.1484 -0.2044
 9515W        W25776   9.638   5.220   1.038 -0.0569  0.0343 -0.1462
 9516W        W25777   8.307  17.030   0.799 -0.1672  0.0543 -0.2418
 9517W        W25778  13.981   5.375  13.100  0.0315  0.3020  0.1243
 9518W        W25779  12.820  10.445  16.681 -0.2778 -0.0194 -0.1549
 9519W        W25780   2.766   8.706  11.491  0.1825 -0.0569 -0.1595
 9520W        W25781   8.165  11.958  13.050 -0.0469  0.2336 -0.1323
 9521W        W25782   1.367  17.433   4.252  0.1835 -0.0075 -0.4753
 9522W        W25783  15.925  12.919   0.439  0.0342 -0.4052  0.1997
 9523W        W25784   5.062   9.072   0.045  0.0600  0.0115 -0.1674
 9524W        W25785   7.178  14.926  14.432 -0.3041 -0.3679 -0.1248
 9525W        W25786   7.437  10.401   5.012 -0.0958 -0.1195  0.3634
 9526W        W25787   9.554   0.812  14.613  0.1564 -0.0664 -0.1297
 9527W        W25788  11.845   4.610   2.861 -0.2278  0.2496  0.0098
 9528W        W25789  16.419  10.202   5.311  0.0769  0.1380 -0.1127
 9529W        W25790   9.642   1.188  14.945  0.1806 -0.0407 -0.1091
 9530W        W25791  17.212  16.866  12.113  0.1128  0.1396  0.1098
 9531W        W25792   1.005   7.721  11.896  0.2751 -0.1613 -0.3003
 9532W        W25793  11.220  17.539   4.985  0.0565 -0.1222 -0.0768
 9533W        W25794   0.815  12.137   0.224 -0.0784  0.2344 -0.1016
 9534W        W25795  16.599  16.900   4.747  0.0765  0.1045  0.0733
 9535W        W25796   9.485   0.258  12.604  0.3804 -0.0867  0.0319
 9536W        W25797  16.079  17.610  11.842 -0.0612 -0.0293 -0.2780
 9537W        W25798   2.496  12.237  16.479 -0.0550 -0.1916  0.1103
 9538W        W25799   1.693   1.070  13.543 -0.2904 -0.1969 -0.0524
 9539W        W25800  11.443  15.515   1.814  0.0299  0.0987 -0.2862
 9540W        W25801  16.313  12.548   1.817 -0.0058 -0.0017 -0.1428
 9541W        W25802  17.835  17.420   2.534  0.3101 -0.1332 -0.4438
 9542W        W25803   8.142  15.868   1.121  0.2549 -0.1794 -0.0220
 9543W        W25804   0.730   6.864   3.922 -0.3047 -0.3152 -0.0202
 9544W        W25805  15.014  12.722  13.368 -0.0400  0.0068 -0.1265
 9545W        W25806   7.280   8.590   0.525 -0.1964 -0.1315  0.2779
 9546W        W25807   0.837  12.159  15.178  0.2427 -0.1058  0.0205
 9547W        W25808   9.414   7.057   4.780  0.1707  0.0190 -0.2181
 9548W        W25809   2.069   2.263  16.188  0.0492  0.0319  0.3589
 9549W        W25810   4.490  14.198   4.793  0.1646  0.0339  0.4999
 9550W        W25811   4.550  10.015  14.689  0.1227  0.3270  0.4228
 9551W        W25812   5.769   3.833   5.771  0.4029  0.1819  0.0361
 9552W        W25813   2.107   6.144   4.160  0.2557  0.3545  0.1694
 9553W        W25814  13.713   2.121   4.653  0.3177  0.2790 -0.0646
 9554W        W25815  10.931  12.023   0.208 -0.2734  0.0887  0.2301
 9555W        W25816   5.234   7.863   1.339 -0.0472 -0.0067 -0.3470
 9556W        W25817   5.304   0.713   5.173  0.2121 -0.1262  0.1961
 9557W        W25818   0.690   9.011   2.456  0.0689  0.0559 -0.2155
 9558W        W25819  15.696   1.795   5.079  0.1692 -0.0526 -0.1930
 9559W        W25820   5.081  11.354  12.419 -0.1301  0.1636  0.0852
 9560W        W25821  16.723   6.556   6.139 -0.0508 -0.2155  0.0036
 9561W        W25822   6.848   6.331   0.700 -0.0755 -0.0307  0.0752
 9562W        W25823  12.033   9.606   0.692  0.0058 -0.0851  0.1591
 9563W        W25824  13.100  15.281   5.463  0.0821  0.0129 -0.3705
 9564W        W25825   5.682   0.618  16.294 -0.1296 -0.0831 -0.0909
 9565W        W25826   9.686   1.481   3.293  0.1209 -0.1326 -0.2047
 9566W        W25827   2.110   8.063   1.627 -0.0699 -0.0493  0.1313
 9567W        W25828   2.631  15.152  16.430  0.0290  0.0189 -0.0488
 9568W        W25829   5.229  11.322  14.491 -0.1269  0.1363  0.1897
 9569W        W25830   0.033  13.548   2.405  0.3076  0.4443  0.0409
 9570W        W25831   6.539  14.056  16.598 -0.1228  0.1013  0.1000
 9571W        W25832   1.667  15.649  13.296 -0.0417  0.1168 -0.0110
 9572W        W25833  16.155   0.034  15.977  0.0256 -0.1825 -0.1917
 9573W        W25834   0.785  10.884  14.519 -0.0257 -0.1420  0.1752
 9574W        W25835   6.675  15.296  15.056  0.0436  0.1422 -0.0179
 9575W        W25836  10.592   4.138  11.685  0.0826 -0.1322 -0.1756
 9576W        W25837  11.705  13.121   0.089  0.0019  0.0996  0.0521
 9577W        W25838   1.063  12.104  13.356 -0.1153  0.0406 -0.1783
 9578W        W25839   8.103   1.050   4.530  0.1252  0.2636  0.3567
 9579W        W25840  10.715   8.128  13.526 -0.0347 -0.0231 -0.1731
 9580W        W25841   3.852  14.922   5.967 -0.1790  0.1923  0.1014
 9581W        W25842   6.595  12.725  12.293  0.1617  0.2097  0.2822
 9582W        W25843   4.589   2.723   3.208 -0.3036  0.0167  0.2176
 9583W        W25844   2.270   3.168  15.686  0.3292  0.3262 -0.0989
 9584W        W25845   9.233   4.302   5.158 -0.0223  0.1860 -0.1425
 9585W        W25846  14.337   7.392   0.367 -0.0263  0.0695 -0.0033
 9586W        W25847   7.297   0.447   0.736  0.2067 -0.0750  0.1771
 9587W        W25848  11.040  12.076  13.729  0.1480 -0.1516  0.0124
 9588W        W25849   0.877  16.517  12.369  0.1377 -0.1178  0.0456
 9589W        W25850  14.820  14.042   1.014  0.0020  0.1852  0.2447
 9590W        W25851   5.725   3.792  13.707 -0.0006  0.1162 -0.0406
 9591W        W25852   0.062   3.265  15.013 -0.2005 -0.0862 -0.0787
 9592W        W25853   5.993   9.108  15.071 -0.1875  0.0909 -0.3383
 9593W        W25854  13.858  17.044   2.871 -0.1830  0.2117 -0.1989
 9594W        W25855  12.614  12.164   5.501  0.1815  0.1985 -0.3084
 9595W        W25856   5.658   0.190  12.002 -0.5101 -0.2658 -0.1967
 9596W        W25857  11.377   1.427   1.746 -0.0619  0.0398 -0.0573
 9597W        W25858  13.075   8.352  16.020  0.1991  0.1808  0.2946
 9598W        W25859   2.508   0.907  16.453 -0.2823 -0.0314 -0.1994
 9599W        W25860  12.849   4.622   0.883 -0.1756 -0.1200 -0.2348
 9600W        W25861   8.947   0.339   3.761 -0.1381 -0.2229  0.1006
 9601W        W25862   0.029  12.642   4.912 -0.3938  0.4167 -0.1752
 9602W        W25863   5.121  10.744  16.303 -0.1294  0.0525  0.1611
 9603W        W25864  11.567   9.855   0.537  0.1354 -0.1676 -0.1046
 9604W        W25865  13.462  10.354   2.631 -0.4358  0.0734  0.2412
 9605W        W25866  16.591   1.345   2.627 -0.0050 -0.1148 -0.0667
 9606W        W25867   1.105   0.059   1.138 -0.3842  0.1433  0.0392
 9607W        W25868  14.155  12.744  14.646 -0.1496  0.1400  0.1280
 9608W        W25869  11.767   4.766   0.480  0.2937 -0.0697 -0.1725
 9609W        W25870   4.304   5.148   0.130  0.3370 -0.1298  0.2351
 9610W        W25871   7.364   9.168   2.459  0.0494  0.1398  0.1950
 9611W        W25872  12.681  12.291   0.168  0.0784 -0.0020 -0.0265
 9612W        W25873   2.302  15.405  12.166 -0.1895  0.4375  0.0623
 9613W        W25874  14.698  17.039  13.587  0.0651 -0.2241 -0.2278
 9614W        W25875  10.035   3.963  13.283 -0.3093  0.0366 -0.2778
 9615W        W25876   1.390   3.938   5.796 -0.1798  0.0319  0.0540
 9616W        W25877   8.013  13.335  13.821 -0.1120 -0.3167  0.1864
 9617W        W25878   3.017  10.539  14.589  0.2229  0.1274  0.2883
 9618W        W25879  13.885  17.495   5.669 -0.0114 -0.0838  0.0047
 9619W        W25880  13.286   6.840  13.474 -0.0680 -0.3594 -0.2031
 9620W        W25881   6.330   7.751  14.912 -0.1735  0.1521 -0.4714
 9621W        W25882   2.913   7.556   1.695  0.0091 -0.1212  0.1723
 9622W        W25883   8.658   3.327   2.239  0.0675 -0.3320 -0.2780
 9623W        W25884   0.676   0.847   0.941 -0.2289 -0.2027  0.1223
 9624W        W25885  12.364   1.408   0.449 -0.1742  0.3262  0.0818
 9625W        W25886   3.654  12.358   4.460 -0.0494  0.0905  0.1574
 9626W        W25887  17.589   9.532  13.216 -0.3067 -0.4499  0.1275
 9627W        W25888   9.196  17.381  15.096  0.1441 -0.0943 -0.0370
 9628W        W25889   4.932   8.151   4.551 -0.0127 -0.1525 -0.0737
 9629W        W25890   0.565   8.027   1.141  0.2218 -0.0174 -0.2522
 9630W        W25891  14.989  17.627   4.517  0.0624 -0.0289 -0.0837
 9631W        W25892   3.340   6.591   4.322 -0.0302  0.1982  0.1051
 9632W        W25893   1.820  11.486   4.460  0.2593 -0.0309 -0.0656
 9633W        W25894   8.149   7.936  13.455  0.1941  0.0152  0.0683
 9634W        W25895   8.161   3.394  14.731 -0.0510 -0.2485 -0.1623
 9635W        W25896   2.416  15.442  13.280  0.2864 -0.3972  0.1004
 9636W        W25897   9.756  11.985   1.727 -0.0544 -0.1012 -0.0626
 9637W        W25898   9.961  16.498  10.414 -0.1894 -0.1752  0.1014
 9638W        W25899   0.024   6.313   3.302 -0.0847 -0.3576 -0.5885
 9639W        W25900  14.597   1.874   6.284  0.0708  0.3421 -0.0010
 9640W        W25901   1.990  10.347  11.789  0.4567  0.1928  0.2058
 9641W        W25902   0.405   8.370   0.782 -0.0723 -0.3562 -0.3091
 9642W        W25903   3.575   0.108   6.147 -0.0775  0.1326 -0.3744
 9643W        W25904   7.793   9.498  13.799 -0.4300 -0.2201  0.0492
 9644W        W25905   7.932   0.684  14.397  0.2855 -0.2484  0.0061
 9645W        W25906  16.801   3.638  14.642 -0.1135 -0.0264  0.0121
 9646W        W25907   9.809   6.151   4.776  0.0878 -0.1628 -0.0420
 9647W        W25908   6.732   0.398   5.571  0.0602 -0.2211  0.1159
 9648W        W25909  13.418   1.234   1.096  0.1143 -0.0763 -0.0037
 9649W        W25910   2.833   8.000  13.154  0.0183  0.1047 -0.0051
 9650W        W25911   5.439   8.289   4.553 -0.1306  0.1032 -0.0899
 9651W        W25912   7.219   3.953  14.008 -0.2158 -0.0197  0.0864
 9652W        W25913   4.914  14.159  13.620 -0.3430  0.0393  0.0421
 9653W        W25914  14.732   8.766  16.766 -0.3312 -0.0055  0.0855
 9654W        W25915  16.728   5.692   1.650  0.3907  0.1151  0.0811
 9655W        W25916   9.671  17.038   1.899  0.4119  0.0095 -0.0504
 9656W        W25917   6.351   8.295   2.780 -0.1161  0.0182  0.1648
 9657W        W25918   9.221   1.079  12.959 -0.0275 -0.0962  0.2575
 9658W        W25919   2.313   9.193   2.883  0.2134 -0.0305 -0.0012
 9659W        W25920   6.559   5.174  12.592 -0.0762 -0.0802  0.4235
 9660W        W25921   1.207  14.971  16.219 -0.0440 -0.1539 -0.0352
 9661W        W25922   1.831   4.016   0.716 -0.1734 -0.1449 -0.0089
 9662W        W25923  14.271   0.603  16.036 -0.2262  0.1422 -0.2458
 9663W        W25924  17.338   8.117  13.795 -0.1356  0.0255 -0.0463
 9664W        W25925   0.375   3.508  14.215 -0.0159  0.0222  0.3092
 9665W        W25926   9.159  13.885  15.708  0.2158  0.0871 -0.0592
 9666W        W25927  14.151   7.661   4.157 -0.1438  0.2141 -0.3497
 9667W        W25928   2.486   7.244  15.958  0.0946 -0.1869 -0.1787
 9668W        W25929  11.902   6.094  15.647 -0.1045 -0.1759 -0.1327
 9669W        W25930   1.446  11.267  16.615 -0.0513  0.0913 -0.0230
 9670W        W25931  12.460  12.871   0.345 -0.1229 -0.2502  0.3060
 9671W        W25932   9.137  12.369   3.835 -0.1029  0.1229 -0.2150
 9672W        W25933  11.684   7.864  13.670 -0.0077  0.0208  0.0663
 9673W        W25934  15.798  11.614  12.499 -0.2637  0.2377 -0.0751
 9674W        W25935   8.426   3.532  16.306 -0.2158  0.0668 -0.1234
 9675W        W25936  17.549   6.219   5.679  0.0811  0.3208 -0.2672
 9676W        W25937  12.221  16.710   5.003  0.1520 -0.2313  0.1204
 9677W        W25938   4.471  11.239   4.757 -0.1058 -0.0599 -0.0113
 9678W        W25939   1.047   0.734   1.380 -0.1932 -0.0421 -0.1510
 9679W        W25940   9.000  16.130   2.453 -0.0362 -0.2933 -0.1602
 9680W        W25941  10.169  11.644   0.444 -0.3492  0.1177 -0.0844
 9681W        W25942   4.646   8.951  14.363  0.0587 -0.1055  0.1294
 9682W        W25943  12.945   9.382  14.931 -0.3136 -0.1791  0.0993
 9683W        W25944   3.031  12.154  11.587 -0.0372 -0.2050 -0.0923
 9684W        W25945  17.697  14.261   3.311 -0.0212 -0.0834 -0.0593
 9685W        W25946   5.867   7.040   4.757  0.1858  0.3228  0.1596
 9686W        W25947   0.244   5.551  14.499  0.1064  0.0176  0.0066
 9687W        W25948  12.709  12.237  15.792 -0.3470 -0.1660  0.0505
 9688W        W25949  12.131   2.792  16.071 -0.1173 -0.0377 -0.0873
 9689W        W25950  10.641   6.663   2.123 -0.0887 -0.1302  0.3986
 9690W        W25951   9.489  17.190   2.795  0.1968  0.1984  0.0336
 9691W        W25952  12.752   1.632  13.796 -0.3712 -0.0442 -0.3074
 9692W        W25953   8.378   4.284   1.283 -0.2135  0.2979 -0.0702
 9693W        W25954   3.554  17.656  13.058  0.1652  0.0521 -0.3310
 9694W        W25955  13.153  17.259  13.282 -0.0126 -0.1195  0.1789
 9695W        W25956   9.773  17.759   2.694 -0.0721 -0.0134  0.3313
 9696W        W25957  10.162   3.628  15.345  0.0074 -0.1773 -0.0807
 9697W        W25958  13.321  13.492  13.566  0.0142 -0.0096 -0.1436
 9698W        W25959  14.701   4.391   5.258  0.0586  0.0400 -0.1070
 9699W        W25960   6.054  16.582   1.118 -0.0999  0.0881  0.1407
 9700W        W25961  17.645  17.364   1.169  0.1908  0.1296 -0.1483
 9701W        W25962   1.004   6.542   5.240  0.1556  0.2249  0.1634
 9702W        W25963  14.960  13.562  16.377  0.0072 -0.0697 -0.0099
 9703W        W25964   2.306   3.548   0.960  0.2753  0.2199  0.0641
 9704W        W25965   4.186  15.312  13.696  0.0568  0.0500 -0.1162
 9705W        W25966   2.716  14.559  12.143 -0.0070 -0.0118 -0.1271
 9706W        W25967   2.141   2.704  13.523  0.3161  0.3663  0.1616
 9707W        W25968   2.690  15.241  11.655  0.0344  0.0710  0.2697
 9708W        W25969  10.302   9.038   3.205 -0.2586  0.1277  0.1563
 9709W        W25970  16.926   5.852  11.446  0.2451 -0.2729 -0.2935
 9710W        W25971   9.465   9.453   1.709  0.4234  0.1781 -0.0707
 9711W        W25972  16.505   4.876  16.802 -0.0111 -0.2157  0.1211
 9712W        W25973  11.481   8.919   3.740 -0.1926  0.2649 -0.0401
 9713W        W25974   2.648   7.294   2.630 -0.0066 -0.0599  0.1890
 9714W        W25975   7.619   4.170   4.621 -0.1911 -0.0865 -0.1597
 9715W        W25976   9.981  14.348  15.716  0.0588 -0.3336 -0.0748
 9716W        W25977   4.637  13.602   4.509  0.1077  0.0711  0.0639
 9717W        W25978   4.405   3.528  14.990  0.0746 -0.1773 -0.2056
 9718W        W25979  11.823  13.204   3.308  0.0958 -0.0741  0.0912
 9719W        W25980   2.836   0.739   2.437  0.0239  0.1307 -0.3297
 9720W        W25981   8.839   8.757  14.165 -0.0284 -0.2159 -0.1761
 9721W        W25982  12.311  10.169   3.284 -0.0592 -0.0981 -0.0981
 9722W        W25983   2.759  13.137  16.638  0.1937  0.2200 -0.0491
 9723W        W25984  16.050  16.480   2.851 -0.2028  0.3564 -0.0991
 9724W        W25985   3.715  10.594  11.956  0.3702 -0.0473  0.0990
 9725W        W25986  17.008   3.740  12.995  0.4706 -0.2587  0.1769
 9726W        W25987  10.337  10.539   2.234 -0.0794  0.0027 -0.1678
 9727W        W25988  17.793  10.372  13.345 -0.1095  0.1600  0.0883
 9728W        W25989   6.060   0.011  11.308 -0.1570 -0.0734  0.0772
 9729W        W25990   3.241   9.738  11.864 -0.0641  0.0268  0.4172
 9730W        W25991   0.476   5.535   3.602 -0.1830  0.1145 -0.1337
 9731W        W25992  14.129   7.016   1.769  0.0919  0.1079 -0.1934
 9732W        W25993   1.842   9.246   2.693 -0.0329  0.1158  0.1145
 9733W        W25994  14.635   8.048  12.306 -0.0007 -0.1152 -0.2636
 9734W        W25995   7.574  17.725  13.056 -0.0130 -0.1507  0.0917
 9735W        W25996   3.781  15.052  15.554 -0.0451  0.0383  0.3996
 9736W        W25997   3.271  11.233  13.414 -0.1816 -0.2589 -0.0794
 9737W        W25998   1.276   3.335   1.337 -0.0332 -0.0692  0.1858
 9738W        W25999   5.237   6.787  15.652 -0.2235  0.0897 -0.3305
 9739W        W26000   3.125   5.629  15.907 -0.1667  0.1119  0.2170
 9740W        W26001   6.688   7.725   4.160 -0.0505  0.1163  0.2027
 9741W        W26002  10.190  15.820   2.664  0.1298 -0.1000 -0.0308
 9742W        W26003  16.170   7.968  13.833 -0.0665  0.0498 -0.1986
 9743W        W26004   9.498  14.366  15.826 -0.2427 -0.2292 -0.1568
 9744W        W26005   0.615  10.488  15.532 -0.1200 -0.1292  0.0807
 9745W        W26006   5.789  17.823   5.539 -0.1958  0.0443 -0.3174
 9746W        W26007   5.142  13.258   4.304 -0.0288 -0.1305  0.3507
 9747W        W26008  13.370  13.502  12.191 -0.0804  0.0693  0.0868
 9748W        W26009   1.295   8.768  12.045  0.1720  0.3798  0.0025
 9749W        W26010   6.997   2.355   4.016  0.0705 -0.0583  0.1423
 9750W        W26011  12.428   2.426   5.587  0.1452  0.2883 -0.0547
 9751W        W26012   6.354  16.873   3.285 -0.0903 -0.1037 -0.0616
 9752W        W26013   7.892   4.706   2.541  0.2691  0.1548 -0.3892
 9753W        W26014  15.486  12.257  13.056  0.3776 -0.0685  0.1137
 9754W        W26015  10.371   0.423   5.757 -0.1572  0.1882 -0.0934
 9755W        W26016   5.972  10.380  14.008  0.1305 -0.0571 -0.1108
 9756W        W26017   4.113   1.240  14.955  0.0769 -0.2154 -0.0019
 9757W        W26018   9.072   7.330   1.788  0.0042  0.0723  0.0143
 9758W        W26019   5.851  17.122  11.696 -0.0886 -0.0559 -0.4577
 9759W        W26020   2.765  11.814  13.915 -0.0786  0.1576  0.1124
 9760W        W26021  13.518   1.955  13.189 -0.1673 -0.0868  0.4515
 9761W        W26022  17.525  12.177  13.548  0.1050 -0.3517  0.0660
 9762W        W26023   5.025   0.434   1.646 -0.2488 -0.2834  0.0889
 9763W        W26024   4.660   4.091   4.985 -0.3015  0.0041  0.0242
 9764W        W26025   2.356  17.478   2.816 -0.1013  0.1968  0.2082
 9765W        W26026  15.182  10.371   5.505 -0.0646 -0.0695  0.0652
 9766W        W26027  13.893  14.667   1.989 -0.0598  0.0921 -0.0693
 9767W        W26028   5.255   9.915  12.233  0.1916  0.0644  0.2900
 9768W        W26029   9.675   7.580   0.522 -0.1088 -0.1261  0.1555
 9769W        W26030  10.094   1.657   1.364 -0.0841  0.2022  0.1494
 9770W        W26031  13.810   6.624  15.114  0.1626  0.1389  0.0385
 9771W        W26032  12.273   5.563  15.634 -0.2381 -0.1073  0.1725
 9772W        W26033   0.077   5.078  13.650 -0.0156  0.0562  0.0760
 9773W        W26034  16.360  12.876  14.180 -0.0686  0.1765  0.1465
 9774W        W26035  12.903   9.899  13.446 -0.2942 -0.0335 -0.0423
 9775W        W26036   5.543   0.983  16.653 -0.3028 -0.2197 -0.0233
 9776W        W26037  12.349   6.289   1.153 -0.2258  0.1780 -0.0833
 9777W        W26038  17.755   5.969  16.350 -0.0874  0.2164  0.1326
 9778W        W26039  12.378   0.664  13.082 -0.0883 -0.0155 -0.1022
 9779W        W26040  11.016   6.209  14.069  0.1852 -0.3319  0.0538
 9780W        W26041  14.574   7.812  12.750  0.0369 -0.1208  0.3209
 9781W        W26042   5.255   5.405   3.113  0.2097 -0.0022 -0.0521
 9782W        W26043   4.144  16.647  12.765  0.0754 -0.3266  0.1460
 9783W        W26044  14.641  17.224   3.688  0.1411 -0.1030  0.2303
 9784W        W26045   2.939  16.838   5.396 -0.3808  0.0366  0.0898
 9785W        W26046   5.789  10.972  13.662  0.1106  0.0152 -0.3090
 9786W        W26047   6.771   9.719   5.019 -0.1961  0.1803 -0.0098
 9787W        W26048   7.786  17.184   0.717  0.0262 -0.0905  0.1980
 9788W        W26049   2.320  16.099  16.295  0.2520  0.1435  0.2873
 9789W        W26050  10.592  15.608   0.840 -0.4395  0.1280 -0.2691
 9790W        W26051  10.270   9.226   3.750  0.1230  0.4251 -0.1343
 9791W        W26052   2.362   0.449   2.692 -0.0044 -0.0253 -0.0711
 9792W        W26053   4.704  16.901  12.266  0.0983  0.0110 -0.1311
 9793W        W26054   8.557  14.460  16.698 -0.2719  0.1291  0.2072
 9794W        W26055   6.565   2.528   3.810 -0.2361  0.2991  0.3161
 9795W        W26056   0.927   4.991   0.641 -0.0929 -0.0093  0.0066
 9796W        W26057  14.992   5.031  13.388  0.0692  0.0917  0.0120
 9797W        W26058   1.829   2.789  16.322 -0.0370  0.0364  0.3378
 9798W        W26059  11.663   1.314   4.165 -0.2156  0.0593  0.3001
 9799W        W26060   2.788   9.024   5.384 -0.0214  0.1245 -0.1171
 9800W        W26061   9.214   2.417   0.120 -0.0490  0.1444 -0.1077
 9801W        W26062  12.316   4.889   1.045  0.0481  0.1593 -0.0566
 9802W        W26063   9.350   9.500  12.796  0.1427 -0.2196  0.0618
 9803W        W26064  13.899   9.959   4.275 -0.1495 -0.2673  0.2343
 9804W        W26065   7.841  16.722   4.837 -0.0405  0.0091 -0.2675
 9805W        W26066  15.389   6.797  13.106  0.0736  0.0661  0.0734
 9806W        W26067   0.760   3.027   2.076  0.1593  0.4443  0.2376
 9807W        W26068   0.148  14.299  13.191  0.0650  0.0893  0.2697
 9808W        W26069  16.383   0.072   5.476  0.1341  0.2666  0.1592
 9809W        W26070   8.676  16.524  12.918 -0.1534  0.1683  0.1788
 9810W        W26071  12.362  13.665  11.699  0.1498 -0.0721  0.2185
 9811W        W26072   2.167  15.598   2.896 -0.2295  0.0092  0.1307
 9812W        W26073   7.874   1.536  13.731  0.0240 -0.2187 -0.0749
 9813W        W26074   5.273  11.697  15.019  0.0601  0.1377  0.1346
 9814W        W26075  15.819  13.452  12.545  0.2555 -0.4366  0.2238
 9815W        W26076   1.020  15.148   4.493  0.2578  0.1576  0.1378
 9816W        W26077   5.033  15.279  14.274  0.1873  0.2359  0.0014
 9817W        W26078  17.416   1.821  13.290  0.0580 -0.3156  0.1902
 9818W        W26079  14.650   1.688   3.837 -0.1812 -0.2181 -0.0098
 9819W        W26080  12.663  11.730   3.836 -0.1966  0.3236  0.1014
 9820W        W26081  10.809   3.633  13.307  0.1332 -0.1187  0.0537
 9821W        W26082   9.391  15.946   2.715 -0.0313  0.1814  0.1081
 9822W        W26083   7.024  11.634   5.161  0.5709 -0.1454  0.1375
 9823W        W26084  13.386   0.125   5.518 -0.1461 -0.0280  0.2301
 9824W        W26085   3.431   6.056  16.334 -0.2253 -0.0554  0.5054
 9825W        W26086  15.089  11.010  16.717 -0.2555 -0.0726  0.1147
 9826W        W26087   9.961  13.666  12.797  0.1515  0.1945  0.0712
 9827W        W26088   2.228   2.331   2.252  0.0129 -0.0224 -0.1400
 9828W        W26089   6.716  16.673   4.097  0.1437 -0.2069  0.0307
 9829W        W26090   3.505   8.142   4.760  0.0372 -0.2433 -0.1230
 9830W        W26091   7.020  17.596   5.188  0.0451 -0.1204  0.0113
 9831W        W26092  14.607  14.018  16.290 -0.2907  0.0254 -0.0827
 9832W        W26093  11.468   3.342  12.642  0.1045 -0.2303 -0.1708
 9833W        W26094   3.136   7.011   0.150 -0.1068  0.2004 -0.2182
 9834W        W26095  10.702  11.024   0.860 -0.0463 -0.0879 -0.0180
 9835W        W26096   2.386   6.148   1.289 -0.0617 -0.1187 -0.2208
 9836W        W26097  10.895   9.235   4.373 -0.0077  0.0006  0.1536
 9837W        W26098   7.940  15.492  11.695  0.2719 -0.1617 -0.1465
 9838W        W26099   0.374  11.846  12.184  0.0615 -0.1317 -0.0784
 9839W        W26100   8.086  13.087   0.159 -0.1277  0.3437 -0.0095
 9840W        W26101  15.564   7.716   3.467 -0.1178  0.1563  0.0712
 9841W        W26102  14.357   9.787  12.229  0.0380 -0.0966 -0.0871
 9842W        W26103   9.873  10.124   1.344  0.2598 -0.0813  0.0856
 9843W        W26104   1.898   1.336  12.748 -0.1572  0.1337 -0.0456
 9844W        W26105  12.982   3.571   3.986  0.1459 -0.2574  0.1653
 9845W        W26106   8.104  10.490  12.344  0.0478 -0.1466 -0.0619
 9846W        W26107  16.597  14.250   0.634  0.3084 -0.0257  0.0984
 9847W        W26108  13.434   5.400   0.526  0.2305 -0.1334 -0.1103
 9848W        W26109  12.629   6.179   5.326  0.4352  0.3846 -0.1109
 9849W        W26110  10.937   7.759   2.669 -0.0037  0.0539  0.1521
 9850W        W26111   8.275   8.177   3.749  0.1062  0.1567 -0.0311
 9851W        W26112  16.599  14.296   6.664  0.1443  0.2355  0.1958
 9852W        W26113  16.553  12.118   2.143 -0.0320  0.0674  0.2014
 9853W        W26114   5.137   2.560  15.551 -0.1820 -0.2810  0.2963
 9854W        W26115   2.823  11.732   3.321  0.0468  0.0200  0.1442
 9855W        W26116   8.877   5.078  16.613  0.2661 -0.1149  0.1774
 9856W        W26117  15.489  13.473  16.151 -0.3002  0.2677  0.0222
 9857W        W26118   0.527   8.204   3.718 -0.0209  0.3899 -0.0356
 9858W        W26119  17.490   3.456  15.151  0.0800  0.0463 -0.1199
 9859W        W26120   0.474   9.745  16.607  0.0905  0.1225  0.0983
 9860W        W26121  15.418   8.317   0.889 -0.1895 -0.2933  0.0335
 9861W        W26122   5.846  10.769   1.525 -0.3081 -0.2570  0.1145
 9862W        W26123   4.785   1.845   0.422 -0.1453 -0.2028 -0.2029
 9863W        W26124   0.099   2.324   5.591 -0.1397 -0.1419 -0.0618
 9864W        W26125  14.154  16.341   3.670  0.1237  0.0128  0.0102
 9865W        W26126  14.956  14.516   3.494 -0.0831  0.0731 -0.0653
 9866W        W26127  17.186   9.748  11.995  0.3550  0.1354 -0.0599
 9867W        W26128   4.684   3.934   3.851  0.0390  0.0045  0.2180
 9868W        W26129   6.694   9.729  15.807  0.0964  0.1249 -0.0840
 9869W        W26130   0.047   1.876  14.149  0.0299 -0.3980 -0.1292
 9870W        W26131  17.625   7.180   5.914 -0.1720 -0.0963  0.3884
 9871W        W26132   3.487   9.464  12.177 -0.0821  0.1957 -0.0800
 9872W        W26133   1.270  17.485   0.581  0.3306 -0.0388 -0.0951
 9873W        W26134   4.747  14.719  11.682 -0.2198  0.2961  0.3308
 9874W        W26135  14.362   6.091  12.940  0.0749  0.0333  0.1128
 9875W        W26136   9.397   6.787  15.504 -0.2729 -0.0667  0.1786
 9876W        W26137  12.237   2.298   3.223 -0.0716 -0.1431 -0.2431
 9877W        W26138  10.762  10.797   4.514  0.0535  0.0976  0.1067
 9878W        W26139  14.785   7.663   1.468 -0.2260  0.1440  0.2733
 9879W        W26140  15.761  13.744   2.408 -0.0432 -0.1241 -0.3345
 9880W        W26141   3.864  12.819  15.627  0.0142  0.4148  0.1685
 9881W        W26142   6.372   4.742   0.957 -0.0288 -0.0317 -0.0967
 9882W        W26143   9.609  16.188   3.257 -0.0176  0.0712  0.0571
 9883W        W26144  13.163   8.698  14.308 -0.0883  0.1341  0.0452
 9884W        W26145   8.855  11.888   2.960  0.3377 -0.2049  0.1631
 9885W        W26146   1.744  13.697  16.489 -0.1483  0.1996 -0.0902
 9886W        W26147  14.794   5.292  12.984  0.4452  0.1679 -0.2814
 9887W        W26148   9.947  13.718   0.208 -0.0413  0.2728  0.1729
 9888W        W26149  15.686   8.842   2.969  0.1476 -0.3829  0.1565
 9889W        W26150  17.120  11.786   5.874  0.0151  0.0778 -0.0110
 9890W        W26151  16.367   7.294   0.909 -0.0013  0.1862 -0.2125
 9891W        W26152   7.066  14.087  16.433 -0.4441 -0.1248  0.1390
 9892W        W26153  14.383   7.025   0.665 -0.2685 -0.1217  0.0917
 9893W        W26154   6.226  10.885  13.437  0.3236  0.2093 -0.3667
 9894W        W26155  10.864   2.356   0.657  0.4242  0.1580 -0.1083
 9895W        W26156   8.207   8.763  11.519 -0.4415  0.1286 -0.1788
 9896W        W26157   9.303   4.409  12.366  0.1378 -0.0684  0.0954
 9897W        W26158   4.324  16.418  15.133 -0.0025  0.1676  0.1858
 9898W        W26159   3.571  10.467   0.288 -0.2584 -0.0963 -0.1090
 9899W        W26160   8.240   3.237  13.489  0.0047 -0.3788  0.0521
 9900W        W26161  16.443   0.067  16.348 -0.3110 -0.1820 -0.0311
 9901W        W26162   7.873  17.206   3.688 -0.2710  0.0453  0.0887
 9902W        W26163   4.507  11.026   3.712 -0.1158  0.1053  0.1792
 9903W        W26164  11.851  13.169   0.979  0.1468 -0.2148 -0.0589
 9904W        W26165  11.551   2.519   2.184  0.0853  0.1801  0.2861
 9905W        W26166   4.928  13.628   2.607  0.1769  0.2765 -0.0406
 9906W        W26167  12.490   7.912   2.688 -0.0477 -0.0465 -0.2551
 9907W        W26168  11.790   3.901   5.557 -0.1804  0.1985 -0.0116
 9908W        W26169   9.902   0.316   2.361 -0.1243  0.0586 -0.0775
 9909W        W26170   9.065  14.136  11.595  0.2589 -0.2621 -0.0435
 9910W        W26171   3.725   4.563   4.965 -0.1854  0.0054 -0.0450
 9911W        W26172  13.197   2.017  16.976  0.2686  0.1614  0.1139
 9912W        W26173  13.870  17.227   2.385 -0.1714  0.3397 -0.2283
 9913W        W26174  16.145   2.128  11.813 -0.0184  0.0725 -0.1002
 9914W        W26175   7.872   9.983   0.456  0.0821 -0.0292 -0.0714
 9915W        W26176  11.183   6.448  16.119  0.0508 -0.1085  0.3812
 9916W        W26177   1.887   6.774   2.376 -0.0858  0.0695 -0.1611
 9917W        W26178   7.968   0.231   5.709  0.0525 -0.1740 -0.1513
 9918W        W26179   0.342   9.632  13.897 -0.1630 -0.0924 -0.3577
 9919W        W26180   9.963  10.988  13.885 -0.3786 -0.1776 -0.0875
 9920W        W26181  15.729   5.919  13.334 -0.1330  0.2553  0.2538
 9921W        W26182  10.981   1.250  14.084 -0.0328  0.2052 -0.0431
 9922W        W26183  11.432  17.741   1.176 -0.0253  0.2849  0.1799
 9923W        W26184  13.207   8.182   6.187  0.0982 -0.0494 -0.0080
 9924W        W26185   2.033  15.370   6.280  0.0775 -0.1437 -0.0775
 9925W        W26186  16.168  17.658  13.573 -0.1191  0.1251  0.0090
 9926W        W26187   3.014   6.293   5.050  0.0507 -0.1440  0.1426
 9927W        W26188  11.976   6.351   4.174 -0.1312 -0.4441  0.0393
 9928W        W26189   6.070  14.034   0.696 -0.3376 -0.1121  0.0950
 9929W        W26190   6.720  16.039   2.966 -0.1016 -0.0869  0.1445
 9930W        W26191  16.980  17.382  11.892  0.1759  0.1259  0.1304
 9931W        W26192   3.532   3.679   5.963 -0.1103  0.2824 -0.2150
 9932W        W26193  15.202  12.375   3.151 -0.1287  0.1032  0.0349
 9933W        W26194   2.417   1.481  13.068  0.1647 -0.2531 -0.1276
 9934W        W26195   6.128   2.820   3.617  0.0836  0.0838 -0.0955
 9935W        W26196   9.355   1.820   0.286  0.0416  0.3868  0.0600
 9936W        W26197  15.739   8.440  12.641 -0.0223  0.1193 -0.1485
 9937W        W26198  11.771  13.091  12.473  0.0012 -0.2021 -0.2202
 9938W        W26199  11.547   0.245  12.212 -0.3277 -0.0338  0.1525
 9939W        W26200   1.941   4.819   3.528 -0.2876  0.2824  0.1648
 9940W        W26201  16.558   0.544  13.322 -0.0062 -0.0242  0.1455
 9941W        W26202   7.228   1.115  13.383  0.1978  0.0490 -0.0517
 9942W        W26203  10.666   2.439   2.454  0.3447 -0.0756  0.0883
 9943W        W26204   5.851   9.086   4.476  0.0991 -0.0113  0.2905
 9944W        W26205  12.788   0.313   2.280  0.2189 -0.0834  0.1442
 9945W        W26206  15.009  10.990  16.130 -0.2123 -0.0545 -0.0853
 9946W        W26207   4.134   0.992   3.686 -0.1046  0.1876 -0.3600
 9947W        W26208  12.323  11.455  13.506 -0.0565 -0.1459 -0.4142
 9948W        W26209   3.217   7.247   2.026 -0.0123 -0.2721  0.2482
 9949W        W26210  12.946  16.062  13.264 -0.3320 -0.1876 -0.3364
 9950W        W26211  10.562   8.897   4.475  0.3146  0.1620 -0.0550
 9951W        W26212  12.107  17.151   2.388 -0.0516  0.1942  0.1814
 9952W        W26213  16.797  12.644  13.970  0.1763  0.0053  0.1954
 9953W        W26214  12.935   8.728  12.011  0.0054 -0.0751  0.1199
 9954W        W26215  12.999   6.763   1.742  0.0318 -0.1136  0.2603
 9955W        W26216   9.334   7.161   2.668 -0.0878  0.1981  0.1657
 9956W        W26217   9.562   4.795  15.477 -0.0399  0.1021  0.0694
 9957W        W26218   7.100   9.555   2.917 -0.0598  0.0231  0.3052
 9958W        W26219  13.087   5.068   0.169 -0.2402 -0.3619  0.3185
 9959W        W26220   8.213   3.006   4.774  0.2186  0.0238  0.0472
 9960W        W26221   8.339   7.049  16.870 -0.2018 -0.4342  0.1389
 9961W        W26222  15.655   4.849  15.272  0.3005  0.2151  0.1769
 9962W        W26223   9.588  16.400   1.029  0.1939  0.2411 -0.1171
 9963W        W26224   0.845   0.254   1.505  0.1523  0.0256  0.4260
 9964W        W26225   4.646  10.745  16.432 -0.2397  0.0172 -0.1620
 9965W        W26226   5.776  13.482   2.097  0.2392 -0.1583 -0.0424
 9966W        W26227  11.669   7.268  13.192  0.0886 -0.3443  0.1560
 9967W        W26228  10.613   9.045  16.744 -0.1002 -0.3113  0.0651
 9968W        W26229   9.898   6.776  15.962 -0.2742  0.4716  0.0300
 9969W        W26230  17.452  17.137  13.852  0.4275 -0.1612 -0.1642
 9970W        W26231  10.074   7.633   0.265 -0.0056 -0.0422 -0.0867
 9971W        W26232  17.357   0.403   1.525  0.1792 -0.1168 -0.1203
 9972W        W26233   5.997   1.682   4.927 -0.0801  0.0916 -0.0901
 9973W        W26234   6.246   4.370  13.967  0.0542  0.1076  0.0880
 9974W        W26235   8.441   1.910  14.475 -0.1264  0.4016  0.0659
 9975W        W26236   2.825   4.734  16.078 -0.0661 -0.1214  0.1477
 9976W        W26237   7.318   1.785   1.486  0.2217  0.0159 -0.1508
 9977W        W26238  13.810  10.960   1.962 -0.1510  0.0020  0.0436
 9978W        W26239  15.502  10.715   4.520  0.0746 -0.2090  0.0470
 9979W        W26240   1.539   1.585   2.405  0.1120  0.3780 -0.0098
 9980W        W26241   5.232   8.178  14.182  0.0303 -0.2579  0.1181
 9981W        W26242   2.435   8.198  13.520  0.0615  0.1688 -0.0754
 9982W        W26243  16.041   6.478  16.944  0.2166  0.4387  0.2519
 9983W        W26244   2.522   6.763   0.886 -0.1874  0.1996 -0.0217
 9984W        W26245  13.347   5.616   1.374 -0.0805  0.1646  0.2035
 9985W        W26246  12.194  17.812  13.247  0.1040  0.1473  0.4848
 9986W        W26247   8.543   1.855   5.255  0.2622  0.3215  0.1372
 9987W        W26248   0.186  15.865  12.356  0.1140  0.0653 -0.2481
 9988W        W26249   3.597  15.448   3.933  0.0877 -0.2491 -0.1515
 9989W        W26250   1.795   4.239  12.789  0.1550 -0.0277 -0.0952
 9990W        W26251  11.660  14.834  11.871 -0.5056  0.2585 -0.1789
 9991W        W26252   1.247  11.229   3.735 -0.1297  0.3175 -0.1827
 9992W        W26253   2.510  11.335   3.330  0.2282  0.1094 -0.0610
 9993W        W26254   1.139   2.535   2.834  0.1332 -0.1555 -0.0804
 9994W        W26255   8.642  12.479   3.546 -0.1912  0.2602 -0.0255
 9995W        W26256   0.435  13.390  16.587 -0.0644  0.1897 -0.1214
 9996W        W26257  12.675  16.576  13.081  0.3300  0.0321 -0.0161
 9997W        W26258   6.431  14.803   3.444  0.0184  0.3460 -0.0625
 9998W        W26259   2.568   6.738  13.613  0.0696  0.3840  0.2078
 9999W        W26260   4.329   3.871   5.403 -0.0158 -0.1156  0.2067
10000W        W26261  13.711   3.020   5.284  0.3000 -0.1055 -0.1325
10001W        W26262   0.615  11.175   1.487  0.0306  0.1544  0.0460
10002W        W26263   1.185   3.607   3.551 -0.4046  0.1080  0.3316
10003W        W26264  11.472  10.032   1.739  0.0938  0.1786  0.0142
10004W        W26265   9.619  10.256   0.508  0.0330  0.2301 -0.0556
10005W        W26266   5.315   5.120  13.917  0.0587  0.3509  0.0064
10006W        W26267  13.704  10.522  13.700 -0.1384 -0.0094 -0.0529
10007W        W26268  12.420   7.741  14.767 -0.1113 -0.1242  0.0143
10008W        W26269   4.247   3.351  16.789  0.0461  0.1076 -0.0127
10009W        W26270  15.524   8.009  12.676 -0.0212 -0.1223 -0.0435
10010W        W26271   2.960  14.690  16.192  0.2526 -0.1623  0.1636
10011W        W26272   9.991  14.626  14.032  0.2456  0.1214  0.1883
10012W        W26273   8.013   0.419   2.571  0.0747 -0.0714  0.0921
10013W        W26274  15.805  10.600   2.425 -0.2813 -0.2322 -0.1526
10014W        W26275  15.488   7.256  13.325 -0.4457 -0.0349 -0.1185
10015W        W26276  15.330  13.694   5.399  0.0266 -0.2658  0.0026
10016W        W26277   2.172   4.869   5.751 -0.2275 -0.2018 -0.0663
10017W        W26278  15.787  15.463   3.328 -0.1392  0.0377  0.1955
10018W        W26279   1.351  16.488  15.139 -0.1203  0.1516  0.0373
10019W        W26280  17.166   4.434   2.919  0.0791  0.3582  0.2042
10020W        W26281  14.299   3.265   4.756 -0.0843 -0.1910 -0.3021
10021W        W26282   2.714   7.361  16.432 -0.0561  0.1161  0.0050
10022W        W26283  10.801   7.602   4.038 -0.1573 -0.1973  0.2373
10023W        W26284  16.943  14.196  12.389 -0.1546  0.1720  0.0747
10024W        W26285  10.458  15.275   1.189  0.0343 -0.2264  0.0456
10025W        W26286  10.110  10.919  11.764  0.0571  0.1475  0.0683
10026W        W26287   2.557   9.599  12.528 -0.2558 -0.2902 -0.0337
10027W        W26288   0.239  16.865  11.493  0.2511  0.0730 -0.2852
10028W        W26289  10.789   6.402   0.361 -0.2571 -0.4094 -0.0520
10029W        W26290  11.699   3.472   4.195 -0.1106  0.3181  0.1328
10030W        W26291   8.977  11.321   4.426  0.1992  0.1492  0.0449
10031W        W26292   2.144   1.889  15.326  0.0584  0.2772 -0.1067
10032W        W26293  10.663   6.917   0.412  0.0804  0.1626 -0.2823
10033W        W26294   4.742   5.093  14.017  0.0180 -0.2228  0.0532
10034W        W26295  16.590  15.010   3.896 -0.1309 -0.2445 -0.3128
10035W        W26296   1.078   3.570   3.007 -0.0419  0.2473  0.3250
10036W        W26297  17.655   4.225   5.337  0.2701  0.0919  0.0122
10037W        W26298  11.624   2.052  14.021 -0.0119  0.2503 -0.0919
10038W        W26299   9.509   7.198   3.635  0.0640 -0.1931 -0.2987
10039W        W26300   9.351   6.381   0.940  0.0040 -0.1271 -0.0130
10040W        W26301   9.862  11.668   4.549  0.3629  0.2540 -0.0434
10041W        W26302   5.883   0.214   0.193  0.0277 -0.0995 -0.0126
10042W        W26303   6.768  16.355  11.343 -0.0051 -0.3536 -0.2931
10043W        W26304   9.763   3.225   2.520  0.2202 -0.0194 -0.0407
10044W        W26305   2.022  12.259   3.347 -0.2081  0.0313  0.0739
10045W        W26306   4.281  16.368   0.136 -0.0192  0.1050 -0.0241
10046W        W26307   4.350   6.202   3.732 -0.0032  0.1992 -0.2876
10047W        W26308   7.919   9.693  13.335 -0.0481  0.0561  0.0715
10048W        W26309   8.062   8.893   1.192 -0.1343 -0.4126  0.0284
10049W        W26310  12.445  12.223   2.071  0.2345 -0.2091  0.0158
10050W        W26311  16.154   5.429   0.982  0.1583 -0.3563 -0.0188
10051W        W26312  14.543  13.043   5.143 -0.1558 -0.3870 -0.2086
10052W        W26313   2.641   8.621   2.722  0.1797  0.2643  0.1130
10053W        W26314   4.562   2.214   3.058  0.3594 -0.2089 -0.0544
10054W        W26315  11.756   2.178   2.925 -0.0829 -0.0278 -0.2771
10055W        W26316  11.429   7.754   2.737  0.0531  0.1264 -0.2707
10056W        W26317   0.759   4.809   5.793  0.5021 -0.0342 -0.0314
10057W        W26318   0.730   6.247  12.711  0.0644 -0.4289  0.1291
10058W        W26319  10.402  14.686  16.591 -0.2973  0.1161  0.3731
10059W        W26320  16.458   3.739  15.994  0.0724  0.2506 -0.3366
10060W        W26321   9.209  15.757  11.832  0.0981  0.0667  0.1066
10061W        W26322   4.624  11.593   3.567 -0.1384  0.0890 -0.0928
10062W        W26323   6.201  12.016   0.302  0.2788  0.1548  0.2459
10063W        W26324   8.331  16.146  12.340 -0.0029  0.1213 -0.3660
10064W        W26325  10.017  11.838  12.921 -0.0024  0.1838  0.1160
10065W        W26326  12.426   4.996   6.246 -0.0080 -0.3172 -0.2076
10066W        W26327  16.784   4.426  13.702  0.2349 -0.1638  0.0386
10067W        W26328  13.916  17.859   5.334  0.0198  0.2485  0.0147
10068W        W26329   3.406   6.875   0.833 -0.1240  0.2655  0.0358
10069W        W26330  15.228  15.478  14.903 -0.1172 -0.0617  0.0600
10070W        W26331   9.279  13.352  13.299 -0.1561  0.0387 -0.2060
10071W        W26332   5.814   9.517   3.183 -0.0857  0.0766  0.0221
10072W        W26333   8.995   8.346  13.856  0.2666 -0.0612 -0.0333
10073W        W26334  13.774   8.587  15.003 -0.0640 -0.0547 -0.4165
10074W        W26335  15.830  15.318   1.380 -0.0740  0.1586 -0.2203
10075W        W26336  16.665   7.069   1.747  0.1218  0.0942  0.0734
10076W        W26337   9.994   2.704   5.161  0.2569 -0.0626 -0.0255
10077W        W26338  16.612  14.803  15.267  0.1028 -0.2160 -0.1235
10078W        W26339  13.083   9.442  16.047 -0.0028  0.1321  0.2032
10079W        W26340  11.840  17.530  12.612  0.0105  0.1591 -0.0572
10080W        W26341   9.846  15.906   4.583 -0.1260 -0.1231 -0.0368
10081W        W26342   1.455  14.465   1.826 -0.1398  0.1613  0.0308
10082W        W26343   3.655  11.653  16.701 -0.2638  0.1555  0.1177
10083W        W26344   4.601   5.836  16.573 -0.0169 -0.2322  0.1654
10084W        W26345   7.161   0.245  15.187 -0.1249 -0.0560  0.1644
10085W        W26346  13.673   1.670   4.859 -0.0288 -0.3536  0.1417
10086W        W26347  15.783   0.692  14.887 -0.2180  0.2293  0.2554
10087W        W26348   1.789  15.906  14.598 -0.0682  0.2179 -0.0132
10088W        W26349   0.278  15.618   2.194 -0.0616  0.2636  0.0556
10089W        W26350   7.168   6.531   0.297  0.1315 -0.0601 -0.0713
10090W        W26351   0.862  16.536   0.899  0.2054 -0.1484  0.1159
10091W        W26352  17.351   1.542   5.744 -0.1310 -0.1651 -0.0158
10092W        W26353   8.926  10.039  13.875  0.3101  0.1508 -0.2455
10093W        W26354   6.485  13.405   3.176 -0.1558  0.1348  0.3572
10094W        W26355   4.173  10.972   5.107 -0.0196  0.0145  0.0346
10095W        W26356  13.308  10.261  11.927 -0.1272 -0.2261  0.0854
10096W        W26357   5.203  12.113  14.173 -0.1191  0.2260 -0.1344
10097W        W26358   0.006  16.073   2.369 -0.1199  0.2574  0.0466
10098W        W26359   9.372  16.516   1.927  0.0968  0.0167 -0.2022
10099W        W26360  14.546   8.701   5.364 -0.1028 -0.2495 -0.0279
10100W        W26361   5.921  12.996  14.917 -0.0066  0.3132 -0.0882
10101W        W26362   0.314   0.111   5.561 -0.0702 -0.2773 -0.4010
10102W        W26363   8.450   3.237   4.363  0.0169  0.2415  0.0991
10103W        W26364   2.996   4.153   3.481  0.1468 -0.1238  0.0747
10104W        W26365  11.126  14.563  14.916 -0.1924  0.0339  0.1890
10105W        W26366   5.255  11.530   2.758  0.1441 -0.0128  0.0843
10106W        W26367   4.281  13.765  11.377 -0.4642  0.2926  0.0665
10107W        W26368  14.895  16.218   5.529 -0.0720  0.0793  0.0670
10108W        W26369   2.753   2.180  16.740 -0.0767  0.0509 -0.3589
10109W        W26370  14.517   4.119   2.703 -0.0348 -0.3791  0.0666
10110W        W26371  15.846   2.820  13.838 -0.0822 -0.0385  0.1363
10111W        W26372  16.300   6.881   0.034  0.0065 -0.1652  0.0785
10112W        W26373   1.286  11.546   5.195  0.1548 -0.2107 -0.0864
10113W        W26374   1.848  14.280   2.188 -0.2211  0.1238 -0.2139
10114W        W26375   5.140   4.374  13.201 -0.0701  0.1201  0.0018
10115W        W26376   8.891  15.274  14.911 -0.0308  0.1624  0.0070
10116W        W26377  16.055  14.416  16.121  0.2091  0.1799 -0.1909
10117W        W26378   9.566   5.565   1.461  0.0464  0.0760  0.0635
10118W        W26379  11.633   4.107  15.516  0.1298 -0.2262 -0.0558
10119W        W26380   9.935   3.262   1.660  0.2059 -0.1682 -0.1468
10120W        W26381  15.976  12.011  13.681 -0.3552 -0.2189 -0.0890
10121W        W26382   2.768   9.115   2.635 -0.1956 -0.2387  0.1743
10122W        W26383  17.655   9.824  11.827 -0.0609 -0.0268  0.0373
10123W        W26384  15.062  11.875   3.762  0.2313 -0.1914  0.0395
10124W        W26385   0.090   8.158   1.102  0.0484  0.0959  0.1313
10125W        W26386  11.960   3.487   3.642 -0.1221  0.0031  0.0842
10126W        W26387  15.706  14.182  12.814 -0.1032  0.2344  0.1756
10127W        W26388  16.671   9.541  16.736 -0.2746 -0.1836  0.0858
10128W        W26389   7.397   9.350  16.473 -0.0673 -0.4479 -0.0373
10129W        W26390  13.622   4.420   0.255  0.2140  0.1369 -0.3114
10130W        W26391  13.066   1.901   2.036 -0.1192 -0.1078 -0.1548
10131W        W26392  12.930  16.596   0.768  0.0016 -0.0102 -0.0626
10132W        W26393  15.254  13.537   4.874 -0.0995  0.0045  0.0028
10133W        W26394  10.135   2.799   4.703  0.0534  0.1483 -0.0952
10134W        W26395   5.669   6.841  15.970 -0.1458  0.0323 -0.0185
10135W        W26396   8.672  15.639  16.839 -0.2768 -0.0710 -0.0460
10136W        W26397  11.742  13.477   1.958  0.2784 -0.1702  0.2175
10137W        W26398  17.712   9.166   3.039 -0.1706  0.1130 -0.0586
10138W        W26399   7.338   1.232   1.413  0.2545 -0.3968 -0.0896
10139W        W26400  12.964  17.154  15.234  0.1314 -0.2118  0.1465
10140W        W26401  11.775  15.252   0.300 -0.0543 -0.0365 -0.0164
10141W        W26402  13.209   5.775  13.895  0.0595 -0.0355 -0.2988
10142W        W26403   4.487   3.762   1.916 -0.2710  0.1285  0.1012
10143W        W26404  15.610   0.435   1.130  0.2609 -0.0534 -0.1643
10144W        W26405  16.430  15.311  16.232 -0.0941 -0.1739  0.0639
10145W        W26406  16.749   8.119  12.566 -0.5077  0.0198 -0.0880
10146W        W26407   1.693  11.973   2.720 -0.0529 -0.1652 -0.1036
10147W        W26408  10.436   3.743   2.309 -0.0094  0.5231  0.1354
10148W        W26409  12.118   5.480   2.511  0.0741 -0.0873 -0.3080
10149W        W26410  15.185  15.834   5.419 -0.1883  0.2279  0.1017
10150W        W26411  11.251   3.827  16.414 -0.3235 -0.0801 -0.2018
10151W        W26412  14.330  12.639   0.380  0.1721  0.1691 -0.0008
10152W        W26413   7.483  10.327   4.535  0.1197  0.1989  0.0871
10153W        W26414   6.837   5.144   1.519  0.2140 -0.2825 -0.2950
10154W        W26415   9.455   9.415   2.180  0.0600  0.0889  0.0252
10155W        W26416  11.341   0.142  14.452 -0.0773 -0.1906  0.0797
10156W        W26417   1.302  12.090   5.116  0.1179 -0.1287 -0.1074
10157W        W26418   1.241   6.544   3.117 -0.1282 -0.0724  0.1047
10158W        W26419   7.328   3.193  14.651 -0.0704  0.1587  0.1610
10159W        W26420  15.863  12.096  12.174 -0.4253  0.0550 -0.1694
10160W        W26421   6.960   2.835   4.247  0.3906  0.1544 -0.0539
10161W        W26422  17.075   0.833   3.291  0.1036  0.3471  0.2850
10162W        W26423  15.084  15.876  14.463  0.2699  0.2248 -0.0291
10163W        W26424  15.930   1.036   1.663  0.0508 -0.0419 -0.1902
10164W        W26425   4.784   2.430  11.894  0.0185 -0.0887 -0.0829
10165W        W26426  16.783   4.134  16.356  0.0305  0.1157 -0.1358
10166W        W26427  17.371   0.749   0.575  0.2371 -0.0125 -0.2149
10167W        W26428  16.286   0.924   5.031 -0.1566 -0.0772 -0.1458
10168W        W26429  13.067   0.590   3.063  0.0277 -0.3596  0.0733
10169W        W26430   5.522   7.859  13.087  0.0259  0.4462 -0.0828
10170W        W26431   5.098  13.588   2.023  0.3698 -0.1575  0.1922
10171W        W26432   0.766   6.942  15.558  0.0993  0.3670 -0.0239
10172W        W26433  10.402   5.868  15.671 -0.1210 -0.1336  0.2523
10173W        W26434   2.505  13.011   4.769 -0.2873  0.0957 -0.4077
10174W        W26435   2.273   9.421  14.076 -0.2085 -0.1347  0.0492
10175W        W26436   1.529  16.756   2.138  0.2056 -0.3212  0.0758
10176W        W26437   1.754  13.754   2.313 -0.2738  0.2209 -0.1707
10177W        W26438  12.731  10.216  13.753 -0.0117 -0.0300 -0.0072
10178W        W26439  11.173   1.517   2.540  0.1327 -0.0125 -0.0515
10179W        W26440   8.960   8.504  12.884  0.0133 -0.1215  0.1949
10180W        W26441  12.002   4.368  11.832  0.0467  0.0818  0.3213
10181W        W26442   7.891  14.005  12.760  0.0525 -0.3561  0.0334
10182W        W26443  11.530   3.651  13.841  0.0823 -0.1040  0.0653
10183W        W26444  11.869   9.505   3.864 -0.1578 -0.1173 -0.0385
10184W        W26445   0.150  11.927  16.475 -0.2630 -0.1584 -0.0095
10185W        W26446   0.927   3.505  14.943  0.0488 -0.1373  0.3505
10186W        W26447   7.670   9.391   1.861  0.0977 -0.0248  0.0168
10187W        W26448   2.611  14.306   2.597  0.0647  0.0326  0.1589
10188W        W26449  15.582  13.860   5.834  0.2300 -0.1665 -0.1284
10189W        W26450   0.919   0.608  13.348 -0.0808  0.1640  0.1987
10190W        W26451   1.668   7.647  13.258  0.0066  0.3277 -0.0867
10191W        W26452  17.563  17.027  13.299 -0.3647  0.0392  0.3232
10192W        W26453   7.155  16.813   1.065 -0.1472 -0.0276  0.0003
10193W        W26454  12.462   2.599  13.474  0.1780 -0.1119  0.0402
10194W        W26455  16.723  13.059   2.036 -0.2707  0.0318  0.0159
10195W        W26456  10.176   0.722  13.324 -0.1835 -0.0058 -0.1561
10196W        W26457   6.673  17.389  13.956 -0.1021  0.0453 -0.1474
10197W        W26458   4.153  15.800   2.733  0.1778 -0.2188 -0.0137
10198W        W26459   8.849  15.740  11.413  0.1787  0.0509 -0.0459
10199W        W26460   6.698   0.990   4.692  0.0744 -0.3795 -0.0610
10200W        W26461  13.565  16.307  15.561 -0.0945  0.2580 -0.1200
10201W        W26462  16.578  16.763   2.532  0.1755  0.2295 -0.4640
10202W        W26463  14.057   0.802  12.727  0.1118  0.0869  0.1028
10203W        W26464   4.221   2.994   5.252 -0.0381 -0.3545 -0.2305
10204W        W26465   6.668   2.350  14.986 -0.1563  0.3718  0.3786
10205W        W26466  15.656  16.991  13.554  0.0341  0.0777 -0.1143
10206W        W26467   7.478   2.328   3.989  0.1772 -0.0129  0.1326
10207W        W26468  10.605  14.003   3.266  0.0020  0.0690 -0.0346
10208W        W26469   5.557   2.769  10.655  0.1610 -0.0952  0.2200
10209W        W26470   0.484  12.481   3.213 -0.1214  0.0543 -0.0766
10210W        W26471   0.997   9.533  13.332 -0.5020 -0.3614 -0.1306
10211W        W26472  15.521  12.183  12.590 -0.0226 -0.1020  0.1558
10212W        W26473  13.742  14.847  12.027  0.2726 -0.2050 -0.2455
10213W        W26474  15.402   1.018   2.577 -0.0681  0.0890 -0.4160
10214W        W26475   6.498   0.893   2.156 -0.0997 -0.0662  0.0519
10215W        W26476   4.435  14.389  12.699 -0.0727 -0.3089 -0.1104
10216W        W26477  13.212   7.303   1.293 -0.2400  0.4020  0.0624
10217W        W26478  15.453  11.884   3.407 -0.0382 -0.0161 -0.2177
10218W        W26479   7.039   4.597  15.810 -0.2417 -0.0202  0.1148
10219W        W26480   5.470   4.518   2.341 -0.4163 -0.1714 -0.2070
10220W        W26481  17.482   7.694  15.884  0.2373 -0.1351 -0.3522
10221W        W26482   2.681   7.348  15.196 -0.1020 -0.0626  0.1277
10222W        W26483   2.307  14.364  12.004 -0.2363  0.1191 -0.3962
10223W        W26484   2.537  13.299  14.408  0.2200  0.2061 -0.1223
10224W        W26485  11.911  13.719   3.331  0.0565 -0.1170 -0.1811
10225W        W26486   1.836  12.268   5.235  0.0151 -0.0512 -0.0825
10226W        W26487  16.989   9.461   4.174  0.3057  0.1612  0.0840
10227W        W26488  11.300   8.192   2.514 -0.0472  0.0014  0.1555
10228W        W26489  13.662   0.430   3.575  0.1494 -0.0761  0.2203
10229W        W26490   0.750  17.624  14.484 -0.0581  0.1555 -0.0359
10230W        W26491  16.132  14.300  13.514  0.2278  0.3389 -0.1629
10231W        W26492   8.627  17.036  11.264  0.0477  0.0404  0.2168
10232W        W26493   2.619   3.977  14.831  0.2509 -0.0236  0.0199
10233W        W26494   3.407  17.549  14.398  0.0027  0.1271 -0.0331
10234W        W26495   2.328   4.342  13.163 -0.1246 -0.0798 -0.1887
10235W        W26496  12.505   8.559   1.112 -0.0844  0.0977  0.2388
10236W        W26497   1.877   9.026   2.248  0.2064  0.0404 -0.2912
10237W        W26498  16.176   8.425  15.285 -0.3598  0.0997  0.0434
10238W        W26499  10.277   7.594   1.465  0.1297 -0.1132 -0.2557
10239W        W26500  16.550  13.155   4.379 -0.1252  0.1078  0.0809
10240W        W26501  14.270   5.387   4.975 -0.0897 -0.1316 -0.1004
10241W        W26502   9.762  12.268   4.646  0.0753 -0.0704 -0.1171
10242W        W26503  11.934   3.393   5.393 -0.0133  0.2531 -0.0336
10243W        W26504  15.566   0.796   3.003 -0.3333 -0.3111 -0.2834
10244W        W26505   0.059   2.417  15.521  0.0234  0.4045 -0.0908
10245W        W26506   2.323  15.358   5.773 -0.1521 -0.0606  0.1463
10246W        W26507  16.168  13.640  14.750 -0.1628 -0.0046 -0.2462
10247W        W26508   2.452   4.222   2.105 -0.0712 -0.2206  0.0199
10248W        W26509  11.110   1.894   0.731 -0.0258 -0.0947 -0.1508
10249W        W26510   3.524   5.008   4.422 -0.1616 -0.0202 -0.0848
10250W        W26511  10.761  14.350  15.623  0.3346  0.0640  0.0680
10251W        W26512   5.862  12.911   4.954  0.5128  0.2272 -0.1571
10252W        W26513  15.898   6.342  14.589  0.0951  0.0298 -0.0896
10253W        W26514   4.920   5.330  12.147 -0.0186 -0.1646 -0.1681
10254W        W26515   4.960   7.905   3.872  0.0244  0.0430  0.1928
10255W        W26516   7.682  16.050  11.109 -0.1846  0.1517 -0.0201
10256W        W26517  11.261  13.279   0.254  0.2863  0.0656 -0.3119
10257W        W26518   3.076  11.377   0.204  0.1304  0.1340  0.2392
10258W        W26519  12.587   1.857   0.043 -0.1226  0.2927 -0.1794
10259W        W26520   4.201   0.080  16.293  0.0702 -0.0706 -0.0061
10260W        W26521   2.269   3.161   4.862 -0.2102 -0.1698  0.0689
10261W        W26522  14.868   8.525   4.075 -0.0191  0.0388 -0.1115
10262W        W26523  12.526   5.428   0.871  0.4441 -0.2865 -0.2639
10263W        W26524   5.692   7.989   2.356 -0.2646 -0.4282  0.1816
10264W        W26525  13.573  10.116  15.331 -0.1410 -0.2009  0.0043
10265W        W26526   3.770   0.442   1.601  0.0825 -0.0401  0.2897
10266W        W26527   2.810   4.496  13.257  0.1554 -0.0269  0.0506
10267W        W26528  17.422   8.973   1.234  0.1756  0.0833 -0.2298
10268W        W26529  12.751  14.370   4.193  0.3585 -0.1343 -0.1451
10269W        W26530   1.639  17.859   5.872  0.2977  0.1978  0.0396
10270W        W26531   3.136   1.633   0.491 -0.4408  0.0370  0.0620
10271W        W26532   5.590  14.269   0.598  0.1767  0.2613  0.1899
10272W        W26533  13.757   3.911  13.553  0.0549  0.0476 -0.1596
10273W        W26534   3.542  11.189  13.817  0.0718 -0.3330  0.0151
10274W        W26535   4.405  11.977  11.918 -0.0460 -0.2680  0.1309
10275W        W26536   2.629  11.121  13.458  0.1910 -0.0423 -0.0635
10276W        W26537   7.260  15.432  14.259  0.2061  0.1983 -0.2634
10277W        W26538   8.997  12.148   1.029  0.0345  0.1353 -0.1886
10278W        W26539   2.473  16.471   5.189  0.0886 -0.0542  0.1356
10279W        W26540   3.196   0.138   0.133  0.1174 -0.0484  0.0964
10280W        W26541  13.096  10.259   4.650 -0.0168 -0.1071  0.4374
10281W        W26542  17.772   3.539   2.997 -0.1981 -0.0310  0.1083
10282W        W26543   1.956   3.657   2.536  0.0311 -0.1774 -0.4549
10283W        W26544   6.771   9.644  15.327 -0.0280  0.1152  0.2071
10284W        W26545   2.840  16.116   5.237  0.0948 -0.0614  0.1040
10285W        W26546   2.716   8.810   1.493  0.0038 -0.1123 -0.1644
10286W        W26547   5.195   0.403   1.127 -0.2115  0.1781 -0.1891
10287W        W26548  10.093   9.351   0.670  0.0784 -0.2203  0.0192
10288W        W26549   1.729   4.369   3.583 -0.2790  0.0070  0.0309
10289W        W26550  14.814  13.560  14.087 -0.1756  0.2042 -0.1199
10290W        W26551   2.678   7.950   4.318  0.0101  0.1172 -0.0632
10291W        W26552   8.174  12.712  14.460  0.0183 -0.1777  0.1742
10292W        W26553   9.116  11.157   1.892 -0.0118  0.0316  0.0385
10293W        W26554  12.969  13.097   5.752  0.0364 -0.0326  0.2359
10294W        W26555   9.686  12.335  16.969  0.3194 -0.0719 -0.3039
10295W        W26556  12.142  11.536   3.721  0.0402  0.1042 -0.2308
10296W        W26557  13.574   8.356  14.277  0.0728  0.1835  0.0530
10297W        W26558   3.955  11.410   0.598 -0.0166  0.1328  0.1085
10298W        W26559   8.929  11.255   3.242  0.3662  0.2674  0.0031
10299W        W26560   3.508   4.303  12.682  0.0468  0.4456  0.1514
10300W        W26561  16.162  17.491  15.575  0.1321  0.1925  0.0088
10301W        W26562   7.201   7.525  12.568  0.2037  0.1835 -0.0970
10302W        W26563  11.338  12.249  15.766 -0.0739  0.1281 -0.1319
10303W        W26564  14.771  16.761   2.803 -0.2049 -0.3731 -0.0915
10304W        W26565   4.763   8.224   6.164 -0.1788 -0.0004 -0.1266
10305W        W26566   8.509   1.909   0.639  0.2310  0.0297 -0.0144
10306W        W26567   7.720  11.506  16.038 -0.1792 -0.1178  0.0837
10307W        W26568   6.291  15.978   1.542 -0.0853  0.1869 -0.0017
10308W        W26569   3.545  10.638   1.733 -0.0960  0.1046 -0.1586
10309W        W26570   7.112  14.694   1.745 -0.2070 -0.1783 -0.0591
10310W        W26571  12.207  12.833   1.097 -0.3704  0.2585  0.2288
10311W        W26572   9.089  11.610  16.634  0.1344  0.1127  0.2114
10312W        W26573  12.841   8.244   5.887 -0.1491 -0.0310  0.1127
10313W        W26574  17.137   9.939   0.242 -0.0980 -0.0519 -0.0785
10314W        W26575   1.204   1.327   2.116  0.2043 -0.0618  0.3288
10315W        W26576   0.862   1.583   5.947 -0.2161  0.0631  0.0083
10316W        W26577   5.066   8.572  12.372  0.3025  0.4020  0.4539
10317W        W26578   2.500   9.627  15.419 -0.1647  0.1276  0.2035
10318W        W26579   7.035   3.748  11.912  0.1347 -0.2212  0.0169
10319W        W26580   4.604   6.985   3.276  0.0438 -0.2247  0.2610
10320W        W26581   5.643   2.698   1.971 -0.0995 -0.0095 -0.2652
10321W        W26582  11.391   3.938   5.256  0.2813  0.3145 -0.0583
10322W        W26583   0.082   4.349  15.752  0.1277 -0.0257 -0.0298
10323W        W26584  12.441   7.905  12.397  0.2942  0.0507  0.2936
10324W        W26585   9.848  13.540  11.989 -0.1260 -0.1531 -0.1758
10325W        W26586   6.773  16.999   2.951 -0.1429  0.1024  0.0564
10326W        W26587   1.450   5.892  13.625 -0.0633 -0.0726 -0.0350
10327W        W26588   8.504  16.141  11.524 -0.3802  0.2155 -0.0372
10328W        W26589   5.070  15.207   2.701  0.4564  0.0971 -0.0070
10329W        W26590   0.911   6.944   3.394 -0.0283 -0.3145  0.0063
10330W        W26591  15.696   4.724   1.229  0.0644 -0.3945 -0.2375
10331W        W26592   1.185   8.739   0.339 -0.2070 -0.0624 -0.0665
10332W        W26593  10.743  11.120  16.213 -0.1306  0.0427  0.0563
10333W        W26594   4.378  15.885  12.763 -0.0508  0.2628 -0.2343
10334W        W26595  11.573  15.163  16.178 -0.0809 -0.1464 -0.0302
10335W        W26596   1.411   5.995   0.894 -0.2355 -0.1437 -0.1478
10336W        W26597   3.886   5.279  16.317 -0.1263 -0.2744  0.0003
10337W        W26598  16.610   0.310  11.498  0.0925  0.1395 -0.4685
10338W        W26599  11.537  16.412  14.571  0.0616  0.0986  0.0130
10339W        W26600   3.707   9.808   1.604 -0.0978 -0.2088 -0.0166
10340W        W26601   7.857  16.263  14.033  0.2880 -0.1528 -0.0227
10341W        W26602   5.155  13.452  16.922  0.1176  0.1879 -0.1448
10342W        W26603  15.443  13.965  16.924  0.1768  0.0708  0.3142
10343W        W26604  11.811  14.418   4.113 -0.2518  0.0203 -0.0008
10344W        W26605  13.986   2.520   2.292  0.3906 -0.1617 -0.0907
10345W        W26606   4.066   2.111  12.359  0.3086 -0.0654  0.2894
10346W        W26607  14.053   8.066   4.562 -0.0746  0.2088 -0.0048
10347W        W26608  16.190   9.867  12.267  0.1286 -0.1386 -0.0117
10348W        W26609   8.589   0.900   4.721  0.0561 -0.0223  0.3430
10349W        W26610   3.286   5.709   0.650 -0.0845  0.1286  0.2587
10350W        W26611  11.557   2.732   4.794 -0.0017  0.0395  0.0839
10351W        W26612   4.710   0.306   5.114 -0.2223  0.0414 -0.1196
10352W        W26613   5.793  12.527   3.921  0.0517 -0.0316  0.1473
10353W        W26614   1.397   9.264   2.926  0.0900 -0.0186  0.1910
10354W        W26615  11.137  11.327  15.981 -0.1627 -0.0032 -0.0680
10355W        W26616   6.006   2.321  11.714  0.1082 -0.0740 -0.2138
10356W        W26617  13.495   5.253  16.146 -0.3003  0.0588 -0.1500
10357W        W26618   5.152   7.001  12.132 -0.0576  0.0090 -0.2366
10358W        W26619  12.932   8.244   5.334 -0.0827  0.1743  0.2225
10359W        W26620   7.556   8.012  15.476 -0.2014  0.0479  0.1081
10360W        W26621  11.109  14.036  11.531 -0.1507 -0.4095 -0.2091
10361W        W26622  15.337   9.806  12.257  0.0008 -0.2514  0.0686
10362W        W26623  13.127  14.452   5.507  0.2081  0.2547 -0.4217
10363W        W26624   7.386  17.349   3.776 -0.2747  0.0752  0.0247
10364W        W26625   9.066  17.428   3.284  0.2435  0.2020  0.1248
10365W        W26626   3.409   8.116   3.793  0.2855  0.3452 -0.2049
10366W        W26627   1.959   1.288   2.351  0.1126  0.4256 -0.1470
10367W        W26628   1.325   3.735  11.462 -0.0549  0.0609 -0.1595
10368W        W26629   8.674  11.536   3.681  0.4069  0.1141  0.0906
10369W        W26630   2.412   1.424   5.860 -0.1614 -0.1135  0.0998
10370W        W26631  14.643   6.659  12.390  0.2082 -0.0005  0.1987
10371W        W26632  11.335  10.088  11.994  0.0883  0.1118 -0.0687
10372W        W26633  16.505  12.298   0.469 -0.2035  0.2711 -0.1530
10373W        W26634   4.121  15.251   1.337  0.1067 -0.0218 -0.1122
10374W        W26635   4.154   3.232   0.349 -0.0586  0.0625  0.1996
10375W        W26636  12.161   3.308   2.450  0.1471 -0.0963 -0.1678
10376W        W26637  10.314  10.833  15.312 -0.0821 -0.3330 -0.2116
10377W        W26638   3.591   5.304  15.858  0.2042 -0.0088 -0.2923
10378W        W26639   2.552   7.982   5.249  0.0130  0.0622 -0.0296
10379W        W26640   0.713  13.037   0.153  0.0676 -0.1407 -0.1623
10380W        W26641   2.412  17.129   3.164 -0.0179  0.1986 -0.0228
10381W        W26642   0.456   0.204  14.286 -0.1593 -0.0911 -0.0206
10382W        W26643  14.759  11.853   1.649 -0.1553  0.1650  0.3571
10383W        W26644   0.997   2.579   5.936 -0.2368 -0.0430  0.1822
10384W        W26645   5.533   3.713   4.340  0.4216  0.4661 -0.1153
10385W        W26646  10.700   7.095  16.526  0.0532 -0.0455  0.3599
10386W        W26647   5.295   9.294  15.546 -0.2526 -0.0832 -0.2356
10387W        W26648   4.452   1.602  13.902 -0.0120  0.4679 -0.1933
10388W        W26649   5.939  13.934   2.230  0.0763 -0.0481 -0.1788
10389W        W26650   6.225   7.915  12.578  0.0895 -0.2250  0.1057
10390W        W26651  14.724   9.353   1.817 -0.2714 -0.1342 -0.1456
10391W        W26652   1.739  15.286   0.456 -0.1705  0.1345 -0.2519
10392W        W26653   6.085   5.579   3.618  0.0604  0.1412  0.1896
10393W        W26654   7.353   0.532   1.803 -0.0460 -0.0915  0.1277
10394W        W26655  11.434  15.523  16.584  0.3118 -0.1734 -0.5535
10395W        W26656   2.717   1.580  15.942 -0.0488  0.2663  0.2056
10396W        W26657   7.123   2.270  15.227  0.1428  0.0184  0.2904
10397W        W26658  10.388   2.494   1.570 -0.2485 -0.0613 -0.0159
10398W        W26659   9.175  14.079   4.474 -0.4396 -0.2808 -0.0309
10399W        W26660   1.223   8.312   1.620 -0.3632 -0.1639 -0.1724
10400W        W26661   9.409  10.605  15.605  0.1579  0.0342  0.0756
10401W        W26662  10.258   4.614   2.078 -0.0159  0.3046 -0.0653
10402W        W26663  13.436   4.265  12.424 -0.0049  0.1047 -0.0267
10403W        W26664   2.725  16.594  12.842 -0.0626 -0.3446  0.0963
10404W        W26665   1.905  14.870  12.109  0.3715 -0.2389  0.2278
10405W        W26666   5.835   1.474   2.479  0.2263  0.0132 -0.2461
10406W        W26667  12.186   7.356  13.311 -0.2179 -0.0876  0.0978
10407W        W26668   8.600   8.140  14.694  0.0499 -0.2949  0.0821
10408W        W26669   8.272  14.484   3.963 -0.0534  0.1788 -0.0757
10409W        W26670  13.619   4.691   3.915  0.0130  0.1050 -0.2413
10410W        W26671   1.468   0.548  11.112 -0.1153 -0.0914 -0.0621
10411W        W26672   2.589  11.117  12.601  0.1302  0.1065  0.2604
10412W        W26673  10.785   3.384  12.149 -0.1751  0.0511 -0.2290
10413W        W26674  17.507   7.079  14.578 -0.1084 -0.0166  0.3247
10414W        W26675  13.326   5.819  15.343  0.1918  0.2377 -0.0687
10415W        W26676   4.036  17.048  15.982 -0.0506 -0.1033 -0.0414
10416W        W26677  12.085   3.762   3.179  0.1827 -0.0756 -0.5404
10417W        W26678  11.129   8.386   1.455 -0.1542 -0.0632  0.1249
10418W        W26679   0.696   8.882  16.862  0.0756  0.2461 -0.1540
10419W        W26680   0.220   2.853  14.793  0.1765 -0.1661 -0.2234
10420W        W26681   8.059  16.255   3.124 -0.0422 -0.1034  0.0527
10421W        W26682   5.097   2.933   1.856 -0.1077 -0.0781  0.0439
10422W        W26683  15.854  13.317   5.929  0.0173  0.0575  0.0734
10423W        W26684   7.230  14.912  13.372  0.2298 -0.1821  0.0647
10424W        W26685  16.203   9.767  12.875  0.1601 -0.1090  0.2597
10425W        W26686  10.737   7.280  13.785  0.1073 -0.0258  0.1865
10426W        W26687   7.044   0.368   3.839  0.0597 -0.0187 -0.2112
10427W        W26688   4.036   3.328  13.051 -0.0467 -0.1850  0.1991
10428W        W26689  16.989   4.398  14.982 -0.1055 -0.1129  0.3482
10429W        W26690   6.900  12.435  14.950 -0.1876 -0.1810  0.3280
10430W        W26691  11.731  16.470  16.448 -0.0104  0.1039  0.1441
10431W        W26692   3.673   1.522  11.759 -0.4034 -0.2182  0.1274
10432W        W26693  14.662   1.198  14.767  0.0331 -0.3339 -0.0771
10433W        W26694   9.930  15.063  14.628  0.1498 -0.1916  0.2719
10434W        W26695  16.923  14.012   2.284  0.2963  0.0084  0.1097
10435W        W26696  12.284   9.401   0.315  0.0811 -0.1696 -0.0073
10436W        W26697  12.915   0.507   5.271  0.1735  0.1762  0.1164
10437W        W26698  14.300   1.215  16.664  0.2092 -0.1299  0.0500
10438W        W26699  10.648  10.851   2.526  0.1102 -0.0657 -0.0231
10439W        W26700  13.444  10.598   4.496 -0.0777 -0.0885  0.2213
10440W        W26701   3.194   0.512  16.780 -0.1543  0.0885  0.0647
10441W        W26702   5.381  14.882  16.255  0.0183  0.0066 -0.2700
10442W        W26703   5.086   7.730  11.704 -0.1107 -0.2519  0.0071
10443W        W26704   0.210  10.539   0.803  0.1161  0.4298  0.0952
10444W        W26705   8.490  11.949   3.308 -0.0125 -0.0578 -0.0140
10445W        W26706  16.071  13.468  13.427  0.2770  0.0891  0.1656
10446W        W26707   1.052  10.080   5.035  0.0601  0.0756  0.3125
10447W        W26708   7.225   6.044  13.150 -0.0454  0.1157 -0.1037
10448W        W26709  10.884   1.828   1.658  0.0589 -0.1811  0.1017
10449W        W26710  17.400   7.415   1.262 -0.0407  0.2998  0.0832
10450W        W26711  15.353   3.281   5.331  0.1983  0.1464 -0.0857
10451W        W26712   4.192   4.345   5.191 -0.0021 -0.0950 -0.2307
10452W        W26713   1.436   2.301   3.292 -0.0489  0.1283  0.1627
10453W        W26714  16.829   0.601   3.614 -0.0233 -0.0930 -0.0163
10454W        W26715   8.024   2.915   3.366 -0.1737 -0.3480  0.1083
10455W        W26716  14.359  16.931  16.845 -0.0183  0.0983  0.0315
10456W        W26717  16.955   1.972   5.721  0.0753 -0.1848  0.0582
10457W        W26718   1.621  13.256   0.645 -0.0427 -0.4146 -0.0366
10458W        W26719  14.263   7.879  14.551 -0.0565  0.0874  0.0111
10459W        W26720   9.258   6.099   1.790  0.0545 -0.2254  0.2194
10460W        W26721   2.418   2.675  13.998  0.2339  0.0020 -0.0552
10461W        W26722  12.740  15.700  12.946  0.1001  0.0752 -0.1024
10462W        W26723  15.025  14.500  13.353  0.2214  0.2182  0.1163
10463W        W26724  11.984   1.485   0.803  0.0215  0.0949  0.0099
10464W        W26725   8.669  13.376  13.969 -0.2808  0.1677  0.3177
10465W        W26726   8.366   7.375   6.053  0.1872 -0.0396  0.1619
10466W        W26727  13.693  17.053  16.379 -0.1153  0.0872 -0.1821
10467W        W26728   5.934   7.132   4.181 -0.0110  0.1615 -0.2355
10468W        W26729  11.502   1.246  11.844 -0.2357 -0.1926 -0.1711
10469W        W26730  12.085  17.011   0.567 -0.1043 -0.1046 -0.0104
10470W        W26731   2.194  17.319  12.805 -0.1937 -0.0137 -0.0528
10471W        W26732  10.562  12.634  15.963 -0.2571  0.1440 -0.3184
10472W        W26733   0.923   3.715  16.715  0.1139  0.0150  0.1605
10473W        W26734  16.769   1.810  13.794  0.2490  0.0610  0.2516
10474W        W26735  10.196  12.969   1.322  0.0681 -0.1471  0.3471
10475W        W26736  16.410  12.894  15.221 -0.0103  0.3121 -0.1808
10476W        W26737  15.021   6.904   0.899  0.2688 -0.0123  0.1308
10477W        W26738  16.541   2.596  16.814 -0.0712  0.3445  0.2402
10478W        W26739  16.486  17.566  14.002 -0.3195 -0.0411 -0.1560
10479W        W26740  13.447   8.718  11.832 -0.0214 -0.0623  0.1111
10480W        W26741   7.480  13.898  15.714  0.0557  0.0871 -0.1344
10481W        W26742   1.885   5.083   1.532 -0.1506 -0.2839 -0.1773
10482W        W26743  11.946  10.961   2.672 -0.2791  0.1011  0.1020
10483W        W26744  16.626   8.645   4.574 -0.1583  0.1676 -0.2815
10484W        W26745   6.593  11.203   1.394  0.0474  0.1069 -0.0079
10485W        W26746   5.718  13.860  15.471  0.0712 -0.1102  0.0080
10486W        W26747   4.806  11.885  15.693  0.1515  0.1251 -0.2320
10487W        W26748   2.228   5.625  16.451 -0.2207 -0.0285 -0.0374
10488W        W26749   7.520  14.986   4.031 -0.2466 -0.0695  0.0393
10489W        W26750   9.695   5.937   5.220 -0.0037  0.0535 -0.2308
10490W        W26751  16.177   8.758   3.716  0.1602  0.0275 -0.1721
10491W        W26752  14.725  16.593   4.598 -0.2929  0.1034 -0.1768
10492W        W26753   3.251  11.910  13.281 -0.1492 -0.2326  0.0540
10493W        W26754   8.607   9.738  13.450  0.3198  0.2857  0.1302
10494W        W26755  10.897  12.232  16.317 -0.2621 -0.1271  0.1146
10495W        W26756  14.188   8.141  15.588 -0.2975  0.3308 -0.1338
10496W        W26757   3.883   9.137   4.794  0.1179 -0.0257 -0.2543
10497W        W26758  10.116   2.555   0.033  0.0795 -0.2439  0.2307
10498W        W26759   3.506   7.430  13.921 -0.0939 -0.1293  0.1504
10499W        W26760   5.213   4.601  16.218 -0.3342 -0.3792  0.0590
10500W        W26761  14.440   3.356   4.312  0.0147  0.0528 -0.0749
10501W        W26762   3.928   9.465   5.163 -0.1652 -0.2180 -0.0021
10502W        W26763   5.015  15.130   0.503 -0.1903  0.2718 -0.0858
10503W        W26764   3.776   9.985  16.658 -0.0296 -0.0465  0.1516
10504W        W26765   3.943   9.682   3.225  0.1266  0.1174 -0.1380
10505W        W26766   1.789   3.476  12.987  0.3748 -0.1190 -0.0755
10506W        W26767  10.471   6.881  13.647 -0.0123 -0.0281  0.3512
10507W        W26768   0.792   7.128  13.899 -0.2272  0.1797  0.0817
10508W        W26769   4.880   2.743   0.784  0.0905  0.1664 -0.0471
10509W        W26770  16.643  16.624  16.553 -0.2575 -0.1406 -0.0135
10510W        W26771  12.217   1.304   1.865 -0.1041  0.3318  0.2841
10511W        W26772   8.423   9.392  16.297 -0.1681  0.2293  0.1467
10512W        W26773   4.278   3.815   4.146  0.0588  0.0474  0.2307
10513W        W26774   8.703   3.294  14.863 -0.1125 -0.1055  0.0153
10514W        W26775   5.578  15.323   4.015  0.4216 -0.2173 -0.1432
10515W        W26776   9.350  16.022   2.073  0.0351 -0.2240  0.0536
10516W        W26777   0.479  12.698   6.353  0.1838  0.3426  0.0808
10517W        W26778   5.158   6.285   2.948  0.0146  0.0798  0.1001
10518W        W26779   3.131  13.842   3.753 -0.1663  0.0498  0.0508
10519W        W26780  12.705   0.631  12.175  0.0850 -0.2322 -0.1198
10520W        W26781  10.958   9.642  15.494 -0.2522 -0.4322  0.1012
10521W        W26782   5.743   4.274  14.604 -0.0755  0.0197  0.0765
10522W        W26783   4.159   7.283  13.284  0.1397  0.1356  0.2111
10523W        W26784  13.698  10.526  13.188 -0.0361 -0.0241  0.1919
10524W        W26785   1.295  11.430   2.599 -0.0325  0.2528  0.1726
10525W        W26786   5.892  16.237  16.213  0.1493  0.0830  0.4989
10526W        W26787  13.084  11.834  14.161  0.0153  0.2094  0.0925
10527W        W26788   2.634   0.393  15.672  0.2221 -0.0813  0.0425
10528W        W26789  16.882  15.277   1.984  0.2268 -0.0326  0.0795
10529W        W26790   8.666   0.101   1.911  0.1673  0.3372  0.4593
10530W        W26791  15.812  11.677  14.036 -0.1960 -0.0110  0.0835
10531W        W26792   3.348  13.011  15.596 -0.0259 -0.0424 -0.1162
10532W        W26793   9.581   8.620   2.706  0.1004  0.2421  0.0822
10533W        W26794   8.809   0.370   5.311 -0.1532  0.2338 -0.1234
10534W        W26795   0.471   8.900  13.879 -0.0162 -0.0157 -0.2751
10535W        W26796   1.155   9.006   3.327 -0.3894  0.0297 -0.1408
10536W        W26797   0.510   3.606  12.767 -0.0574 -0.0830  0.0250
10537W        W26798  16.649   4.435  11.989  0.0189  0.0022  0.0780
10538W        W26799   8.373   9.595  12.561  0.0398 -0.0841 -0.1554
10539W        W26800  14.735   8.744  10.769  0.0934  0.1576 -0.0586
10540W        W26801  10.499   3.863   4.383  0.0012  0.3894 -0.1138
10541W        W26802  12.612   3.069  11.747 -0.0254 -0.0024  0.1668
10542W        W26803   9.564  17.075  15.175 -0.2609  0.1315 -0.2155
10543W        W26804   2.489  14.721  15.866 -0.0381 -0.0683  0.0830
10544W        W26805   9.647  10.419   4.066  0.2618  0.3252  0.1105
10545W        W26806  14.769   3.853  12.958 -0.1322  0.0847  0.0688
10546W        W26807  12.610  14.961   0.296  0.0510 -0.0173  0.0667
10547W        W26808   2.110   0.022   6.110 -0.0406  0.2812 -0.2036
10548W        W26809  14.013  16.779   3.285 -0.0594 -0.2777  0.0779
10549W        W26810   4.604   1.570   4.791  0.3177  0.2069 -0.0067
10550W        W26811   7.758   2.540   2.991  0.2004  0.0520 -0.0597
10551W        W26812   5.196  14.694   2.581 -0.4275 -0.0699 -0.0015
10552W        W26813   1.370   1.213  11.819 -0.0612  0.0471 -0.1844
10553W        W26814   4.461   3.383   4.488  0.0172 -0.1508 -0.0329
10554W        W26815   5.646   5.786  12.381 -0.3593  0.0676 -0.2346
10555W        W26816   1.633  11.628  15.104 -0.1742  0.4482 -0.1493
10556W        W26817   0.587   0.101  15.746 -0.2966 -0.0468 -0.1233
10557W        W26818  14.316   6.078   0.420  0.4165 -0.1790 -0.3161
10558W        W26819   7.580   2.070   2.762 -0.0797  0.1359  0.0715
10559W        W26820  16.232   7.300   5.061  0.1224 -0.1598  0.4013
10560W        W26821   0.699   6.181   3.797 -0.2053 -0.0733 -0.1794
10561W        W26822  11.171  10.823   6.273 -0.0039 -0.0969 -0.0505
10562W        W26823   3.990   3.101   6.103 -0.0507 -0.0762  0.2336
10563W        W26824   8.141  13.255   2.343 -0.0124 -0.2944 -0.1033
10564W        W26825   8.633   7.325   1.098 -0.0300  0.3427 -0.4701
10565W        W26826  14.737  10.284  14.371  0.2805  0.0458  0.1130
10566W        W26827  15.880   9.271  13.676 -0.0766 -0.1645  0.1993
10567W        W26828   1.007  15.012   6.036 -0.1758  0.2269  0.1879
10568W        W26829   0.849   3.592   1.508  0.0668  0.1870  0.2303
10569W        W26830   5.495  15.998   2.506  0.1081  0.3668 -0.3394
10570W        W26831  12.357  11.216   0.950  0.2612  0.1026 -0.2121
10571W        W26832   1.473  15.059  13.536 -0.0972 -0.1667 -0.1286
10572W        W26833  14.488   7.411  14.441 -0.1233 -0.1233  0.2012
10573W        W26834  13.620   8.318  15.873  0.0217 -0.2288  0.2033
10574W        W26835   3.694  12.846   4.561 -0.0618  0.1114  0.0379
10575W        W26836  16.015   6.186   2.457  0.1150  0.0522  0.1645
10576W        W26837   4.477  12.744  14.522  0.0147  0.1848 -0.0478
10577W        W26838  14.436   0.585  12.447 -0.0600  0.2448  0.1349
10578W        W26839   1.667   7.297  15.859 -0.0079 -0.4350 -0.0146
10579W        W26840  11.282   6.820   3.286 -0.0110  0.1329 -0.4044
10580W        W26841  16.978   8.279  14.502 -0.2071  0.2617 -0.1286
10581W        W26842   0.568   6.351  13.737  0.2091  0.0103 -0.0584
10582W        W26843   1.533  14.001   3.474  0.2002 -0.0202 -0.1838
10583W        W26844   9.086   5.890   2.207 -0.0869  0.1202  0.1113
10584W        W26845   5.568  10.212   5.155 -0.1794 -0.0365  0.2384
10585W        W26846   3.353  15.144  12.170  0.0180  0.2594 -0.0577
10586W        W26847   1.139  16.043  15.357  0.0071 -0.1495 -0.0851
10587W        W26848   5.504   7.116  14.031  0.0088  0.1532 -0.1204
10588W        W26849  15.669   1.266   2.904 -0.2768 -0.0032 -0.3503
10589W        W26850   2.473  10.502  12.834  0.1016 -0.0781 -0.0001
10590W        W26851  10.646  14.353   4.834 -0.0043  0.1872 -0.0499
10591W        W26852  14.345  12.714  16.396 -0.1326 -0.1623  0.0844
10592W        W26853   4.186  13.225   2.563  0.1431  0.0759  0.1073
10593W        W26854   5.721   1.342   4.692  0.1527 -0.2273 -0.0769
10594W        W26855   1.595   9.063  14.759 -0.3103  0.1036 -0.1602
10595W        W26856   9.233  12.299  15.271  0.0259 -0.0269  0.0780
10596W        W26857   5.907   8.924  12.917 -0.1358 -0.0341  0.1191
10597W        W26858   9.941  12.981  13.819  0.1531  0.1760 -0.0134
10598W        W26859   4.834   2.955  14.069 -0.1214 -0.0143  0.3702
10599W        W26860  13.788  13.128   4.490  0.3185  0.1714  0.0437
10600W        W26861  10.917  14.369   1.378  0.1231 -0.1596 -0.4068
10601W        W26862   2.840   9.393   1.136  0.1905 -0.1605  0.3228
10602W        W26863   9.483   0.542   0.318  0.1041 -0.0486 -0.0991
10603W        W26864   8.451  17.437  11.492 -0.1836 -0.1731 -0.0530
10604W        W26865  17.441   8.231   3.893 -0.1117 -0.0456 -0.2379
10605W        W26866   3.783   2.495  14.794  0.1975 -0.0600 -0.1888
10606W        W26867   0.292  12.090   4.371  0.1448 -0.0404  0.2346
10607W        W26868   7.890   2.606   2.542 -0.2746  0.1664  0.1402
10608W        W26869  14.771   8.956  12.635  0.3193  0.0760  0.1681
10609W        W26870   3.555   9.514  14.249  0.2062  0.2881  0.0357
10610W        W26871   1.580  11.831  13.112  0.0539  0.0477  0.0682
10611W        W26872  16.943  15.669   6.551 -0.2236 -0.3069  0.0321
10612W        W26873  11.434   6.531  12.150  0.0991 -0.1996 -0.3028
10613W        W26874   2.629  14.650   0.423 -0.0222  0.0184  0.3484
10614W        W26875   7.976  12.793  14.939  0.1697 -0.0839 -0.2230
10615W        W26876   1.737   6.372   1.043 -0.4639 -0.2567 -0.1149
10616W        W26877  13.694  11.646   1.151 -0.3117  0.2815 -0.1452
10617W        W26878  17.093   8.777  14.968 -0.3596  0.0460 -0.0069
10618W        W26879  12.200   4.785  15.144  0.0692  0.0558 -0.0854
10619W        W26880  17.331  13.788   1.157 -0.2165  0.2344  0.1243
10620W        W26881  10.946  15.041  13.071  0.0613 -0.1457 -0.1463
10621W        W26882   1.462  12.645  11.778 -0.1536 -0.1819 -0.1666
10622W        W26883   6.885   2.110  11.943  0.0294 -0.0766 -0.1653
10623W        W26884  11.154   8.036   5.317  0.0855  0.0410  0.3777
10624W        W26885   6.110   4.107   5.217  0.1655 -0.3045 -0.1710
10625W        W26886   6.455  17.449  15.159  0.2372 -0.1042  0.2395
10626W        W26887   3.995   1.610   2.490  0.0068  0.0894  0.0845
10627W        W26888  13.327   2.839  12.496 -0.0499  0.0139 -0.2517
10628W        W26889   0.514   8.984   1.478  0.0137  0.4896  0.1928
10629W        W26890   0.685   7.631   5.531  0.0845  0.0384 -0.0117
10630W        W26891   2.617  14.259   5.192  0.3736 -0.0992  0.1112
10631W        W26892   9.690  12.643  15.969 -0.0045 -0.1145 -0.0356
10632W        W26893   1.620  13.071  14.639 -0.0176 -0.4049 -0.3132
10633W        W26894  14.486   8.144  13.146 -0.1034 -0.0548 -0.2213
10634W        W26895  10.419  14.882   4.871  0.1429  0.1744 -0.1065
10635W        W26896   5.737  11.780   0.158  0.0021  0.0117 -0.1988
10636W        W26897   9.577  11.663   2.580 -0.0848  0.2429 -0.3675
10637W        W26898  17.688   1.331  15.540  0.0522  0.0184 -0.0258
10638W        W26899   5.579  16.978   4.426  0.0387 -0.0527  0.3017
10639W        W26900   4.422   5.148   3.313 -0.1016  0.0853 -0.1209
10640W        W26901  10.458   8.984  13.102 -0.1857  0.1062 -0.2655
10641W        W26902  12.917   7.245   3.036 -0.0986  0.1660  0.0730
10642W        W26903   2.660  15.785   2.586 -0.0826  0.3377  0.0689
10643W        W26904  16.056   3.507  11.912 -0.0230  0.0305  0.1504
10644W        W26905   7.168  10.672   0.513 -0.1422 -0.3522  0.2020
10645W        W26906   5.761   7.929  16.832  0.1647 -0.0429 -0.0911
10646W        W26907   2.594  13.152  12.242 -0.2149  0.0149  0.3933
10647W        W26908   1.264  11.911  15.113 -0.1500  0.2734 -0.0919
10648W        W26909   2.004  14.522  14.629  0.1611 -0.0285  0.1088
10649W        W26910   2.610   4.745   2.516 -0.1144  0.0349 -0.0781
10650W        W26911   3.385  14.499   1.023  0.1941  0.2600 -0.1590
10651W        W26912   5.474  11.048   2.802  0.1231  0.0015  0.5561
10652W        W26913  14.663   5.750  16.334 -0.1769  0.0473  0.0341
10653W        W26914   9.921  11.489   2.268  0.0201  0.0232 -0.0881
10654W        W26915  11.962  17.018  15.156  0.2566 -0.0985 -0.1557
10655W        W26916   9.816   8.169  16.080  0.2143 -0.0580 -0.2761
10656W        W26917  16.704  12.769   2.753 -0.2537 -0.0553  0.2110
10657W        W26918  12.578   8.991  11.787  0.4303 -0.2015  0.2252
10658W        W26919  14.897   4.985   1.627 -0.1946 -0.0021  0.0998
10659W        W26920   4.087   1.456  15.757  0.2852 -0.1306 -0.0817
10660W        W26921  10.093   5.929   2.155  0.0719 -0.0939  0.2505
10661W        W26922  15.786  15.482  15.999  0.3421 -0.0800  0.1947
10662W        W26923   0.230   5.434  14.006 -0.0582 -0.2441 -0.0323
10663W        W26924   2.538   7.863  13.899  0.0816  0.1069  0.0830
10664W        W26925  13.303  13.648  16.840  0.0719  0.0327 -0.1262
10665W        W26926   1.514   8.764  15.156 -0.1316  0.0706  0.0091
10666W        W26927  17.007   9.071  12.651  0.4280 -0.0508 -0.2047
10667W        W26928   8.068   4.310  14.228  0.0935 -0.1153 -0.2398
10668W        W26929   4.303  10.139   4.559 -0.0627  0.2154 -0.0259
10669W        W26930  12.734  15.832  13.696 -0.3212 -0.0144  0.0370
10670W        W26931  12.922  15.063  11.955 -0.1279  0.0085  0.0315
10671W        W26932   4.417   3.958  13.652 -0.4930  0.1265 -0.1826
10672W        W26933   2.975   0.391  13.833  0.3005  0.1317 -0.2028
10673W        W26934  17.471   2.046   0.081  0.0148 -0.3279  0.3046
10674W        W26935  12.236   4.592   5.596 -0.1557 -0.0701 -0.1757
10675W        W26936   2.939  13.946   2.490  0.0186  0.0570  0.0383
10676W        W26937  13.287   2.520  16.199  0.0276  0.3007  0.0021
10677W        W26938  14.826   2.463  14.014 -0.0531  0.3153  0.0088
10678W        W26939  13.035   5.701  11.893  0.1209  0.1587 -0.1153
10679W        W26940  14.689   2.560  15.409 -0.2325 -0.0701 -0.0926
10680W        W26941  17.252  11.467  12.317  0.0712 -0.0738  0.2171
10681W        W26942  14.568  12.947  13.312  0.0195 -0.1417 -0.1991
10682W        W26943   1.222   7.562  14.078  0.1457  0.3185 -0.1323
10683W        W26944   7.889  10.843  15.647  0.2320 -0.0244  0.1895
10684W        W26945  10.589   9.893   1.908  0.2587 -0.3184  0.0467
10685W        W26946   7.493  13.199  12.074  0.0363 -0.2234  0.0436
10686W        W26947  14.059   4.644  14.838  0.0953 -0.2054 -0.2193
10687W        W26948  10.435   6.186   2.688 -0.2074  0.2631 -0.0300
10688W        W26949   6.884   0.652  16.377  0.0557 -0.0901 -0.0383
10689W        W26950   8.086   9.199   4.823 -0.0408  0.0743 -0.0299
10690W        W26951   5.176  14.650   1.765 -0.1158 -0.0395  0.2901
10691W        W26952   0.688   5.463   4.850  0.0825  0.0737 -0.3261
10692W        W26953   3.383   6.564   6.418 -0.0795 -0.0850 -0.4347
10693W        W26954   0.988   7.094   5.288  0.1331  0.2365 -0.2541
10694W        W26955   0.641  16.030   0.217 -0.2695  0.1435 -0.3541
10695W        W26956   1.563   6.901   0.928  0.0527  0.1491  0.1111
10696W        W26957  12.496   9.470   4.711  0.0446 -0.2047  0.1216
10697W        W26958  10.664   0.098  16.248 -0.0372  0.0108  0.0899
10698W        W26959  13.984   7.939   2.109 -0.2673  0.0324 -0.3351
10699W        W26960   8.433   3.862  13.990 -0.0305  0.0523  0.1573
10700W        W26961  12.278   7.270   2.003 -0.0179  0.1007 -0.1235
10701W        W26962  14.502  17.600   6.410 -0.2864 -0.4378 -0.2175
10702W        W26963   0.689   7.520   4.197 -0.0664  0.1147 -0.0806
10703W        W26964   5.172  17.520   3.681 -0.0722  0.0719 -0.0660
10704W        W26965  16.176  16.165   5.777  0.0964 -0.1427 -0.0013
10705W        W26966   7.337  14.268   3.462  0.1206  0.0509  0.0632
10706W        W26967   1.880  16.276  14.162  0.0721  0.1256 -0.1589
10707W        W26968   7.168   5.934   4.773 -0.0707 -0.3100  0.0419
10708W        W26969  12.179  15.273  14.858  0.0970 -0.1521  0.0384
10709W        W26970   9.910   0.752  15.631  0.0709 -0.0593 -0.3011
10710W        W26971   2.797   9.641  15.013  0.0389  0.1680  0.1289
10711W        W26972  16.810   7.912  14.081  0.1245  0.1143 -0.5940
10712W        W26973   2.585   8.831  12.221 -0.1607 -0.0705  0.0921
10713W        W26974  12.993   9.592   0.725 -0.1471  0.0502 -0.0091
10714W        W26975   8.920   3.197  13.340  0.0482 -0.1909 -0.1028
10715W        W26976   6.921   7.096   2.369  0.0617 -0.1642 -0.2539
10716W        W26977  16.660  13.741   1.091  0.0810 -0.1806 -0.0976
10717W        W26978   4.987   3.873  13.420 -0.0279  0.1119  0.3222
10718W        W26979   9.755  15.897   1.104  0.1112  0.1980 -0.0705
10719W        W26980  12.110  17.222  14.651  0.2194 -0.2249 -0.0103
10720W        W26981   2.216  15.470  16.527  0.0966 -0.0105  0.0560
10721W        W26982  10.624  14.495   2.828  0.0564  0.2542  0.0212
10722W        W26983  12.523   6.410  13.149  0.0995 -0.1328 -0.0281
10723W        W26984   8.104   2.405  13.209 -0.1052  0.0819 -0.1092
10724W        W26985  16.154   4.410   2.410  0.3321  0.0214  0.2056
10725W        W26986   2.634  11.605  12.036  0.1105  0.0824  0.2542
10726W        W26987  12.231   6.995  16.314 -0.2936 -0.1699  0.0685
10727W        W26988  10.758   1.963   4.548  0.0030 -0.0734  0.0177
10728W        W26989   8.518   0.162  11.373  0.1052 -0.2498  0.1041
10729W        W26990   0.184   6.769  11.708 -0.0257 -0.3362  0.0116
10730W        W26991   3.286   1.694  12.630  0.2449 -0.0224  0.1258
10731W        W26992   9.092  13.248  11.266 -0.0379 -0.2051  0.0884
10732W        W26993   9.678  12.169  11.582  0.0146  0.0034 -0.0635
10733W        W26994  10.264  11.290   0.010  0.0535 -0.2881  0.0159
10734W        W26995   1.567  17.715   4.651 -0.0452  0.1266 -0.0904
10735W        W26996   3.648   6.490  13.510  0.1666  0.2029  0.1255
10736W        W26997   8.233   7.958  16.499 -0.0897 -0.1425  0.1373
10737W        W26998   4.663  12.846  16.750  0.4570 -0.1824  0.2106
10738W        W26999  12.386   8.648  12.083  0.0736 -0.3535 -0.3201
10739W        W27000   5.276   2.352   3.551  0.1679 -0.2009  0.0957
10740W        W27001   8.757  12.122  13.573 -0.0115 -0.2567 -0.0431
10741W        W27002   7.492  12.941   3.472  0.5658  0.1889  0.0127
10742W        W27003  14.184  16.927  14.277  0.0013 -0.1517 -0.0949
10743W        W27004  12.685  15.276  16.910 -0.0041 -0.1078 -0.0285
10744W        W27005  14.883  14.149  15.482  0.1427 -0.1104  0.2446
10745W        W27006   2.686   9.730   1.458 -0.0249  0.3936 -0.2202
10746W        W27007   9.810  15.626  13.201 -0.3447  0.0677 -0.4057
10747W        W27008   2.192  13.443  13.309  0.1247  0.1443 -0.4019
10748W        W27009   6.844   1.039  15.738 -0.1939 -0.0318 -0.0442
10749W        W27010   3.222  16.608  14.071  0.1320 -0.0587 -0.1792
10750W        W27011   5.815   2.075   5.830 -0.2150 -0.0452 -0.1455
10751W        W27012   5.601   7.017   1.360  0.1223 -0.0477  0.0049
10752W        W27013   3.498   7.265  16.849 -0.2920 -0.0062  0.1078
10753W        W27014  15.236   8.927   4.805 -0.0195 -0.2223 -0.1133
10754W        W27015   3.932   3.986  14.143 -0.0495  0.0200  0.0870
10755W        W27016  16.432  12.626   4.042 -0.0906 -0.2034 -0.2578
10756W        W27017  13.301  13.936   1.116 -0.3291  0.0140 -0.2046
10757W        W27018   5.543   3.043  16.324  0.3688 -0.2190 -0.1804
10758W        W27019   0.756   6.885   0.538  0.0763 -0.1862 -0.1127
10759W        W27020   9.034   3.851   1.037  0.0411  0.1285 -0.0746
10760W        W27021  12.332   9.943   4.620  0.4233 -0.0649 -0.1328
10761W        W27022   5.810  10.740   4.377 -0.0307 -0.0683  0.0170
10762W        W27023   9.968  10.370   4.524 -0.0926  0.1838  0.0279
10763W        W27024  17.521   7.088   1.845 -0.0668  0.0481 -0.2821
10764W        W27025   1.609   5.745  12.610 -0.4246  0.0950 -0.1577
10765W        W27026  16.594  13.100   5.200 -0.1792 -0.0777 -0.1091
10766W        W27027  14.382   3.342   1.689  0.0105  0.3955  0.3894
10767W        W27028   5.183   7.420   1.115 -0.0536 -0.0301  0.0575
10768W        W27029   0.368  13.544  12.224 -0.0646  0.0776 -0.3419
10769W        W27030   6.091   5.783  12.906  0.1711 -0.1922 -0.1905
10770W        W27031  10.182   0.894  16.192  0.2068 -0.1784  0.1913
10771W        W27032  14.067  16.169   1.416 -0.5769  0.0392 -0.2172
10772W        W27033   5.414   3.718  15.460  0.0473 -0.1189  0.2885
10773W        W27034   1.861  12.179  13.857  0.0326 -0.0985 -0.1639
10774W        W27035   8.900   8.438  15.272 -0.0981 -0.1437  0.0992
10775W        W27036   2.666   7.824  12.706  0.1281  0.0014 -0.0605
10776W        W27037   3.870   9.948   4.890  0.0091 -0.0687 -0.0233
10777W        W27038  17.678  17.079   2.200  0.1279  0.0222 -0.1004
10778W        W27039   6.783  13.237   2.129 -0.1627  0.1659  0.3600
10779W        W27040   2.880  12.678   2.525 -0.0585  0.0229 -0.0845
10780W        W27041  14.107  11.433  13.487 -0.1063 -0.1089  0.1038
10781W        W27042  12.337   1.383   3.115  0.0513 -0.1647  0.0828
10782W        W27043  13.029   2.460  12.702 -0.0271  0.1103  0.2684
10783W        W27044  13.629  17.571  16.381 -0.0673  0.0739  0.2404
10784W        W27045  17.030  13.685   5.095 -0.1999  0.2874 -0.2072
10785W        W27046  15.667   8.758   5.744  0.0072  0.3823 -0.0874
10786W        W27047  10.603  13.223  12.213 -0.0436 -0.1669 -0.1028
10787W        W27048   4.457  13.864  13.655  0.0319  0.0894  0.0629
10788W        W27049   3.353  12.492  12.090 -0.3311 -0.3072 -0.0801
10789W        W27050   5.761   6.401  11.785  0.0909 -0.3269 -0.2877
10790W        W27051  13.071  12.279   4.608 -0.0733  0.1533  0.2863
10791W        W27052   4.297  14.803  11.925  0.1389 -0.2256 -0.0308
10792W        W27053  13.359   8.358  14.767 -0.0500  0.4050 -0.2425
10793W        W27054   5.264  13.769  11.656  0.2042 -0.0891 -0.0616
10794W        W27055   9.475   0.784   2.584 -0.2798 -0.0093 -0.0899
10795W        W27056  11.464  16.276  12.763  0.0247 -0.0149 -0.2541
10796W        W27057  15.102  17.441  12.201 -0.0030 -0.3763  0.2111
10797W        W27058   0.027   0.674   0.491 -0.1907 -0.0652 -0.2694
10798W        W27059  10.437   7.340   0.514 -0.2460 -0.1036  0.1577
10799W        W27060  16.475  17.379   3.004  0.3392  0.1249  0.0638
10800W        W27061  14.144  16.335  14.955 -0.2220 -0.6453  0.0627
10801W        W27062   6.994  15.999   3.476  0.1527  0.1707  0.0162
10802W        W27063  14.271  17.525   2.163  0.4109 -0.2800 -0.0185
10803W        W27064  16.001   8.227   1.775  0.2028 -0.0716  0.1101
10804W        W27065   6.231   3.900  13.828 -0.0167  0.0794 -0.2909
10805W        W27066   5.671  15.121  16.762  0.0405  0.1100 -0.0452
10806W        W27067  10.712  15.413   3.735  0.5220 -0.1824  0.2247
10807W        W27068   5.696  16.545  12.541  0.0763 -0.0266  0.4858
10808W        W27069   7.588  10.489  13.879 -0.0689  0.0486  0.0248
10809W        W27070  17.454  16.166  12.748  0.2889 -0.1448  0.1860
10810W        W27071  10.160  15.763  12.383  0.2997 -0.1182  0.1582
10811W        W27072  13.337   3.944   1.568 -0.2011  0.0894  0.2628
10812W        W27073   9.597   8.167  16.525  0.0403 -0.2220 -0.0617
10813W        W27074  11.567   4.341   3.706 -0.1710  0.0122  0.2389
10814W        W27075  14.127  16.155   0.918 -0.4179 -0.0470  0.0405
10815W        W27076  11.697  17.160   3.581  0.0970  0.0872 -0.2808
10816W        W27077   1.351   1.324   3.323  0.0363  0.1109  0.0233
10817W        W27078  13.509  17.064  14.965  0.1398  0.1819 -0.0096
10818W        W27079   8.925   7.589   5.192  0.0973  0.0550 -0.0237
10819W        W27080   1.698   0.290  12.131  0.0587 -0.1513  0.0498
10820W        W27081   9.762   6.860  13.364  0.0990 -0.2575 -0.0105
10821W        W27082   1.851  17.276   3.033 -0.2635 -0.0262  0.0245
10822W        W27083   4.600  10.754   3.257  0.1004 -0.2191  0.0095
10823W        W27084  15.546   6.545   1.977  0.0709  0.0211  0.2745
10824W        W27085   5.196   0.993  15.105 -0.3414  0.2955 -0.0358
10825W        W27086  15.514   0.249   4.156  0.0329  0.1672 -0.3608
10826W        W27087  11.568   4.378   1.906 -0.1614 -0.0136  0.0296
10827W        W27088  16.321   4.520   4.880  0.2775  0.0609  0.0415
10828W        W27089  10.673  11.798   0.575 -0.1701  0.1981  0.0352
10829W        W27090   4.751   0.613   5.941  0.2900 -0.2076 -0.0296
10830W        W27091   1.614   5.127   1.947  0.2488  0.0569  0.0663
10831W        W27092  13.866   5.559  11.902 -0.3303 -0.1489  0.2714
10832W        W27093  12.126  10.216   5.063  0.0596  0.0172 -0.0119
10833W        W27094  12.461   7.668  14.237  0.0515  0.0808 -0.0945
10834W        W27095   5.491   9.279   5.368  0.1974 -0.0399  0.2433
10835W        W27096   6.708   2.907   0.530  0.0843  0.0002 -0.0885
10836W        W27097  13.492   9.927   5.166  0.1381 -0.2686  0.1743
10837W        W27098   2.960   0.893  13.537  0.2523 -0.1262 -0.1490
10838W        W27099  17.529  10.010  16.651  0.0686  0.1683  0.1804
10839W        W27100  16.620   1.518  16.513 -0.0246  0.0350 -0.1912
10840W        W27101  10.987   7.118  15.888  0.1995  0.1712  0.1074
10841W        W27102  17.575   2.240  14.234 -0.3010  0.3031 -0.1284
10842W        W27103   2.160   1.914  12.724  0.0131 -0.1057 -0.1645
10843W        W27104   9.563  12.290   2.561 -0.2884 -0.0541  0.2793
10844W        W27105  11.281  13.363   5.065 -0.2180  0.3139 -0.1287
10845W        W27106  14.031  13.943   2.818  0.3349 -0.0392  0.1393
10846W        W27107  16.370   8.864   2.259  0.1043 -0.1570 -0.2556
10847W        W27108   0.219  15.556   4.499 -0.0789  0.0602  0.1058
10848W        W27109   6.708   6.817  12.952  0.0276 -0.1676 -0.1141
10849W        W27110   4.503  14.089  13.208 -0.1002  0.1892  0.1146
10850W        W27111  11.074  17.246  15.229 -0.0094 -0.0315  0.1118
10851W        W27112   6.468   2.677  16.056  0.2300  0.0430  0.2017
10852W        W27113  16.606   4.379   4.206 -0.0611 -0.0233  0.0953
10853W        W27114  14.205  14.826  12.927  0.0559  0.0864 -0.2611
10854W        W27115   1.585   4.075   2.679 -0.0609  0.1579  0.0102
10855W        W27116   5.349  10.980   4.129  0.1392  0.0231  0.0066
10856W        W27117  10.814   3.259  15.964 -0.2300  0.0416 -0.1904
10857W        W27118  13.307  14.625  13.941  0.0619  0.1840  0.1528
10858W        W27119   6.587   2.862   3.363  0.1279  0.0069 -0.0423
10859W        W27120  13.317   0.547  15.185 -0.1082  0.3373  0.0939
10860W        W27121   3.264   1.769   6.159  0.0818  0.1731  0.0776
10861W        W27122   5.086   8.332   4.975 -0.0457 -0.5129  0.0103
10862W        W27123  14.748  17.197   2.342  0.1162  0.3389 -0.1387
10863W        W27124   3.325   9.729   1.890 -0.1806  0.2149 -0.1598
10864W        W27125  17.621   7.296  14.053  0.1589  0.2600 -0.2934
10865W        W27126   8.043   7.551   0.766  0.2244  0.1933  0.2853
10866W        W27127   8.087  12.583   4.518 -0.0305 -0.2761  0.3088
10867W        W27128   6.021  14.684   2.837  0.1109  0.1899 -0.0998
10868W        W27129   6.749   7.915  12.647 -0.2154 -0.1297  0.0035
10869W        W27130  13.188   6.697   4.502 -0.2196  0.2334  0.2762
10870W        W27131   5.541   3.810   0.043 -0.1767  0.3177  0.3931
10871W        W27132   3.619   4.081   6.203 -0.3259 -0.2219 -0.1317
10872W        W27133  14.088   8.986  15.582 -0.1640 -0.5127  0.2259
10873W        W27134   4.223   8.532   5.708 -0.0545 -0.1139 -0.2504
10874W        W27135  16.539  17.175  15.743  0.1798  0.0506  0.3732
10875W        W27136   6.670  13.322   5.579 -0.2985 -0.2479  0.2255
10876W        W27137  11.063   3.032  12.461 -0.0347 -0.2333 -0.1519
10877W        W27138   1.860   0.998   4.698 -0.1204 -0.2110 -0.1036
10878W        W27139   8.412   4.836   1.745 -0.2095  0.1734 -0.1500
10879W        W27140  10.235   8.238   0.592  0.3474 -0.0976  0.1021
10880W        W27141   6.360   7.167   2.952  0.0310  0.1421  0.1573
10881W        W27142   5.206  15.530  12.424 -0.3963  0.0327 -0.2034
10882W        W27143   1.095  16.100   5.392 -0.1195 -0.0853 -0.0565
10883W        W27144   4.860  16.733   2.266 -0.1453  0.1673  0.0476
10884W        W27145   6.623  14.093  15.315  0.1501 -0.0020  0.1583
10885W        W27146   8.810   4.031  14.883 -0.1014  0.0319  0.4672
10886W        W27147  12.142  15.800  14.743 -0.1033  0.0391  0.1245
10887W        W27148   2.227   2.334  15.634 -0.1193 -0.0336  0.2035
10888W        W27149   2.415   4.421   5.519  0.0738 -0.0442 -0.0288
10889W        W27150   1.664  12.763  15.195  0.0724  0.3579  0.0880
10890W        W27151   7.993   5.118   3.390  0.0665 -0.1882  0.2009
10891W        W27152   7.229  12.267   4.659  0.0794  0.0761  0.3876
10892W        W27153  10.894   2.061  12.633  0.1344 -0.0848  0.0828
10893W        W27154  11.806   9.726  12.571 -0.0784  0.3091  0.0194
10894W        W27155   9.670  15.047   3.818  0.1587 -0.0553  0.0790
10895W        W27156   9.022  10.169  16.232 -0.0682 -0.0029 -0.1718
10896W        W27157   5.567   1.156   1.438 -0.0103  0.0817 -0.1183
10897W        W27158  17.454   9.997  13.454  0.2757  0.1691  0.1815
10898W        W27159   7.610   8.394   0.096  0.1060 -0.2045 -0.1790
10899W        W27160  10.788  13.999  13.787  0.1472 -0.1088 -0.0056
10900W        W27161  10.823   3.553  11.620 -0.3956  0.0331 -0.2763
10901W        W27162   1.604  11.111  14.385  0.2263 -0.0365  0.4763
10902W        W27163   6.903   4.616   5.054 -0.1241 -0.0664  0.1229
10903W        W27164   6.755   2.940  16.894 -0.0655  0.0775 -0.4076
10904W        W27165   0.827  13.322   5.205 -0.0407  0.1422 -0.1931
10905W        W27166   2.057  17.262   3.517 -0.1193  0.1341  0.1368
10906W        W27167  10.522   0.830   2.832 -0.2728 -0.0042  0.0865
10907W        W27168  15.657   3.348   4.449 -0.0542  0.0599 -0.2215
10908W        W27169   5.351   7.668   2.905 -0.0623 -0.1309  0.2623
10909W        W27170   3.055   5.697   5.087 -0.2095 -0.1011 -0.0372
10910W        W27171   2.208  16.544   4.122  0.0799  0.0527 -0.1620
10911W        W27172  16.824  11.703  15.017  0.1273 -0.0587 -0.1734
10912W        W27173   4.373   2.871   0.687  0.2841 -0.0766 -0.0389
10913W        W27174   3.453   1.055   5.384  0.3586  0.2114 -0.0318
10914W        W27175   8.215   0.857  16.761  0.0251  0.0473  0.0269
10915W        W27176   6.510   6.114  16.264 -0.3218  0.1559 -0.4566
10916W        W27177  12.565   4.587  15.457 -0.1983 -0.0018  0.2116
10917W        W27178   5.361  13.535   0.648 -0.2412 -0.4983  0.0400
10918W        W27179  16.462  16.161   1.526 -0.5841  0.1431 -0.0645
10919W        W27180  17.185   9.479   1.308  0.2795  0.0473 -0.0523
10920W        W27181   9.507  11.164  16.524  0.0794 -0.1786 -0.0646
10921W        W27182  13.922   0.019  11.449 -0.2032 -0.0836 -0.0557
10922W        W27183   2.776   5.139   2.162  0.0043  0.0253  0.0452
10923W        W27184   5.757   5.737   2.736 -0.0083  0.0627 -0.0231
10924W        W27185   4.370  10.924   2.036  0.0430 -0.0552 -0.0575
10925W        W27186   2.502   4.960  15.686 -0.0272  0.0100  0.0274
10926W        W27187   2.345  14.742  15.004 -0.0507 -0.2333  0.1961
10927W        W27188   5.240   2.769   1.144  0.0277 -0.2218 -0.0653
10928W        W27189  12.452   5.971   4.015 -0.0987 -0.0292 -0.1815
10929W        W27190   6.110  12.366  14.266 -0.0468  0.1206 -0.0460
10930W        W27191  10.167   4.313   4.511  0.1961  0.3850 -0.1847
10931W        W27192   4.103   6.681  16.773  0.1021 -0.1167  0.0031
10932W        W27193   3.436   3.498  11.736 -0.0192  0.1017  0.1126
10933W        W27194   8.370   8.655  13.954 -0.0160 -0.0415  0.0518
10934W        W27195   5.958  10.737  15.956 -0.5043 -0.1184  0.0198
10935W        W27196   6.920  16.605   1.482 -0.0923 -0.0718 -0.0751
10936W        W27197  17.329  11.974   2.744  0.2110 -0.1738 -0.0675
10937W        W27198   1.091  12.433   6.500 -0.0768 -0.0604 -0.2551
10938W        W27199  14.971   6.277  12.348 -0.1481 -0.1708  0.0095
10939W        W27200   7.114   6.590  13.346 -0.0694  0.0155  0.3254
10940W        W27201   5.107   6.627   1.245 -0.1337 -0.4002 -0.1229
10941W        W27202   6.204   0.627  14.917 -0.0260  0.1421  0.1229
10942W        W27203   8.587  11.048  15.043  0.3124 -0.1120 -0.1036
10943W        W27204   5.227   9.761  15.402  0.1638  0.1303  0.0139
10944W        W27205  17.133  14.408   6.594  0.1727 -0.2836  0.3373
10945W        W27206   5.589   0.544  15.193 -0.0696  0.3527 -0.0970
10946W        W27207   6.434   0.360  14.264 -0.0253 -0.0633  0.1354
10947W        W27208  17.061   2.189  16.390  0.0629  0.3099 -0.0131
10948W        W27209   9.203  11.777   3.853  0.2045 -0.1149 -0.1544
10949W        W27210   0.646  15.713   1.747  0.1573  0.0837 -0.1812
10950W        W27211  12.243   5.303   1.320  0.1329 -0.0759 -0.2606
10951W        W27212   0.771  15.517   4.310  0.1019 -0.0281 -0.2011
10952W        W27213  14.647  14.509  16.216  0.3349 -0.0985  0.1125
10953W        W27214   4.662   3.889  11.942 -0.1683 -0.2971  0.1387
10954W        W27215   9.218   8.475   3.021  0.1255 -0.3594 -0.1283
10955W        W27216   6.784  15.234  12.397  0.2056 -0.1410  0.2802
10956W        W27217   2.963  11.699  15.540 -0.1122  0.0132  0.0720
10957W        W27218   1.822  14.730  15.324  0.3381  0.1070 -0.1599
10958W        W27219   7.431  10.828   4.673 -0.0556 -0.2160 -0.2905
10959W        W27220   0.472   9.962  12.239  0.1761 -0.2118 -0.3553
10960W        W27221  13.336   7.196   6.138  0.0638  0.0274 -0.2156
10961W        W27222  12.056   0.235  15.981  0.0065 -0.1335  0.3142
10962W        W27223  11.456  14.890   3.811 -0.1883  0.1022 -0.0028
10963W        W27224   4.355  12.047  15.667 -0.0320 -0.2300 -0.1792
10964W        W27225   7.303  17.564  12.668 -0.1461 -0.0795  0.4651
10965W        W27226   3.104  14.510   3.013 -0.1662 -0.3014 -0.0513
10966W        W27227   5.676   0.402  11.214  0.2258  0.2468  0.2428
10967W        W27228   6.683   3.644  13.167 -0.2892 -0.4331 -0.1291
10968W        W27229   9.746  14.254  13.581 -0.1510  0.1437  0.1629
10969W        W27230  11.081  12.832   2.574 -0.3097  0.1679  0.0714
10970W        W27231  15.128   0.004  14.854  0.0823  0.0970  0.0066
10971W        W27232  13.212   7.356  14.760  0.1123 -0.1994 -0.0251
10972W        W27233  17.634  14.603   0.949  0.1638  0.1134  0.0758
10973W        W27234  12.425   3.726   1.125  0.1477 -0.1000 -0.0822
10974W        W27235  16.213   2.638   2.373  0.2728  0.2638  0.3035
10975W        W27236   1.263   8.292   4.412  0.1318  0.3277  0.2061
10976W        W27237  13.708   4.583  15.687  0.3969  0.2692  0.0599
10977W        W27238   9.045  11.371  16.173  0.2333 -0.2283  0.1024
10978W        W27239   5.426  13.518  14.040  0.0277  0.0348  0.3895
10979W        W27240   2.988  13.179   2.522 -0.1280  0.0280 -0.1016
10980W        W27241   7.729  13.516   5.333  0.0672  0.1933  0.0153
10981W        W27242   9.058  17.615  13.396  0.3031  0.0804  0.0512
10982W        W27243  16.307  15.762   2.508 -0.2587  0.2290 -0.1174
10983W        W27244  12.193   7.453  16.606  0.0077 -0.2522 -0.0806
10984W        W27245   6.413  15.356  16.974 -0.2508  0.1316 -0.0109
10985W        W27246   8.952  17.306   3.746 -0.1453 -0.0492 -0.1217
10986W        W27247   5.451   4.221   4.440 -0.0689 -0.3321  0.0081
10987W        W27248   3.413  10.133   3.207  0.0393  0.2098  0.1073
10988W        W27249   0.700   2.962   4.966 -0.2822  0.0821 -0.0712
10989W        W27250  14.702  12.484  13.004  0.0326  0.1316  0.1332
10990W        W27251  10.617   3.468   3.385  0.2989  0.0321 -0.2139
10991W        W27252   7.674   0.664   4.681  0.0904 -0.0275  0.1241
10992W        W27253  15.135   1.617  13.258 -0.0617  0.2189 -0.0219
10993W        W27254  14.675  13.105  16.404  0.1789  0.0920 -0.0835
10994W        W27255  11.984   5.169   5.386  0.2766 -0.0065  0.2166
10995W        W27256   2.987   5.634  11.215  0.1554  0.1875  0.2520
10996W        W27257   3.695   3.481  15.232  0.4221 -0.3509  0.0474
10997W        W27258   0.527  16.236   3.024  0.0791  0.1028 -0.0045
10998W        W27259   5.145  10.852   3.139  0.0576 -0.1483 -0.2136
10999W        W27260  11.723   5.575   5.418  0.1696  0.1033  0.2751
11000W        W27261   3.548  14.199  11.920  0.0505  0.2217 -0.0157
11001W        W27262   0.178  16.464   2.137  0.1273  0.0037 -0.0354
11002W        W27263   4.347   1.568   2.884 -0.0108  0.1120 -0.1657
11003W        W27264  13.344   9.445   2.381  0.0010  0.0755 -0.1693
11004W        W27265   3.521  11.355  12.598  0.1432  0.2616  0.0105
11005W        W27266   6.405  11.269  14.300  0.0427 -0.0076  0.1349
11006W        W27267  16.426   3.659  12.625  0.0096  0.1396  0.0185
11007W        W27268   4.252   8.066  14.202 -0.3911 -0.2180  0.1234
11008W        W27269   4.605  13.389   2.356  0.1010  0.0505  0.0039
11009W        W27270   7.310  11.928   4.296 -0.1614 -0.1134  0.2490
11010W        W27271  16.569  11.338   2.864 -0.1371 -0.0467  0.1620
11011W        W27272  13.717  14.269  14.027 -0.0437  0.0689 -0.1451
11012W        W27273   1.859  10.410  15.132 -0.0191 -0.1120  0.0326
11013W        W27274  11.195  15.588  16.171 -0.1618  0.0391 -0.1974
11014W        W27275  16.982  16.433   0.445 -0.1187  0.0092 -0.3163
11015W        W27276   4.611   9.435  14.765  0.1168 -0.0230  0.0456
11016W        W27277   2.159   1.020  16.821  0.3196 -0.0021 -0.1004
11017W        W27278   7.607   7.547   0.490 -0.1428  0.0593 -0.2335
11018W        W27279   2.379   9.348   0.276  0.2066 -0.1849  0.3398
11019W        W27280   4.212   3.921  11.088  0.0969 -0.1017 -0.0383
11020W        W27281  15.958   7.090  15.760  0.1217  0.1098 -0.2101
11021W        W27282  13.733   4.430   5.444  0.0281 -0.1505  0.2645
11022W        W27283   2.718  17.731  13.878 -0.2938 -0.0109  0.1116
11023W        W27284   0.169   2.226   2.389 -0.1666 -0.1550  0.1308
11024W        W27285   8.587   4.420   3.356  0.2350  0.1133 -0.1117
11025W        W27286   1.686   7.515   5.778 -0.1317 -0.1044 -0.2848
11026W        W27287  12.847   6.373   4.328 -0.1319 -0.1874  0.0859
11027W        W27288   2.890   9.972   4.364 -0.0619 -0.1511  0.1205
11028W        W27289  14.241   1.398   4.007 -0.0054 -0.3118  0.1969
11029W        W27290   4.662   0.469  12.088 -0.0536  0.1269  0.0864
11030W        W27291  10.190  17.444  14.160 -0.0532 -0.1489 -0.1128
11031W        W27292  10.795   5.972  13.190 -0.3252 -0.0792  0.0565
11032W        W27293   9.080   9.898  15.098  0.0027 -0.0886 -0.0925
11033W        W27294  16.132   3.961   0.833 -0.4479  0.0853  0.0824
11034W        W27295  14.082  10.804  16.579 -0.1972  0.0762  0.1778
11035W        W27296   1.673   1.589  11.741 -0.2164 -0.3376 -0.1485
11036W        W27297  15.793  17.102  14.568  0.0305  0.2257 -0.0394
11037W        W27298  11.733   6.933  13.991  0.1290  0.1659 -0.2018
11038W        W27299   5.797  16.203   4.104  0.3626 -0.1099  0.1569
11039W        W27300   7.442   4.298   2.496  0.1490 -0.0028  0.0243
11040W        W27301  14.387  17.004   3.097  0.2067 -0.2372 -0.3362
11041W        W27302   5.391  12.417   2.565 -0.0971 -0.2309 -0.1000
11042W        W27303  14.615   7.172   3.225  0.0643 -0.1607  0.0271
11043W        W27304  11.315   4.636   0.419  0.1797 -0.0261 -0.0744
11044W        W27305  11.805  13.272  14.589  0.2154 -0.0168 -0.0920
11045W        W27306  13.683   6.945   5.849  0.4414  0.2060 -0.4373
11046W        W27307   6.925   7.769   1.009 -0.0175  0.0172  0.0181
11047W        W27308  10.529  12.194   1.993 -0.0033 -0.0022  0.1412
11048W        W27309   0.169   4.028   4.786 -0.0178 -0.0361 -0.0639
11049W        W27310  16.106  13.474  15.224 -0.0715  0.1396  0.1868
11050W        W27311   6.652   1.230   3.433  0.0531 -0.1726  0.2461
11051W        W27312   8.447  15.042  14.757  0.2221  0.0955  0.1090
11052W        W27313   7.338  11.219   3.435  0.2229 -0.1712 -0.1418
11053W        W27314   2.907  13.512   2.903 -0.1458 -0.1993  0.0154
11054W        W27315  15.678  16.322   4.615  0.0691  0.1435  0.0806
11055W        W27316   6.040   5.081   3.556  0.1633  0.0655 -0.4102
11056W        W27317  12.578   2.116   5.948  0.0441 -0.1334 -0.0962
11057W        W27318   8.222   5.610   1.045 -0.0849 -0.0051 -0.1291
11058W        W27319   1.822  14.238   1.507  0.3142 -0.2356  0.1017
11059W        W27320   1.867  16.750  15.140 -0.0159  0.0446 -0.1985
11060W        W27321   0.560   0.190  14.895 -0.1910 -0.1063 -0.2653
11061W        W27322  14.390  14.094   5.339 -0.1427 -0.2024 -0.0908
11062W        W27323  11.058   2.155  15.492  0.1470 -0.0808  0.0657
11063W        W27324   2.213   4.329  11.939 -0.1294  0.1403  0.0426
11064W        W27325  17.461   1.108   2.891 -0.1049  0.0156  0.0747
11065W        W27326   7.020  12.712   4.275  0.0721 -0.0432 -0.1557
11066W        W27327   4.758  17.759  15.969 -0.1013 -0.1578 -0.2265
11067W        W27328   3.090   4.422   0.869  0.1295 -0.0995  0.0828
11068W        W27329   1.905  14.329   3.502  0.2010 -0.0776  0.2688
11069W        W27330  13.335   3.039  11.950  0.0736 -0.1234  0.0692
11070W        W27331   7.092   3.142  16.528 -0.1555  0.0531  0.0960
11071W        W27332  11.147   0.096   3.606  0.2279  0.2226  0.0078
11072W        W27333  15.078  16.419   1.172  0.1369 -0.1387  0.2160
11073W        W27334   5.489   2.796   0.674  0.0475 -0.1665 -0.2079
11074W        W27335   8.155   8.308  14.358  0.2492  0.0463 -0.0861
11075W        W27336   6.017  10.838   5.543  0.2127 -0.1613 -0.0768
11076W        W27337   0.906  13.238   1.143  0.0609 -0.2665 -0.1339
11077W        W27338  12.050  11.439   5.196  0.0298 -0.1365 -0.0991
11078W        W27339  14.142   4.895  15.681  0.2081 -0.0509  0.1586
11079W        W27340  11.429   7.360  13.945 -0.2203  0.0101 -0.0644
11080W        W27341   4.553   7.585  14.960 -0.2908  0.0591 -0.0078
11081W        W27342   7.243  10.485   0.062 -0.1693  0.0382 -0.0856
11082W        W27343   7.147   4.225   4.142 -0.0805 -0.1027 -0.3895
11083W        W27344  15.999  17.366  13.905  0.0520 -0.1130 -0.1329
11084W        W27345   9.636  17.694   4.854  0.1015 -0.2724 -0.1701
11085W        W27346  14.334  14.520   3.599 -0.1985  0.3435 -0.0793
11086W        W27347  12.970   7.543   0.109 -0.0853  0.2886  0.5062
11087W        W27348   5.473   0.796   1.090  0.0145  0.0567  0.0120
11088W        W27349   5.724   6.096  12.772 -0.2549 -0.0895  0.2650
11089W        W27350  11.218  10.615   2.460 -0.1057  0.0386 -0.1487
11090W        W27351  13.210   6.935   2.263 -0.0201 -0.0567  0.1784
11091W        W27352   5.800   7.601  12.669 -0.1546 -0.1401 -0.0498
11092W        W27353   4.350   8.446   6.275  0.0480 -0.0245 -0.1570
11093W        W27354   8.763   5.111  16.086 -0.2096  0.0447 -0.0874
11094W        W27355  10.506  11.130   5.050  0.0211  0.0594 -0.2138
11095W        W27356  17.749   1.880  11.883  0.2214  0.2627 -0.0761
11096W        W27357  11.894   7.745  13.209  0.2426 -0.1807  0.0065
11097W        W27358   8.015   2.878  13.125 -0.1732 -0.0841 -0.0704
11098W        W27359   9.877   8.252   2.514 -0.1113 -0.1239  0.2907
11099W        W27360  13.530   7.542  13.971 -0.2523  0.1937  0.0143
11100W        W27361  11.726  11.365   1.476 -0.2836  0.3240  0.4126
11101W        W27362   7.462  16.056   4.861 -0.1949  0.3915 -0.1000
11102W        W27363   6.498  14.188   1.580 -0.0275  0.1177 -0.1407
11103W        W27364   8.872   5.249  11.213  0.3035  0.1146  0.1896
11104W        W27365   5.900   8.740   4.902 -0.0767 -0.0665  0.1906
11105W        W27366   3.025   8.916  13.349 -0.1377 -0.1235 -0.1021
11106W        W27367  11.804  17.418   0.347  0.3882 -0.3164 -0.4180
11107W        W27368  15.984  15.683   3.709  0.2285 -0.1676 -0.3817
11108W        W27369   5.751   4.920   2.291 -0.0558 -0.1735  0.2749
11109W        W27370  16.138  11.469  14.366  0.1980  0.1475 -0.2512
11110W        W27371  14.488   5.426  15.483  0.0357  0.0978 -0.3081
11111W        W27372   6.196   2.980  13.734  0.2604  0.1592  0.0025
11112W        W27373  16.624  16.422   4.004  0.0166 -0.0290 -0.0099
11113W        W27374   5.763   8.264   3.522  0.2070  0.0883 -0.1211
11114W        W27375  14.659  10.794  16.544  0.2180  0.1885 -0.0049
11115W        W27376   4.703  10.848   4.267 -0.3586  0.0384 -0.0391
11116W        W27377   4.141  11.622  16.548 -0.0920 -0.0965  0.0046
11117W        W27378   5.934   3.060  13.295  0.1032  0.1154 -0.1148
11118W        W27379  12.224  10.594   5.709  0.0484 -0.2305 -0.0840
11119W        W27380  15.289   1.960  13.675 -0.1094  0.0584 -0.3521
11120W        W27381   5.646   5.990  16.171  0.3380  0.0483 -0.1421
11121W        W27382  15.221   1.236   6.230  0.1329  0.1574  0.3750
11122W        W27383  15.283  11.598   6.064 -0.2829 -0.1556 -0.0331
11123W        W27384   2.660   8.259  15.033  0.2224 -0.0012  0.1127
11124W        W27385   5.113   1.253  16.593 -0.0822 -0.2334  0.2388
11125W        W27386   2.556  12.931   1.672  0.4527 -0.2175 -0.0922
11126W        W27387   1.932  13.070   2.812 -0.1705  0.1240 -0.2384
11127W        W27388   3.538  11.146   0.377  0.0832 -0.5449 -0.0238
11128W        W27389   3.976  11.131   1.169  0.0189 -0.2647 -0.0325
11129W        W27390  14.213   6.515   5.624  0.2280 -0.0580  0.0983
11130W        W27391   8.111   1.508   4.705  0.2405 -0.1106  0.2416
11131W        W27392   9.754   7.755   3.283  0.0334 -0.2927  0.2510
11132W        W27393  15.061   8.302   2.120  0.0753  0.0832 -0.1243
11133W        W27394  13.659  10.393  11.449  0.1174 -0.1230 -0.4220
11134W        W27395  10.219   9.923   4.497 -0.2463 -0.2776  0.0567
11135W        W27396  17.150  13.290  12.128 -0.2497  0.4429  0.0557
11136W        W27397   6.619  15.001   0.337 -0.0574 -0.0291  0.1148
11137W        W27398   3.109  10.856  13.774 -0.1206 -0.3437  0.2020
11138W        W27399  15.439   4.333   1.557 -0.2076 -0.0991 -0.0810
11139W        W27400  13.955   3.852  16.587  0.2975 -0.0525 -0.0131
11140W        W27401   9.045   4.191  16.184 -0.0084  0.0779  0.1514
11141W        W27402   8.004  14.257  13.216  0.1298 -0.1109 -0.1558
11142W        W27403   8.184   2.752   5.214 -0.0236 -0.0037 -0.0823
11143W        W27404   8.823   3.430   0.543 -0.0199  0.1188  0.1738
11144W        W27405   5.797  12.729  14.479 -0.0575 -0.3305 -0.1545
11145W        W27406  15.875  15.205  16.430 -0.0249  0.0957 -0.0894
11146W        W27407   8.768   5.365   3.885 -0.1029  0.3582 -0.2303
11147W        W27408   5.536   1.417   3.151 -0.0214  0.0673 -0.2274
11148W        W27409  13.706   0.486   0.597 -0.1410  0.0122  0.0100
11149W        W27410   1.257   6.014   2.183  0.0061  0.0550  0.3495
11150W        W27411   1.941  10.721  15.972  0.0840 -0.1276  0.2109
11151W        W27412  10.860  13.942  12.969 -0.0933  0.1462  0.3750
11152W        W27413  14.013   9.404  13.417 -0.2356  0.2227  0.2866
11153W        W27414   7.792  17.433  16.379 -0.1008 -0.0301 -0.0449
11154W        W27415   3.463   8.235   0.593 -0.0564  0.0259 -0.0815
11155W        W27416   5.301  12.904  13.280  0.4163  0.0436 -0.1752
11156W        W27417  15.030   3.770   3.056 -0.1299 -0.0258 -0.1030
11157W        W27418  14.829   0.132   1.127  0.0543  0.1270  0.1494
11158W        W27419   7.473   3.527  11.854  0.2132 -0.1142  0.2704
11159W        W27420  10.178  10.269   4.057  0.3797 -0.2498 -0.0419
11160W        W27421   4.481   5.640   0.034  0.2252 -0.1301 -0.1103
11161W        W27422  11.005   5.443  15.312 -0.1116  0.0519 -0.2445
11162W        W27423  13.967  17.431  13.614 -0.0256  0.0152  0.0299
11163W        W27424   4.369   4.816   4.182  0.0870  0.1503 -0.3033
11164W        W27425   8.050  11.806  15.301  0.1222 -0.2065  0.1474
11165W        W27426  14.218   3.397   3.187  0.0536  0.0940  0.0136
11166W        W27427   2.858  11.462   1.931  0.1161  0.1107  0.1359
11167W        W27428   7.459  15.889   3.334 -0.0055  0.1852 -0.1915
11168W        W27429   1.518  12.456  12.452  0.2205 -0.1544  0.0705
11169W        W27430   3.143  12.384  13.346  0.0451  0.0413 -0.1456
11170W        W27431   2.888  17.224  16.929  0.2338  0.1276 -0.0707
11171W        W27432   3.862   6.151   3.902  0.2498 -0.1250  0.0420
11172W        W27433  13.786   4.247  14.648  0.0085 -0.0979 -0.0558
11173W        W27434  17.112   9.260  15.905  0.0840  0.2189 -0.2140
11174W        W27435   8.613   3.321  15.390 -0.1963  0.2163  0.1652
11175W        W27436   0.327  13.894   5.882  0.2920  0.2009  0.3444
11176W        W27437   6.919   5.862   2.749 -0.1920  0.2769 -0.0573
11177W        W27438   8.611   8.332   1.168 -0.1545 -0.2268  0.0487
11178W        W27439   3.463  11.053   1.451  0.0939  0.1112  0.1368
11179W        W27440  16.203  12.017   1.719  0.1139 -0.0213 -0.0129
11180W        W27441   2.103   3.551   0.433 -0.1626  0.2800 -0.0678
11181W        W27442   6.384  17.617   3.916 -0.0123  0.2348  0.0405
11182W        W27443  13.062   4.573   4.966 -0.0116 -0.2402  0.1072
11183W        W27444  16.339   4.036   6.747 -0.0277 -0.4113  0.0570
11184W        W27445  12.936  14.437  13.576 -0.1144 -0.1506  0.1828
11185W        W27446  16.180   7.044  12.028  0.0064  0.4854  0.1743
11186W        W27447  14.458  11.796   3.132  0.0675 -0.0940  0.1453
11187W        W27448  16.338   6.068   1.812  0.1436  0.1470  0.1078
11188W        W27449   2.190  16.878   6.005 -0.0263 -0.4318  0.2227
11189W        W27450   8.246   7.394  15.597  0.0019  0.3367 -0.1851
11190W        W27451   7.948   6.181  16.648  0.3260  0.1480  0.1041
11191W        W27452  16.799  14.669   4.866  0.0274 -0.3725 -0.1624
11192W        W27453  11.528   6.200  14.999  0.0461  0.2910  0.2086
11193W        W27454   5.986   3.124   2.138  0.0062 -0.0981  0.3299
11194W        W27455   4.357  12.020   4.540 -0.2810 -0.0451  0.0073
11195W        W27456   4.468   5.864   4.814  0.2067 -0.2326  0.0497
11196W        W27457   8.886  10.439   1.608  0.0140 -0.2196 -0.2601
11197W        W27458   1.436   9.986   1.212 -0.4021 -0.2006 -0.1002
11198W        W27459  15.011  14.194  11.739  0.1183 -0.0742 -0.3136
11199W        W27460   8.191   3.238  16.661 -0.3030 -0.1116  0.0630
11200W        W27461   9.432  15.445   4.001 -0.4586 -0.2213 -0.1669
11201W        W27462   6.285  12.744   4.864  0.0914  0.1145  0.0345
11202W        W27463  17.065  15.481  15.454  0.1959  0.2397  0.1409
11203W        W27464   8.407  17.251   3.561  0.0457  0.1652 -0.2223
11204W        W27465  10.896  13.453  15.315  0.1781 -0.2786 -0.3086
11205W        W27466   6.599   1.107   5.257 -0.2713 -0.2226  0.1704
11206W        W27467   3.193   2.666  15.379 -0.2345 -0.0576  0.0475
11207W        W27468   8.357   3.313   0.170  0.0355 -0.1349 -0.2360
11208W        W27469  17.565   5.343  15.494  0.0671 -0.2453  0.1291
11209W        W27470  11.192  16.331   4.051 -0.0023 -0.4167 -0.1335
11210W        W27471   1.158  14.227  11.583  0.1352 -0.2417  0.2409
11211W        W27472  17.203   5.713  13.628  0.0326 -0.1219 -0.1203
11212W        W27473   0.574  12.169  13.511 -0.0829 -0.0782 -0.2685
11213W        W27474   7.336   0.327  13.209  0.1411 -0.2405 -0.2163
11214W        W27475  12.549   9.850   0.269  0.0135 -0.1280 -0.1274
11215W        W27476   4.008  16.647   1.447  0.2147 -0.0609 -0.0678
11216W        W27477   7.353  10.110  14.769 -0.0869  0.3327  0.2996
11217W        W27478   5.714   6.573  13.348 -0.0800  0.2382  0.1360
11218W        W27479   9.282   9.335  16.155 -0.1269 -0.1134  0.0212
11219W        W27480   0.072   6.204   1.596  0.2014 -0.1455  0.0966
11220W        W27481   3.537   1.263   4.032  0.0087 -0.0352  0.0523
11221W        W27482  14.331  13.446  15.678 -0.2504  0.0263 -0.0087
11222W        W27483   7.882  12.469   2.116 -0.0290 -0.1958 -0.2752
11223W        W27484   7.209  12.888  11.718 -0.0780 -0.0149 -0.0046
11224W        W27485   9.307   2.162   4.731  0.1886 -0.1242  0.1266
11225W        W27486   7.636   7.543  16.789 -0.3196 -0.1208 -0.0834
11226W        W27487   8.079  10.085  16.007  0.0940  0.1618 -0.5694
11227W        W27488   2.289   8.661  14.985 -0.1477  0.3262  0.2463
11228W        W27489  10.074  10.747  12.615 -0.3108  0.2034 -0.0021
11229W        W27490  11.684   6.945   2.765  0.4587 -0.0959  0.2926
11230W        W27491   0.386  14.323  16.005  0.2857 -0.0460  0.1725
11231W        W27492   5.197   0.429  16.097 -0.1557 -0.2075  0.0524
11232W        W27493   5.743  15.986  15.763  0.2250 -0.1325  0.1000
11233W        W27494   6.674  17.114  14.409 -0.0251  0.0750 -0.0818
11234W        W27495   4.067   0.972  15.512 -0.0557  0.0198 -0.5764
11235W        W27496   0.734   9.105   6.230  0.1542 -0.1637 -0.0451
11236W        W27497  10.111   0.921   3.147 -0.1340  0.2002  0.1238
11237W        W27498  12.504  11.198   3.515 -0.0975 -0.1213 -0.0624
11238W        W27499   0.173   7.190  11.387 -0.1126 -0.0532 -0.1179
11239W        W27500   4.351   5.338  11.913 -0.0462 -0.0312  0.2304
11240W        W27501   2.817   6.741   2.492 -0.0120  0.0900  0.1485
11241W        W27502  16.704   8.377   4.141 -0.4329  0.2173  0.2101
11242W        W27503   4.278   3.723   4.861  0.0758 -0.0589  0.0862
11243W        W27504   9.721  11.691   4.026 -0.1053 -0.1752  0.0879
11244W        W27505  15.055   5.148   2.158  0.2712  0.1603 -0.0054
11245W        W27506   1.976   7.872  16.633 -0.2890 -0.2990  0.3477
11246W        W27507   6.809   7.785  13.373  0.0149  0.1781  0.3784
11247W        W27508   5.994   3.507  16.299 -0.3746 -0.1563  0.0273
11248W        W27509   9.053   8.019  12.837  0.0976 -0.2181 -0.2259
11249W        W27510   6.756   9.413   5.769  0.2239  0.1034  0.0730
11250W        W27511  13.457  10.997  14.628 -0.0516 -0.2800 -0.2183
11251W        W27512  13.342  15.351  15.051  0.2080  0.1497  0.1762
11252W        W27513  11.287   2.860   1.844 -0.0030  0.0470  0.1910
11253W        W27514  16.522  12.000  13.541 -0.1042 -0.2571 -0.3357
11254W        W27515  17.244   3.006  15.236  0.1550  0.0294  0.1346
11255W        W27516   4.230   6.010   4.197 -0.1134 -0.1878  0.1963
11256W        W27517  13.290  10.050  14.292  0.0352 -0.0880 -0.1511
11257W        W27518  13.609   5.509   4.514 -0.0773  0.1167  0.1079
11258W        W27519   7.370   6.680   2.979 -0.0080 -0.1529  0.1228
11259W        W27520   1.156   4.130   1.376 -0.0751  0.2700 -0.1707
11260W        W27521   1.289   5.217  11.875  0.1419  0.2942  0.1179
11261W        W27522   9.016  15.596  12.271  0.1902 -0.1755  0.2638
11262W        W27523  15.994  14.134  15.711 -0.1155 -0.2361 -0.1566
11263W        W27524  17.346  12.319   0.121 -0.3840  0.0921  0.0174
11264W        W27525  17.644   8.914  14.758  0.2265  0.0463  0.3092
11265W        W27526   8.641  10.947   2.440 -0.1119  0.2126 -0.0818
11266W        W27527  12.216  13.785  15.798  0.0952  0.0833 -0.1630
11267W        W27528  17.756   9.846   2.505 -0.6365 -0.0665  0.1777
11268W        W27529   0.954   3.718   1.045  0.0379  0.1352  0.1116
11269W        W27530   8.122   7.096   4.712 -0.4957  0.0478  0.0304
11270W        W27531   4.605   8.945   5.515  0.0051 -0.1451  0.0013
11271W        W27532  14.167  13.184  13.989  0.0749  0.2416 -0.1793
11272W        W27533  15.852  12.853   3.181  0.0652 -0.1799 -0.3665
11273W        W27534  10.739   4.216   2.628  0.1177 -0.0014 -0.2335
11274W        W27535  10.583  12.553   5.910 -0.0183  0.1401 -0.3122
11275W        W27536   2.707   2.478   2.941  0.2440 -0.2571  0.1630
11276W        W27537  16.565   4.811   4.475 -0.1009 -0.0675 -0.1858
11277W        W27538  11.559   0.903  12.610  0.2926 -0.0418  0.0076
11278W        W27539   5.698  11.224   4.527  0.0886  0.2773  0.0669
11279W        W27540   7.050   1.501   5.861  0.0361  0.0047 -0.0589
11280W        W27541   3.063   0.669  15.914 -0.0656  0.0467  0.2183
11281W        W27542  11.612  13.420   0.587 -0.2493 -0.0315  0.1349
11282W        W27543  12.034   3.931   1.951 -0.3981 -0.0800 -0.2654
11283W        W27544  11.387  10.161  13.496  0.0351 -0.3337  0.1571
11284W        W27545   5.235   2.961  14.418  0.1349 -0.2873 -0.2337
11285W        W27546  15.987   6.336   2.022 -0.0836 -0.0704  0.0762
11286W        W27547  11.322   5.322   2.209 -0.0324 -0.1306 -0.4487
11287W        W27548  16.651   7.460   5.853  0.1591 -0.2939  0.0633
11288W        W27549   0.580  12.591   0.417 -0.1075  0.1266  0.1108
11289W        W27550   4.641  13.118   4.726 -0.3715  0.0663 -0.0607
11290W        W27551  11.146  15.546  13.095  0.1425 -0.2212  0.0454
11291W        W27552   7.596   4.893   4.706  0.0425 -0.0283 -0.1662
11292W        W27553   7.869   8.668   1.763 -0.0189 -0.3590 -0.1077
11293W        W27554  13.010   6.114   0.151 -0.0875 -0.1420 -0.0070
11294W        W27555  16.282   0.522   5.648  0.1620  0.1517  0.1996
11295W        W27556   4.090   2.584   6.083  0.0659  0.0017  0.1281
11296W        W27557   1.135   7.634  12.897 -0.0398  0.1089 -0.0386
11297W        W27558  14.205   2.133  14.916  0.1634 -0.2089  0.0715
11298W        W27559  11.663  14.420  13.158  0.5018  0.0724  0.2251
11299W        W27560   4.485   2.665   1.752 -0.1442 -0.3708  0.0795
11300W        W27561   1.183  11.663   6.008 -0.0712 -0.1404  0.3255
11301W        W27562   1.814  17.857   5.054  0.0706  0.0689 -0.0528
11302W        W27563   0.360  17.104   3.462  0.4499 -0.1087  0.0473
11303W        W27564   4.543   9.065   0.043  0.1226  0.1267  0.0739
11304W        W27565   7.427   2.062  16.922 -0.1302  0.1362  0.0346
11305W        W27566  10.597   1.602   2.909  0.0022 -0.3075 -0.0277
11306W        W27567  11.307   5.027  11.994  0.0022 -0.1960  0.2494
11307W        W27568  14.014  13.013   6.164  0.0143  0.0435  0.1574
11308W        W27569  11.341   4.462   2.648  0.0125  0.3923 -0.0242
11309W        W27570   7.369  11.259   5.448  0.0789  0.0992  0.2590
11310W        W27571   7.561   1.401  14.752 -0.1286  0.1148  0.1604
11311W        W27572   2.373   6.637  11.465  0.1429 -0.0201  0.1192
11312W        W27573   6.916   9.295   5.279  0.1162  0.0956  0.0746
11313W        W27574   9.907   8.324   4.792 -0.0668 -0.0016 -0.2142
11314W        W27575   6.074  11.703  15.117  0.0564 -0.2600 -0.1070
11315W        W27576   7.877  16.268   4.086  0.1121 -0.1375  0.0502
11316W        W27577  15.205   9.604   5.497 -0.0564  0.1411 -0.0362
11317W        W27578   3.837  17.605  15.410 -0.1380  0.1792  0.0600
11318W        W27579  15.552  10.489   3.579 -0.5900 -0.1493  0.1311
11319W        W27580   0.558   5.945  15.737 -0.0017 -0.1666  0.1247
11320W        W27581  11.862  15.078   2.725 -0.0073  0.2310  0.0385
11321W        W27582   5.699   5.275  12.425  0.1807  0.0695  0.0386
11322W        W27583   4.416   9.782   3.035 -0.0802  0.0535 -0.1242
11323W        W27584   2.973   4.338   1.896  0.2091  0.0055  0.2728
11324W        W27585   6.351   8.482   4.677 -0.0242 -0.3688 -0.0247
11325W        W27586   0.653  16.317  13.007 -0.0142 -0.1080 -0.1188
11326W        W27587   3.649   9.107   5.302  0.0367 -0.0579  0.0682
11327W        W27588  13.685   8.752   2.230 -0.1336 -0.1491 -0.0803
11328W        W27589   0.562   9.959   5.134  0.0122 -0.1580 -0.0838
11329W        W27590   8.224   0.276  13.116 -0.1141  0.0502  0.2294
11330W        W27591   1.579   4.854  11.935 -0.0571  0.4456 -0.0727
11331W        W27592   8.218   1.233  12.709  0.3791  0.0269  0.2752
11332W        W27593   9.407  15.603   5.313 -0.2395  0.1244  0.1404
11333W        W27594   1.139  17.839   4.943  0.3107  0.0183 -0.0778
11334W        W27595   4.060   0.500   2.024  0.0366 -0.0413 -0.3142
11335W        W27596   8.179  17.490   4.440  0.4937  0.0801 -0.2877
11336W        W27597  13.842   8.010   2.810  0.0650 -0.1895  0.3697
11337W        W27598   0.589   1.934   2.338 -0.2409 -0.3199 -0.1779
11338W        W27599   5.810   2.077   3.533  0.1419  0.1426  0.0498
11339W        W27600  13.252   1.359   6.702 -0.4301 -0.0703 -0.0864
11340W        W27601  10.926  10.091   2.677  0.2576 -0.2230 -0.2608
11341W        W27602   0.456  15.867   4.057  0.0115  0.1440  0.3393
11342W        W27603  12.681   6.830   4.629  0.0518  0.0490  0.0750
11343W        W27604  16.325  16.820   4.235 -0.0342  0.0452  0.0250
11344W        W27605  11.129  16.259   1.719  0.0759 -0.3208  0.3679
11345W        W27606   3.357   3.666   0.151 -0.1149  0.1439  0.1485
11346W        W27607   9.196   1.292  16.302  0.2790 -0.1177  0.0412
11347W        W27608   9.189  10.799   0.671  0.0692 -0.1462 -0.1288
11348W        W27609   4.893  14.537   2.258  0.1928 -0.2433  0.0008
11349W        W27610  11.463  15.042   4.265 -0.1777  0.0163  0.0901
11350W        W27611   5.920  17.315   0.122 -0.0143  0.1453 -0.3245
11351W        W27612   5.503  11.216  13.200  0.0429 -0.0232 -0.0368
11352W        W27613   3.481   8.745   5.917 -0.1014  0.1284 -0.0903
11353W        W27614   2.739   9.040   3.220 -0.0971 -0.0163  0.2059
11354W        W27615   7.424   7.347  14.430 -0.1175 -0.1867 -0.0144
11355W        W27616  13.007  17.342   4.419  0.0662  0.0552  0.0358
11356W        W27617   9.230   1.830  16.354  0.1645 -0.2061 -0.2736
11357W        W27618   5.423   3.574   4.844 -0.2191  0.1635  0.1103
11358W        W27619  11.890  17.262  15.610 -0.0884  0.1234  0.4199
11359W        W27620  13.783   3.285  16.405 -0.0120  0.0232  0.0626
11360W        W27621   9.502   1.823   5.029 -0.1317 -0.4309 -0.1828
11361W        W27622   7.854  14.905   2.229 -0.0119  0.1506  0.0748
11362W        W27623   3.478  11.497  15.737 -0.0260  0.0193 -0.0982
11363W        W27624   0.356   1.799  16.388 -0.2386 -0.3160 -0.0494
11364W        W27625   8.035  17.270  15.925  0.0664 -0.0001 -0.0718
11365W        W27626  13.939   5.179  12.444  0.0227  0.3621 -0.2016
11366W        W27627  13.023  12.609   2.265 -0.0030  0.1807  0.0958
11367W        W27628  15.213   2.929   2.705 -0.2114  0.0854 -0.4089
11368W        W27629  17.124  14.834  16.503  0.1246  0.2780 -0.0980
11369W        W27630   6.549   8.218   2.009 -0.1714  0.3172  0.1717
11370W        W27631   7.083  17.840  13.009  0.1243  0.2651  0.0974
11371W        W27632   9.309   9.526   1.102 -0.0116 -0.0114  0.3565
11372W        W27633  11.829   1.804  12.376 -0.0702 -0.0611 -0.3446
11373W        W27634  12.480   4.400  12.779  0.3470  0.0186  0.0003
11374W        W27635   5.743   9.977  13.937 -0.0312 -0.1677 -0.1041
11375W        W27636  16.796  17.096  12.205 -0.0514 -0.1949 -0.0322
11376W        W27637   3.585   2.141   1.978  0.3685  0.0382 -0.0602
11377W        W27638  14.399  10.718   4.632  0.0060 -0.0008 -0.2208
11378W        W27639   0.317   7.778   3.905  0.0168  0.1574  0.2051
11379W        W27640   5.941  12.579  11.669 -0.1755 -0.3122 -0.1246
11380W        W27641  15.049  13.192   3.030  0.1572  0.1663 -0.2930
11381W        W27642  11.855  11.061  14.335 -0.0691  0.2481  0.3205
11382W        W27643   6.771  11.534   0.785  0.1455  0.0935 -0.1456
11383W        W27644  12.520   7.596   5.860 -0.1340  0.0535  0.3620
11384W        W27645  12.860   3.189   1.671  0.3247  0.1103  0.0362
11385W        W27646   3.185   6.333   2.364 -0.3767  0.0322 -0.1379
11386W        W27647  12.517   3.038  16.262 -0.0852 -0.0619  0.0510
11387W        W27648  13.485   2.210   1.041 -0.0571 -0.2689 -0.1602
11388W        W27649   1.769  15.931   0.748 -0.0213  0.2199  0.0054
11389W        W27650  15.054  10.406   0.654  0.0219  0.2195 -0.3183
11390W        W27651  11.405  17.159   0.088 -0.1211 -0.1145  0.0463
11391W        W27652   1.299  14.644  13.817  0.0209 -0.2089  0.1660
11392W        W27653   4.792   5.969  14.079 -0.1223  0.0183  0.1722
11393W        W27654  13.303   1.375  12.029 -0.0014 -0.1057 -0.0747
11394W        W27655   2.967  14.444   0.709 -0.2390 -0.1054 -0.0339
11395W        W27656   3.432  10.516   5.987 -0.1050  0.1585 -0.2170
11396W        W27657  14.254   0.054   4.471  0.0889 -0.1189  0.3068
11397W        W27658   9.659   9.344  12.229  0.0159  0.1562 -0.1180
11398W        W27659  10.920  10.124  11.119 -0.0762 -0.0714 -0.2159
11399W        W27660  15.406  11.175   2.617 -0.1371 -0.1366 -0.1927
11400W        W27661  15.413   4.471  16.149  0.2728 -0.0590  0.1061
11401W        W27662  13.220   4.004  12.790  0.2045 -0.2259 -0.1063
11402W        W27663  12.222   5.101   4.862  0.0900  0.0844  0.0347
11403W        W27664   9.360   6.625  12.594 -0.0667 -0.0458 -0.1521
11404W        W27665   3.616  16.178   0.666  0.1899 -0.1440 -0.0701
11405W        W27666  14.003   3.981   2.986  0.0476  0.1674 -0.0579
11406W        W27667  14.042  15.511  13.318 -0.3076 -0.0283 -0.1856
11407W        W27668   8.404   5.960  14.432 -0.0392 -0.0513  0.0695
11408W        W27669  12.788   5.470   5.428  0.2801 -0.2578  0.0453
11409W        W27670   6.303   0.717   5.071  0.1974  0.2793 -0.0717
11410W        W27671   1.954   6.492   1.951  0.1906  0.3137  0.1924
11411W        W27672   2.562  11.229   5.391 -0.0083  0.3830  0.0625
11412W        W27673  10.239   2.745  13.164  0.0418  0.0030  0.0704
11413W        W27674   3.747   1.196  12.291 -0.0628 -0.0629  0.3421
11414W        W27675   9.065  15.812   5.695 -0.0066  0.3995 -0.0781
11415W        W27676   7.805   6.259   0.150 -0.1119  0.1961 -0.1710
11416W        W27677  13.299  10.261   1.535 -0.2058 -0.3265 -0.0023
11417W        W27678  15.224   6.636  15.813 -0.1583  0.1922  0.0547
11418W        W27679  13.350   9.895  13.255  0.2270 -0.0802  0.3581
11419W        W27680   1.282   0.829   5.459  0.0292  0.2821 -0.3251
11420W        W27681   8.458   6.163   5.492  0.0987 -0.1766  0.0877
11421W        W27682   9.553   5.868  14.483 -0.0338 -0.2944  0.0645
11422W        W27683   0.689   6.927   4.862 -0.0368  0.4125  0.1538
11423W        W27684  12.408  10.087  16.574 -0.3764 -0.0859  0.1269
11424W        W27685   1.486   8.562   5.956 -0.0054  0.0001  0.1221
11425W        W27686  13.824   3.920   5.509  0.0045 -0.1610 -0.1661
11426W        W27687  12.029   2.746   0.142  0.3721  0.1790  0.1330
11427W        W27688  17.371   7.927  14.561  0.0283  0.1071 -0.0701
11428W        W27689   3.169  14.208   1.971 -0.0594 -0.1174 -0.1048
11429W        W27690  11.615   0.013  15.006 -0.2529 -0.4247  0.2906
11430W        W27691   4.075   3.197  15.199  0.1268  0.0527  0.1480
11431W        W27692   1.990   0.776  11.934 -0.1659  0.2216  0.1603
11432W        W27693   0.857   7.788   3.805 -0.1130  0.2135 -0.2496
11433W        W27694   4.015  10.247  15.822  0.1719  0.1162  0.0006
11434W        W27695   4.549   1.019  11.613  0.0642 -0.0369 -0.2324
11435W        W27696   5.259   9.965   3.695  0.2198 -0.0233  0.1279
11436W        W27697  16.800   0.842  14.980 -0.0305  0.2584 -0.1040
11437W        W27698  12.146   0.510   2.747  0.0972  0.0198 -0.0495
11438W        W27699   2.458   5.706   2.768  0.0259  0.1819 -0.2313
11439W        W27700   6.553   6.801   1.048 -0.0010 -0.1486  0.0592
11440W        W27701  13.929   1.463   1.918 -0.0155  0.0421 -0.2368
11441W        W27702  13.571  11.668  12.645 -0.1292 -0.2547 -0.0914
11442W        W27703  12.892   8.292  14.622 -0.2192 -0.2622  0.1739
11443W        W27704   6.617  12.521   5.243  0.4232 -0.1443  0.1571
11444W        W27705   3.138  12.341   1.147 -0.1852  0.2051 -0.1205
11445W        W27706   1.303  16.485   1.555  0.1843  0.1861 -0.1575
11446W        W27707   8.512   3.491  13.090 -0.3132 -0.2256 -0.5528
11447W        W27708   8.172  17.141   4.086 -0.0353  0.1595 -0.1461
11448W        W27709  11.802   5.253  12.615 -0.1455  0.0510 -0.1775
11449W        W27710   7.827   8.138  11.558  0.0591 -0.0139 -0.0371
11450W        W27711   2.722   1.749   6.161 -0.0856 -0.0814  0.1227
11451W        W27712   8.806  15.572  15.305  0.3449  0.0288  0.2218
11452W        W27713  12.873  12.711  11.258 -0.2635  0.0268  0.0122
11453W        W27714  10.022  17.407  13.673 -0.0130  0.1774  0.0640
11454W        W27715   3.764  10.027   3.594  0.0569 -0.1905 -0.2372
11455W        W27716  13.991  11.508  13.989  0.1381  0.2624  0.5029
11456W        W27717  10.182  10.558   1.284 -0.0468 -0.1745  0.0207
11457W        W27718   6.749   1.698   2.711  0.0645  0.1119 -0.1080
11458W        W27719   8.537  17.117   4.427 -0.2040 -0.0883  0.0465
11459W        W27720   4.539   5.472   1.462  0.1752  0.1140  0.0751
11460W        W27721   7.304   8.034   4.942  0.2305 -0.2435 -0.0037
11461W        W27722  10.867   4.948  14.861  0.0013 -0.0500 -0.0292
11462W        W27723  12.084   9.245  13.367  0.1181  0.1218 -0.1900
11463W        W27724  16.849  16.335   2.299  0.0020  0.2729 -0.0220
11464W        W27725  14.095  15.112   1.034  0.1537  0.1470  0.0379
11465W        W27726   5.304   0.551  12.793  0.0544 -0.0260  0.1974
11466W        W27727   6.905   9.562   4.008  0.0692 -0.0615 -0.2811
11467W        W27728  15.756  13.647   0.668  0.1123  0.0526 -0.1669
11468W        W27729   5.319   9.428  16.847 -0.0922 -0.1014 -0.1955
11469W        W27730  17.464   2.946  14.810  0.1418 -0.1207  0.1012
11470W        W27731  12.536  12.500  16.320 -0.4814 -0.1979 -0.3754
11471W        W27732  13.425   4.562   4.594  0.1604  0.0600 -0.0354
11472W        W27733   0.264   1.635   1.269 -0.2858  0.3187  0.2935
11473W        W27734   2.413   6.347   5.088 -0.0035  0.1267  0.0634
11474W        W27735  14.286  16.250   5.404 -0.3400  0.0848  0.0499
11475W        W27736   8.402  13.802   3.990 -0.1965 -0.1905 -0.3399
11476W        W27737   9.527  13.776  10.998  0.1854 -0.0766  0.1073
11477W        W27738  11.861  16.950   0.067 -0.0339  0.3239 -0.3470
11478W        W27739  14.359   1.157  13.055  0.0142  0.0663 -0.0221
11479W        W27740   6.984  16.045   4.967  0.1806 -0.0723  0.1411
11480W        W27741   6.703   7.372  15.514 -0.1572  0.1537  0.1643
11481W        W27742   0.009   9.678  16.834  0.0573 -0.1472 -0.2641
11482W        W27743  13.190   7.860   4.190 -0.2347 -0.0971 -0.0865
11483W        W27744   7.416  13.947   1.184  0.0010 -0.2062  0.0282
11484W        W27745   4.714   8.483  14.900  0.1823  0.3981 -0.0825
11485W        W27746  15.600   0.834  13.580  0.4381  0.1067 -0.0575
11486W        W27747   1.568   9.896  15.814 -0.0005  0.1621 -0.2628
11487W        W27748   6.989   2.022  16.118  0.0028 -0.0172 -0.1552
11488W        W27749  10.057   3.073  15.057  0.0094  0.0408 -0.1829
11489W        W27750  10.777  16.565  14.671  0.1524  0.1809 -0.0395
11490W        W27751  12.041  13.721  15.332 -0.1904  0.0221  0.1173
11491W        W27752   0.148   4.953  12.914  0.7407 -0.0544  0.2307
11492W        W27753   9.625   0.438  13.941 -0.0346 -0.0345  0.1169
11493W        W27754   2.343   7.714  14.498  0.0415 -0.1434 -0.3499
11494W        W27755   5.285  17.795   4.555  0.1735 -0.1478 -0.1243
11495W        W27756   3.532   1.962   1.448  0.0480  0.1032  0.1591
11496W        W27757   7.951   7.487  14.216  0.1694 -0.0108  0.1267
11497W        W27758   4.207  10.113  14.318 -0.0371 -0.0358 -0.1307
11498W        W27759   9.330  14.476   1.484 -0.1592  0.1676  0.3092
11499W        W27760  15.200   3.219  12.651  0.1504  0.1892 -0.0105
11500W        W27761  10.571  12.612   5.060 -0.0790  0.0647 -0.1060
11501W        W27762  12.023  12.900   1.614  0.1653 -0.0835 -0.0394
11502W        W27763   7.258  12.281   5.758 -0.3026 -0.0428  0.2652
11503W        W27764  16.229  16.670  15.116  0.1779  0.1781 -0.1272
11504W        W27765   3.461   5.134  16.618  0.2063  0.0738 -0.1891
11505W        W27766   5.102  15.996  12.175  0.2385 -0.0155  0.0193
11506W        W27767  10.765   8.480   4.278 -0.2516 -0.0090 -0.0013
11507W        W27768   9.216  16.661  11.891 -0.1433 -0.3822 -0.2586
11508W        W27769  16.103  14.697  16.499  0.2204  0.2806 -0.1624
11509W        W27770   4.699  17.739   3.839 -0.0250  0.0918 -0.2084
11510W        W27771   1.014   8.120  13.872 -0.1840 -0.0476  0.0909
11511W        W27772  17.705  14.273   5.973  0.0198 -0.1089  0.1390
11512W        W27773   9.502  16.708  13.206  0.1323  0.2071  0.0814
11513W        W27774  15.846   7.761   4.719  0.1807  0.0296  0.0994
11514W        W27775   4.109   5.276  14.865 -0.1772 -0.2323  0.1487
11515W        W27776   9.815   0.066  16.239 -0.0040  0.1986 -0.0235
11516W        W27777   6.019   1.260   5.295 -0.2790 -0.1919  0.2586
11517W        W27778   3.630   5.707   0.259 -0.0275 -0.1939 -0.0244
11518W        W27779   2.337  13.532   3.363 -0.1095  0.1730  0.1157
11519W        W27780  11.948  12.415   1.140  0.0190  0.0323 -0.1200
11520W        W27781  15.423   6.177   0.697  0.2130 -0.1531  0.2669
11521W        W27782  15.081  12.047  15.743 -0.1835  0.0573 -0.0583
11522W        W27783  13.675  16.123   1.154  0.1070  0.1370 -0.0459
11523W        W27784  16.008  13.850   4.564  0.0169  0.1729  0.2113
11524W        W27785  17.843   9.221   3.993  0.0148  0.3751  0.1632
11525W        W27786  16.921  17.665  12.739 -0.1052 -0.0625  0.0094
11526W        W27787   2.572   1.056   3.944  0.2658 -0.0706 -0.0970
11527W        W27788  16.913   5.368   5.739  0.1231  0.1514  0.2688
11528W        W27789  17.097   8.590   1.095  0.1691  0.2079  0.0708
11529W        W27790  10.365   5.868   4.024  0.0938  0.0141  0.3948
11530W        W27791  15.421   6.603   0.967 -0.0237  0.2310 -0.3578
11531W        W27792  14.779   3.166   1.063  0.0855  0.2253  0.0613
11532W        W27793   1.706  10.085  12.994 -0.0140 -0.0722  0.0870
11533W        W27794  10.937   9.606   2.710  0.2523 -0.2398  0.1140
11534W        W27795   8.715   6.250   1.108 -0.0101  0.1058 -0.0471
11535W        W27796   0.402  15.924   2.644 -0.2760  0.3058 -0.2071
11536W        W27797   1.498  16.413  16.143 -0.2169  0.3049 -0.1432
11537W        W27798   8.635  15.636   4.302  0.1223  0.2481 -0.0395
11538W        W27799   9.218   3.558   4.003  0.0506  0.0127 -0.2498
11539W        W27800  11.520  14.456   5.048  0.2032  0.2768 -0.0100
11540W        W27801   6.294  11.964  12.653  0.0374  0.1259 -0.0178
11541W        W27802  14.682   9.026   5.788 -0.1198  0.1215  0.1657
11542W        W27803   9.175   2.990   5.653 -0.0742 -0.1458  0.3596
11543W        W27804  12.667   1.937   2.870 -0.3408  0.0208  0.1777
11544W        W27805   8.617  16.951   3.929  0.1524 -0.3440 -0.2416
11545W        W27806  12.955   2.560   3.965  0.0707  0.1114 -0.0262
11546W        W27807  15.045  13.656  16.864 -0.3177 -0.2348  0.1134
11547W        W27808   3.876   8.109  15.499  0.0007 -0.1738 -0.0434
11548W        W27809  16.860   0.255  15.388 -0.0343  0.4560 -0.0165
11549W        W27810   3.057   7.652  13.994 -0.0350 -0.2546 -0.2581
11550W        W27811  13.022  13.444   5.398 -0.1765 -0.2129  0.1005
11551W        W27812   8.250  14.129   2.624 -0.1686 -0.1497  0.1161
11552W        W27813  12.696   7.237   1.590  0.0655 -0.1674  0.2037
11553W        W27814   1.630  12.122  12.106  0.0892 -0.0461 -0.0362
11554W        W27815  15.454   1.936  12.412  0.2149  0.2823 -0.0002
11555W        W27816  13.201   4.546  13.743  0.3052 -0.4190  0.1422
11556W        W27817   6.303   1.958  12.805 -0.0757  0.1124  0.0284
11557W        W27818   3.577  14.763   1.392  0.1407  0.0335  0.1876
11558W        W27819   2.849  17.458   4.384 -0.0961  0.1416 -0.0178
11559W        W27820   2.679   7.725   4.805 -0.1781  0.1202  0.1696
11560W        W27821   9.362  13.443   1.552  0.0037 -0.2745  0.0869
11561W        W27822   9.478   1.366  12.225  0.0898 -0.1434 -0.0565
11562W        W27823  11.400   7.658  14.569 -0.5365  0.3353 -0.0732
11563W        W27824   3.644  11.145  11.200 -0.0544 -0.3401 -0.0060
11564W        W27825   2.414  11.979  14.350  0.0211 -0.5120  0.1575
11565W        W27826   1.176  10.229  12.905 -0.0710 -0.1216  0.2752
11566W        W27827   1.436  15.082  14.890  0.0332 -0.0690 -0.1365
11567W        W27828   1.095  15.412   4.926  0.1825  0.2988  0.3448
11568W        W27829   1.007   5.692   0.751  0.0245 -0.0896  0.0371
11569W        W27830   5.624   6.323  13.781  0.0716 -0.0672 -0.0378
11570W        W27831   7.863   6.928   1.160 -0.0700  0.0336  0.0679
11571W        W27832   8.164  15.647  16.340  0.3323 -0.2959 -0.1632
11572W        W27833   0.018   7.670   4.709  0.1326 -0.1815 -0.3593
11573W        W27834  16.074  15.786  14.270  0.1432 -0.2103 -0.3447
11574W        W27835   1.258  11.702   1.058  0.0482 -0.0368 -0.1613
11575W        W27836   7.082   8.978  16.639  0.1230 -0.1422 -0.1427
11576W        W27837  17.407   7.574   2.119 -0.1407  0.1013 -0.0072
11577W        W27838   7.917   6.798   1.646  0.0793  0.0354  0.2173
11578W        W27839   2.378   2.083   5.271 -0.0055 -0.1092  0.0163
11579W        W27840   7.974   3.229  11.159  0.0542  0.0100 -0.2529
11580W        W27841  10.909  15.130  15.040 -0.0846 -0.3040  0.1447
11581W        W27842   7.618   3.934  12.473 -0.2403 -0.1621 -0.0866
11582W        W27843  10.418   9.019  11.599  0.3467 -0.0123 -0.3051
11583W        W27844  12.851  16.953  16.654  0.0116  0.3887 -0.0915
11584W        W27845  16.726  15.824  12.510 -0.1871  0.1216 -0.0627
11585W        W27846   4.091   8.769   1.560 -0.0583 -0.2691  0.0447
11586W        W27847  11.893  11.630  12.682  0.0812 -0.0017 -0.1189
11587W        W27848  12.288  15.455  13.470  0.1184  0.3840 -0.1514
11588W        W27849   5.519   5.797  15.593 -0.3646 -0.1430  0.2938
11589W        W27850   7.842   5.727  13.769  0.0705 -0.1518 -0.0043
11590W        W27851  12.022  14.369  16.310  0.3227  0.2912  0.2318
11591W        W27852   2.051   3.559  15.898 -0.0842 -0.0755 -0.1289
11592W        W27853  13.171   0.604   4.828 -0.1137  0.0846 -0.0811
11593W        W27854  12.163  11.058  13.289  0.0967 -0.0264  0.2639
11594W        W27855   3.594   6.905  13.754 -0.3180 -0.1452 -0.1281
11595W        W27856  14.420   0.228  16.381  0.2529  0.0253 -0.0810
11596W        W27857  14.988   1.479   1.894  0.1495 -0.0376  0.1078
11597W        W27858   5.544   4.983  16.136 -0.2649  0.1588 -0.1083
11598W        W27859  10.791  12.592  13.812 -0.2925 -0.2886 -0.0321
11599W        W27860   6.900   3.332  16.133  0.0944 -0.1001  0.1103
11600W        W27861   7.842  10.863  12.679  0.1800  0.0224 -0.0692
11601W        W27862   2.394   0.263  14.792 -0.0056 -0.1420  0.2255
11602W        W27863   5.149   0.845   4.676  0.1534  0.1788 -0.0899
11603W        W27864  12.203   4.179   5.832 -0.0129  0.0017  0.2739
11604W        W27865  16.123   4.977  16.275 -0.0005 -0.0956 -0.1572
11605W        W27866   7.941  11.187   5.475  0.0486 -0.1726  0.0132
11606W        W27867   5.334   6.811   6.138  0.0571  0.3320 -0.0205
11607W        W27868   7.115   1.289   3.119 -0.2225 -0.0612 -0.1626
11608W        W27869  17.222   6.322   4.420  0.1007 -0.0392  0.3413
11609W        W27870  13.359  13.404   1.732 -0.2508  0.0423 -0.1475
11610W        W27871   3.780  17.722  12.169 -0.2822 -0.0349  0.0350
11611W        W27872   9.809  15.993   2.352 -0.0699  0.0772 -0.1967
11612W        W27873  17.687  17.157  11.560  0.2184 -0.0769 -0.0563
11613W        W27874  16.217   5.503  14.169  0.0457 -0.1350 -0.0299
11614W        W27875   8.036  14.298   1.771  0.0128  0.0621 -0.2902
11615W        W27876   3.173  10.620   5.542 -0.2167  0.2587  0.1532
11616W        W27877   7.593   3.213   3.602  0.2661  0.1585 -0.1360
11617W        W27878   7.212   7.795  16.801  0.2068  0.0624 -0.2381
11618W        W27879   2.440  15.002   2.087  0.1002  0.0557  0.2191
11619W        W27880   8.638  13.151  11.434 -0.1620  0.2668 -0.0149
11620W        W27881  14.073  12.497   5.411 -0.1449 -0.1621  0.0872
11621W        W27882  17.850  16.609  16.712  0.1730 -0.0161 -0.0854
11622W        W27883  15.273   2.489   3.001  0.1022 -0.0809 -0.2628
11623W        W27884  17.367   9.713   4.458  0.1516 -0.0600 -0.2471
11624W        W27885  11.813  11.160   1.032 -0.0751  0.1040 -0.0485
11625W        W27886  13.731   3.663  15.876 -0.1194  0.1009 -0.0846
11626W        W27887  13.857   6.191   1.175 -0.2822  0.3170  0.2988
11627W        W27888   1.461  17.574  15.488  0.0342 -0.1987  0.0089
11628W        W27889  16.436  15.800  16.082  0.2825  0.3189 -0.0071
11629W        W27890   8.108  16.232  16.229  0.0334  0.0698  0.3375
11630W        W27891   4.593   7.053   4.352  0.1735  0.1017  0.0141
11631W        W27892   5.309   7.100  16.879  0.1775 -0.1180  0.1499
11632W        W27893   2.152  17.044   0.744  0.2132 -0.3738  0.1328
11633W        W27894  11.082  11.462  15.506 -0.2989 -0.2045 -0.0229
11634W        W27895   9.040   9.187   4.688  0.0650 -0.0270 -0.0105
11635W        W27896   3.290   6.540  16.862  0.3327 -0.0738  0.3287
11636W        W27897   4.022   5.562   2.352  0.2837 -0.0046  0.0267
11637W        W27898   8.580  10.156  15.826  0.1195  0.1632 -0.0674
11638W        W27899  15.217  11.762   0.390 -0.1022 -0.0198 -0.0291
11639W        W27900   9.664  10.019   2.322 -0.0788  0.1805 -0.2359
11640W        W27901  13.779  13.174  16.781 -0.2062  0.0048  0.1448
11641W        W27902   6.580   1.288  11.523  0.2481 -0.1089  0.0135
11642W        W27903   9.108   5.115   2.003 -0.0874  0.0974  0.2737
11643W        W27904   4.799   0.897   1.851  0.1017 -0.0646 -0.1556
11644W        W27905   9.417  16.011  13.451  0.0400  0.2541  0.0140
11645W        W27906   9.518  17.803   1.045 -0.0204  0.0933 -0.1348
11646W        W27907   8.411  13.507  13.558 -0.0687 -0.2528  0.1731
11647W        W27908   6.980  17.031   4.977 -0.1426 -0.0587  0.0570
11648W        W27909   8.695  12.127  14.518 -0.1104 -0.0852  0.4482
11649W        W27910  13.751  15.366  16.305  0.2127 -0.0451 -0.0964
11650W        W27911  15.146   5.742  13.925 -0.1287 -0.1177  0.0986
11651W        W27912   4.124   1.473  13.132 -0.0169 -0.3704  0.1854
11652W        W27913   4.461   0.127   4.702 -0.0585 -0.2883 -0.1079
11653W        W27914   5.851  14.140   2.999 -0.0456 -0.4073 -0.3256
11654W        W27915  12.754   6.857  13.141  0.0953  0.6920  0.3363
11655W        W27916   3.051  10.471   0.291 -0.0727 -0.0540 -0.0248
11656W        W27917  11.263   4.448  15.123  0.0942 -0.2370  0.3287
11657W        W27918  14.800   8.902  14.774  0.0268  0.2497 -0.0525
11658W        W27919  10.753  13.753   0.210  0.0489 -0.1378 -0.0293
11659W        W27920  14.381  14.506  15.403  0.0577  0.3521  0.1080
11660W        W27921   4.001   6.615  12.525 -0.1416  0.1840  0.0414
11661W        W27922   2.150   3.137   1.298 -0.0272 -0.0070  0.0685
11662W        W27923  14.072  10.752  12.919  0.0461 -0.2983 -0.1690
11663W        W27924  14.785   4.073  12.496  0.0925  0.2442 -0.2705
11664W        W27925  17.510  15.737   1.622  0.1366  0.1776  0.3167
11665W        W27926   2.304   6.999   1.776  0.1433  0.0164 -0.0724
11666W        W27927   9.403  11.796   4.376  0.0437  0.2788  0.2123
11667W        W27928   4.358   4.311   4.117  0.1358 -0.0992  0.0312
11668W        W27929  17.646  13.284   5.538  0.1193 -0.0767 -0.0666
11669W        W27930  11.258   7.286   0.622 -0.1306 -0.0594  0.1403
11670W        W27931  13.036   4.306   2.670 -0.1593  0.0812 -0.4522
11671W        W27932  13.713   8.008   0.050  0.1872  0.0117 -0.0575
11672W        W27933   3.766   1.704  12.339  0.3585  0.1980 -0.1058
11673W        W27934  14.285   4.084   5.693  0.0069  0.2262  0.0562
11674W        W27935   4.184  15.680  14.523 -0.1025 -0.0370 -0.0241
11675W        W27936  14.922   1.665  15.483  0.1826 -0.1998 -0.3398
11676W        W27937   5.203  15.250   3.699 -0.0179 -0.2072 -0.0950
11677W        W27938   5.401   6.088  11.992 -0.3292 -0.1516  0.2371
11678W        W27939  13.393  17.516  15.320 -0.1221 -0.1848 -0.3027
11679W        W27940   3.549  15.031   0.062  0.0916  0.1484  0.1752
11680W        W27941   4.296  10.636  16.106 -0.2869 -0.1365 -0.1170
11681W        W27942   3.355   1.728   4.136  0.0516 -0.0669  0.0482
11682W        W27943   7.909  12.414  15.833  0.3154 -0.1910 -0.2027
11683W        W27944   3.704   7.295  13.456  0.0312 -0.0316 -0.1293
11684W        W27945  14.767   1.001   5.209  0.0047 -0.1072 -0.0412
11685W        W27946   6.111   4.125   4.347  0.0827  0.3495  0.1440
11686W        W27947  13.953   9.865  16.850 -0.0739 -0.0554 -0.0081
11687W        W27948  15.861   6.103  15.556 -0.1140  0.1188 -0.0361
11688W        W27949   6.528  10.396  14.201 -0.3522  0.0720 -0.0225
11689W        W27950   3.974  11.077   3.802 -0.0710 -0.2914 -0.1509
11690W        W27951   6.131   1.969  12.032 -0.0093 -0.0834 -0.1894
11691W        W27952   9.031   0.411  12.172  0.0896  0.3576  0.0713
11692W        W27953   2.795  10.875  12.978 -0.4298  0.2993  0.2723
11693W        W27954   3.458   4.660  14.323 -0.1385  0.1663 -0.0942
11694W        W27955   9.294   2.215   1.484  0.1677 -0.1113  0.1292
11695W        W27956   7.172  15.697  14.722  0.0570 -0.2012  0.1416
11696W        W27957  15.554  16.825   5.527  0.1593 -0.0873  0.0599
11697W        W27958  12.147  12.820  10.605  0.4196 -0.3185  0.1534
11698W        W27959  11.038   3.275  15.507 -0.1276  0.0163  0.0903
11699W        W27960  12.568  15.137   5.737  0.3224  0.5287  0.1351
11700W        W27961   6.938  17.229  11.726 -0.2183 -0.2699 -0.0352
11701W        W27962   7.823   2.671  12.231  0.0538  0.0161 -0.0521
11702W        W27963   7.823  12.350   3.169 -0.2580 -0.0065 -0.0750
11703W        W27964  15.643  12.012   2.367 -0.1909  0.1485  0.0273
11704W        W27965  11.177  17.012   1.674  0.0006 -0.1596  0.1065
11705W        W27966   0.315  16.359   6.241 -0.1559  0.0139 -0.0129
11706W        W27967  15.799   6.657   3.414 -0.2923 -0.2468 -0.3549
11707W        W27968   3.516   1.537   3.199  0.0671  0.0019 -0.0566
11708W        W27969   4.903   3.026  15.500 -0.3122 -0.1654 -0.0948
11709W        W27970  10.284   8.712   5.161 -0.1429 -0.1502 -0.1549
11710W        W27971  15.540   3.733   4.723 -0.2882  0.0072 -0.1969
11711W        W27972  12.268  17.101   4.076 -0.0319  0.1250 -0.0262
11712W        W27973   4.517  15.319   0.496  0.0460  0.0335  0.0893
11713W        W27974   8.168   6.323   5.961  0.0931  0.1683  0.2149
11714W        W27975   1.906   6.288   1.482 -0.1434 -0.0386 -0.0342
11715W        W27976   6.028  12.176   1.790 -0.0532 -0.2783 -0.0764
11716W        W27977   2.748  16.462   0.613  0.0807 -0.3241  0.0881
11717W        W27978  10.595   8.149  16.717 -0.0946  0.0337 -0.0700
11718W        W27979   7.975   2.272   3.917  0.2509  0.2029  0.0795
11719W        W27980   4.488  10.747   0.015 -0.1330  0.1346  0.1993
11720W        W27981   8.021  11.368  12.268 -0.1057  0.3022 -0.1528
11721W        W27982  13.006   4.726   3.542 -0.1056  0.0715 -0.0244
11722W        W27983   7.389   9.513  14.067 -0.1384  0.0396  0.2540
11723W        W27984  15.203   2.189  14.141 -0.1776 -0.2058  0.0525
11724W        W27985  12.637  15.439   1.118 -0.1469  0.1780 -0.3696
11725W        W27986  10.493   9.452  15.237 -0.1144  0.1720  0.1306
11726W        W27987   2.389  11.266   5.879  0.1489  0.1150 -0.0158
11727W        W27988   9.909   7.077   5.468  0.1565 -0.0606 -0.2127
11728W        W27989   9.292   5.365   2.406 -0.0428  0.1829 -0.2466
11729W        W27990  17.661  11.012  15.228  0.0657 -0.0433  0.2664
11730W        W27991  14.150   1.163  15.240  0.0257  0.1879 -0.2572
11731W        W27992  12.631   3.518   4.310  0.0226 -0.3156  0.3058
11732W        W27993  17.502   1.919  16.393  0.0270  0.0152 -0.1769
11733W        W27994   8.493   5.005   4.040 -0.0933 -0.1342  0.2416
11734W        W27995   8.687  13.168  14.549 -0.1189  0.2562  0.2113
11735W        W27996   6.220  12.281   4.624 -0.2550  0.1214 -0.2285
11736W        W27997  16.924  16.073   0.832 -0.1419 -0.4018  0.2352
11737W        W27998   3.746  12.544  16.133  0.1721  0.0680  0.5111
11738W        W27999   5.598   0.809   4.420  0.0358  0.4561 -0.1340
11739W        W28000  15.236   3.934  15.542 -0.0360  0.1830 -0.3465
11740W        W28001   3.746   7.932  16.371  0.1593 -0.1057 -0.1638
11741W        W28002  16.793  11.541   3.304  0.0027 -0.1234 -0.0979
11742W        W28003  15.232   5.752   1.306  0.1938 -0.1598  0.2347
11743W        W28004   3.684  17.152   3.692  0.1622  0.1892  0.1417
11744W        W28005   9.509  16.016   4.264 -0.0122 -0.4404  0.4476
11745W        W28006  11.234   2.129   2.838  0.1538  0.0503 -0.1972
11746W        W28007   3.741  11.946  11.368 -0.0027  0.1863 -0.3402
11747W        W28008   5.822   7.346  12.230 -0.1137 -0.2643  0.1267
11748W        W28009   1.842   9.355  14.331  0.0721 -0.0155 -0.1214
11749W        W28010   7.414  15.143   2.313 -0.1230 -0.0562 -0.0184
11750W        W28011  11.512  17.490   5.380  0.2091  0.0655 -0.1254
11751W        W28012   3.485   6.146   2.731  0.3477 -0.0388 -0.0068
11752W        W28013  15.906  15.851   2.116  0.1246 -0.2464  0.1005
11753W        W28014  10.576   6.154  14.296  0.2054  0.1658 -0.3728
11754W        W28015   3.102   8.096  16.876  0.0152  0.1907  0.0380
11755W        W28016   9.917  10.433   5.711 -0.0810 -0.0606  0.0058
11756W        W28017   2.361   0.602  16.960 -0.1130 -0.0614 -0.1559
11757W        W28018  10.301  15.827   5.656 -0.0484  0.0410  0.0122
11758W        W28019   3.631  15.219   0.555  0.1755 -0.0596  0.3257
11759W        W28020  13.210   1.590   1.619 -0.3661  0.0945 -0.3656
11760W        W28021  12.178  10.552  15.362  0.2699  0.3190 -0.2488
11761W        W28022   2.111  10.982   1.589 -0.0290 -0.0882  0.2224
11762W        W28023   1.233   0.001   3.084  0.1475  0.1311  0.2073
11763W        W28024  14.167   6.127  13.967 -0.1114  0.2376 -0.0376
11764W        W28025   8.298  13.456   1.374  0.0355 -0.0434 -0.3075
11765W        W28026   8.103   8.228   1.964 -0.2173 -0.2751  0.2077
11766W        W28027   5.495  11.042  12.375 -0.3711 -0.0877  0.0134
11767W        W28028   5.626   7.732   3.397  0.0066  0.0111 -0.0419
11768W        W28029   3.923   9.597  13.312 -0.0440 -0.0103 -0.1397
11769W        W28030  17.402  14.638  15.518  0.3279 -0.3649  0.0002
11770W        W28031   9.626   7.910   0.936  0.4759  0.1451 -0.1260
11771W        W28032  12.554  16.272  13.648 -0.1995 -0.2495  0.0401
11772W        W28033  15.179  12.506   6.090  0.1031  0.2897  0.2425
11773W        W28034  16.803   1.192  15.600 -0.2129 -0.4396  0.0572
11774W        W28035   9.281   7.783  10.357  0.4140 -0.0658  0.0828
11775W        W28036   4.739   7.656  13.055 -0.1010 -0.0620  0.1059
11776W        W28037  15.134  10.268   3.887  0.0792 -0.0130  0.1498
11777W        W28038  12.189   4.353   1.193 -0.1075  0.1260  0.1239
11778W        W28039   3.606   7.128   0.301 -0.2168 -0.4468  0.1220
11779W        W28040   4.737   1.224  14.349  0.0619 -0.0667 -0.1601
11780W        W28041   0.074   9.829  14.471  0.0507  0.2670 -0.1982
11781W        W28042  15.857  13.623   0.126  0.1057  0.0311  0.2069
11782W        W28043  14.004  15.782   5.376 -0.2085  0.2502 -0.0384
11783W        W28044  13.592  15.653   0.345 -0.2759  0.4716 -0.1066
11784W        W28045   7.820   8.252   2.939  0.2163  0.1313 -0.2905
11785W        W28046   6.551   5.300  14.004  0.0458  0.0960  0.3007
11786W        W28047  13.691   9.170  15.334  0.1739 -0.1828  0.0077
11787W        W28048   3.898   9.627   2.029 -0.3257 -0.4499 -0.1434
11788W        W28049  15.611   0.254   2.023  0.3492 -0.1244  0.0662
11789W        W28050  11.611  12.936   0.553  0.2120 -0.1773 -0.0058
11790W        W28051   0.182   1.671   1.755 -0.0281  0.3110  0.2186
11791W        W28052   4.030  14.752   0.509 -0.0922 -0.0554 -0.1655
11792W        W28053   1.973  10.116  16.160 -0.1293  0.0533  0.3288
11793W        W28054  11.541   0.313   3.975  0.1307  0.2121  0.1008
11794W        W28055   2.299  16.416  15.853 -0.1594  0.0122 -0.1923
11795W        W28056   7.960  15.013  12.795  0.3406  0.2063 -0.0894
11796W        W28057  11.240  15.981   2.228 -0.4579  0.2042  0.1279
11797W        W28058  11.356   7.918   4.820  0.0457 -0.0013 -0.0689
11798W        W28059  11.251   1.608  16.374  0.5111 -0.0698  0.0224
11799W        W28060   5.062  10.322  15.378  0.3170  0.2793  0.0954
11800W        W28061   5.000   7.229  12.921  0.1507  0.3307 -0.1341
11801W        W28062  12.231   8.851  13.926 -0.0847 -0.0808  0.0642
11802W        W28063   6.572  17.660  15.647  0.0335 -0.3190 -0.0747
11803W        W28064   7.415   9.279  12.619  0.1197  0.0469  0.0061
11804W        W28065   8.331  13.912   3.128  0.0735 -0.0044 -0.3919
11805W        W28066   9.120   3.270  16.587  0.1640 -0.0276 -0.0831
11806W        W28067  14.848   0.127   1.756  0.4106 -0.1140  0.0340
11807W        W28068   8.588   6.785  15.836  0.1220 -0.0515 -0.0200
11808W        W28069  14.945   1.232  12.427 -0.1237 -0.0243 -0.2685
11809W        W28070  14.289  10.758   0.141 -0.2809  0.0778 -0.1114
11810W        W28071  13.190  15.634  14.170 -0.1227 -0.2216  0.3688
11811W        W28072   8.394   6.996   2.976 -0.1754  0.1153 -0.0826
11812W        W28073   6.596   1.741   3.209  0.2666 -0.0426 -0.2482
11813W        W28074   3.054   4.736   2.231  0.1417  0.0408 -0.2131
11814W        W28075   6.278  12.950   0.409 -0.2403 -0.1044  0.0499
11815W        W28076  14.808   5.612  13.526 -0.1396  0.1574 -0.0074
11816W        W28077  15.782   8.291  13.791 -0.1890  0.1123 -0.0566
11817W        W28078   2.742   4.576  12.368 -0.1587  0.1904  0.0501
11818W        W28079   3.399   6.870   3.468 -0.1416 -0.0808  0.0574
11819W        W28080  10.136   2.183  15.446  0.0864  0.3108  0.0370
11820W        W28081   1.909  17.797  16.138 -0.0751  0.0016  0.0331
11821W        W28082  11.623  13.552  13.395  0.0083  0.1759 -0.0320
11822W        W28083  15.442  16.921   3.523  0.2878  0.0102 -0.2815
11823W        W28084   2.832   1.734   2.527  0.0003 -0.1634  0.0471
11824W        W28085   2.987  12.704   1.462  0.0098 -0.0873 -0.1225
11825W        W28086  13.013  10.392   2.929 -0.1069 -0.2051  0.0284
11826W        W28087  10.307   7.235  14.459  0.2265 -0.0342 -0.1503
11827W        W28088   3.637  12.959  11.346  0.4053 -0.1249 -0.1515
11828W        W28089  14.876   2.666   1.781  0.3468 -0.1585  0.1001
11829W        W28090   1.484  14.940   5.674 -0.0441  0.0726  0.0173
11830W        W28091   9.815   7.585  15.471 -0.1650  0.0369  0.1932
11831W        W28092   5.990   2.174   4.850  0.0870 -0.2114 -0.1801
11832W        W28093  17.690  14.592   3.742 -0.2136 -0.1357  0.1297
11833W        W28094   7.725  17.436  14.956  0.2428  0.0349 -0.1908
11834W        W28095   8.722  13.511   0.655 -0.0060 -0.2607 -0.1597
11835W        W28096  13.125  16.240   4.511  0.0223  0.1360  0.2568
11836W        W28097   6.785   8.398   5.014 -0.0061 -0.1471 -0.0289
11837W        W28098  14.652   9.770   4.735 -0.1958 -0.1687 -0.2069
11838W        W28099   9.744  11.018  11.388 -0.0266 -0.1679  0.0696
11839W        W28100   1.005  10.073  13.343 -0.1426  0.1480  0.2549
11840W        W28101   9.929   1.855   1.961  0.3660 -0.2513  0.1037
11841W        W28102   2.761  13.461   3.866  0.2109  0.0808  0.1296
11842W        W28103   9.386   7.144  16.546 -0.2260 -0.1043 -0.2722
11843W        W28104  17.236  14.359  13.014  0.0995  0.0475 -0.3682
11844W        W28105   8.160  14.550  14.660 -0.0311  0.0391 -0.2007
11845W        W28106  16.439   4.600  15.620  0.3239  0.2221 -0.0843
11846W        W28107   7.748   0.932   1.101  0.0337  0.3014 -0.4721
11847W        W28108   5.938   0.426  15.919  0.0270  0.2762  0.3577
11848W        W28109  15.807   3.224   5.612 -0.0839  0.2228  0.1198
11849W        W28110  11.656   6.038  14.173  0.0132 -0.1352  0.0342
11850W        W28111   6.849  17.849   0.831  0.1104 -0.0537  0.1913
11851W        W28112  14.668   6.675   5.248 -0.0807 -0.2169 -0.1502
11852W        W28113  11.294  16.725  13.062 -0.0230  0.0376 -0.2675
11853W        W28114  11.199   0.787   6.442  0.1247  0.0965 -0.0054
11854W        W28115  10.979  16.082   3.007  0.2309  0.0207  0.2317
11855W        W28116  13.071   8.680   1.039 -0.2066  0.3830  0.2016
11856W        W28117   5.400   9.634  13.714  0.2383 -0.1752  0.0918
11857W        W28118   8.984   8.659   0.336 -0.1852 -0.1990 -0.2457
11858W        W28119   6.612  12.597   3.847 -0.1557  0.0714  0.1720
11859W        W28120  17.049  11.245   6.063 -0.0403 -0.0811 -0.0979
11860W        W28121   8.276  10.264  14.499  0.2213 -0.1269  0.1143
11861W        W28122  15.434  15.619   1.289 -0.2259  0.0811 -0.0515
11862W        W28123  17.757   5.455  16.340 -0.0456  0.3348 -0.0069
11863W        W28124  12.320  10.483   1.705 -0.0140  0.0412  0.1844
11864W        W28125  13.813   3.433   1.394  0.2868  0.1126  0.0968
11865W        W28126   1.465   2.857   2.052 -0.1112 -0.0788  0.1968
11866W        W28127  14.094  16.054   4.925 -0.0300  0.0145  0.0969
11867W        W28128  10.673   2.729   3.737  0.1684 -0.0948  0.1386
11868W        W28129   0.132   5.921  14.156 -0.2957 -0.1256 -0.2372
11869W        W28130  11.628   9.509  14.170 -0.2355  0.0352  0.0802
11870W        W28131   6.651  16.074  16.862  0.2559 -0.1876 -0.1857
11871W        W28132  15.130  15.109   4.051 -0.0902  0.5141 -0.3745
11872W        W28133   4.645   9.109  16.174 -0.1729 -0.0409 -0.2233
11873W        W28134   9.782   1.463   0.319  0.1280  0.2265 -0.2097
11874W        W28135  14.537  12.719   1.476 -0.2266  0.3830 -0.3833
11875W        W28136  10.747   3.187   5.712  0.0123 -0.2944  0.0858
11876W        W28137   6.766  15.701   0.177 -0.2220 -0.0591  0.1618
11877W        W28138   3.382   9.051  13.642 -0.0039  0.0371  0.0539
11878W        W28139   0.055  11.158  14.313 -0.0366 -0.0538 -0.2130
11879W        W28140   3.523   8.230  12.947  0.0778 -0.1813  0.1254
11880W        W28141  15.642  12.799   2.431 -0.2262  0.0057 -0.2591
11881W        W28142   4.903  16.690  13.183 -0.1533  0.1421 -0.0109
11882W        W28143  17.815  15.199   2.293  0.0479 -0.3207  0.0803
11883W        W28144   6.360  14.543  13.868 -0.0056 -0.0645 -0.1138
11884W        W28145  14.160   0.994  15.725  0.1462  0.2011  0.2186
11885W        W28146   5.288   3.372  15.156 -0.2676 -0.2950  0.0594
11886W        W28147   1.161   8.661  16.514  0.0148  0.2512 -0.0520
11887W        W28148   4.212  12.599  15.359  0.1392 -0.2404 -0.1984
11888W        W28149   4.193  15.567  16.477  0.3692 -0.1176  0.0819
11889W        W28150  15.620  12.273  16.715  0.3808  0.4508 -0.0321
11890W        W28151  15.256  17.477   2.805 -0.1676 -0.0583  0.1017
11891W        W28152  14.172   9.970   4.728  0.0298 -0.1519  0.1214
11892W        W28153  10.443  10.469  12.645 -0.1807 -0.0995 -0.0263
11893W        W28154  10.736   1.576  12.534  0.2528 -0.0126  0.1369
11894W        W28155   0.408  16.512  13.836 -0.2280  0.4115 -0.2331
11895W        W28156  10.898   8.543  12.375 -0.1254  0.0466 -0.2006
11896W        W28157   1.534   9.856   3.661  0.0287 -0.0338  0.3941
11897W        W28158  15.792   2.416   2.153 -0.0737  0.0927  0.1516
11898W        W28159   4.829   4.545   5.974  0.2857  0.1340  0.1769
11899W        W28160  17.797   8.396  13.879 -0.2865 -0.1834  0.0376
11900W        W28161   4.659  17.273   0.577  0.0973  0.2506 -0.1176
11901W        W28162   1.903  10.829  12.579  0.0190  0.0162 -0.0842
11902W        W28163   2.646   1.156  14.307  0.0822 -0.0140  0.0449
11903W        W28164   5.362   5.048   4.083 -0.1293  0.0780 -0.2472
11904W        W28165  10.139   6.102   5.425  0.0416 -0.0493  0.0106
11905W        W28166  12.490   9.583   0.841  0.0743  0.0579 -0.2696
11906W        W28167  16.474   7.728  12.583  0.1477  0.1106  0.0115
11907W        W28168   1.447  17.162  14.124 -0.0638 -0.0009  0.0843
11908W        W28169  14.878  13.951   5.335  0.2668  0.1679 -0.1203
11909W        W28170   1.380  14.883   0.295 -0.3497 -0.1130 -0.2070
11910W        W28171   3.768   9.464   0.851 -0.1678 -0.2386  0.0306
11911W        W28172  17.708  15.392  14.373  0.1234 -0.2196 -0.1172
11912W        W28173   9.151  15.363  11.493 -0.0038  0.3123 -0.0793
11913W        W28174   2.417  16.137   5.528 -0.2834 -0.1001 -0.0986
11914W        W28175  12.265  12.446  15.071 -0.3789 -0.1635 -0.0815
11915W        W28176  13.214  17.697  15.994  0.1494  0.1579  0.0102
11916W        W28177   1.024  10.010   4.126  0.3730  0.0705  0.0433
11917W        W28178   9.395   1.605  12.664  0.2612 -0.1376 -0.2232
11918W        W28179   1.812  16.520   5.828  0.2194  0.0281 -0.1931
11919W        W28180   6.821   8.248  12.998  0.2773 -0.4422 -0.0819
11920W        W28181   2.626  12.432  12.612 -0.1290 -0.0514  0.0829
11921W        W28182   6.533   4.662  12.723  0.2062 -0.0529 -0.0845
11922W        W28183  12.689  11.606  13.005 -0.2787 -0.0688 -0.0140
11923W        W28184   0.955   0.471  13.868 -0.4056  0.1215 -0.2256
11924W        W28185   3.453  14.126  15.819  0.2187 -0.3736  0.0106
11925W        W28186  17.407  13.640  16.727 -0.1205  0.2644  0.1235
11926W        W28187  16.275  14.541   0.024 -0.1577 -0.1153  0.0057
11927W        W28188  13.933  11.871  16.303  0.1882  0.2845 -0.1527
11928W        W28189   3.821  10.280  12.552  0.1650 -0.3200  0.3784
11929W        W28190  10.937   3.191   2.431  0.2107  0.0332  0.1534
11930W        W28191  15.804   8.924  12.790 -0.0841  0.0742  0.4106
11931W        W28192   0.044  11.657   2.847 -0.0402 -0.2753 -0.1441
11932W        W28193   7.665   4.012  14.421  0.3161 -0.1293  0.1508
11933W        W28194   0.883   4.664   3.660  0.1111 -0.2252 -0.0545
11934W        W28195  15.732   1.488   5.461 -0.0623  0.2390 -0.1341
11935W        W28196  11.414   1.791  14.572 -0.0412  0.0333 -0.0053
11936W        W28197  16.129   0.202  16.727 -0.0933 -0.1906  0.2949
11937W        W28198  17.221   1.025  11.669  0.0850  0.0485 -0.1417
11938W        W28199   2.485  15.970  13.345 -0.1122  0.1764 -0.0597
11939W        W28200  15.369  10.197  12.585 -0.0525  0.0890 -0.0669
11940W        W28201  12.254  15.436   2.793  0.0854 -0.2044 -0.1608
11941W        W28202   0.611   6.816  11.959  0.0944 -0.3674  0.1331
11942W        W28203   2.828  16.525   2.249  0.0016  0.0269 -0.2923
11943W        W28204   7.941   1.021  15.163 -0.1093  0.1050 -0.2281
11944W        W28205   6.657   6.815  14.891 -0.1551  0.0072 -0.0544
11945W        W28206  13.714   3.211   0.937 -0.0122 -0.3382  0.1702
11946W        W28207  12.598  12.711   3.986  0.3286 -0.1975 -0.1506
11947W        W28208   9.096   5.302  14.814  0.0623 -0.0387  0.0697
11948W        W28209   4.022  13.932  11.766  0.1951  0.2227 -0.0341
11949W        W28210   8.165   1.963   2.044 -0.0802 -0.4512  0.2200
11950W        W28211   6.201   1.265   3.882  0.2082 -0.2527  0.3751
11951W        W28212   1.580  10.382  12.577  0.1361  0.0752 -0.2061
11952W        W28213   5.714   3.812  14.411 -0.1627  0.1247 -0.0933
11953W        W28214   0.907   4.786  13.618 -0.1938  0.2550  0.1252
11954W        W28215   0.679  17.063  11.687  0.2697 -0.0507 -0.1308
11955W        W28216  10.369   2.952   4.218 -0.3057  0.2170 -0.1574
11956W        W28217   6.238  10.916   2.978  0.1137  0.1905 -0.1569
11957W        W28218   1.388  13.210  12.577 -0.0404 -0.0554 -0.4431
11958W        W28219  10.342  10.758  14.107  0.1218  0.0192  0.4943
11959W        W28220   3.486  17.048  13.856 -0.1690  0.0713  0.0950
11960W        W28221   6.944   1.533   5.211 -0.3000  0.0988  0.4439
11961W        W28222  12.516   6.063   0.245  0.1863  0.2438  0.1216
11962W        W28223   1.913  16.765   3.181 -0.0273 -0.0657 -0.1812
11963W        W28224  13.070   8.914   4.223  0.4035 -0.0257 -0.1484
11964W        W28225   6.859   3.176  14.479  0.1077  0.0021 -0.0493
11965W        W28226  15.133   4.051   5.314  0.3852 -0.3573  0.1336
11966W        W28227   2.666   2.137   3.868  0.0426 -0.0831 -0.0343
11967W        W28228  12.645   1.435   4.446 -0.0025  0.0744  0.0096
11968W        W28229   9.399   4.343  15.784 -0.0910 -0.1367 -0.0035
11969W        W28230  16.810  12.994   1.076  0.2286  0.0841  0.0830
11970W        W28231   5.470  17.120  12.014 -0.1607  0.0607 -0.1292
11971W        W28232  12.388   5.322   2.144 -0.3139  0.0276 -0.1981
11972W        W28233  11.562  16.441  13.458  0.0661 -0.0286  0.0902
11973W        W28234   0.163  17.115  11.948  0.1618  0.2435  0.1093
11974W        W28235   4.561   8.542  11.664 -0.2693 -0.0604  0.1092
11975W        W28236   0.926  11.233  15.903  0.0230 -0.0961 -0.0111
11976W        W28237  13.123   1.626   0.806  0.0941 -0.3457  0.1525
11977W        W28238   8.642   3.055   1.346  0.2413 -0.2638  0.2681
11978W        W28239  13.453  10.063  14.853  0.2584  0.1110  0.0567
11979W        W28240   2.384  13.080   3.869 -0.3026 -0.1001 -0.0606
11980W        W28241  13.815   0.979  13.144 -0.1421 -0.2492 -0.1318
11981W        W28242   2.187   6.579   3.060 -0.3195 -0.3526 -0.0175
11982W        W28243   7.541  14.703  13.969  0.0100  0.1007  0.1321
11983W        W28244  15.415   3.462   3.236  0.1406  0.0264  0.2775
11984W        W28245   5.606   2.408  15.500  0.1147 -0.2774 -0.1720
11985W        W28246   7.849   6.374  15.344 -0.1586  0.0585  0.2707
11986W        W28247   6.460  15.152   1.001  0.0272  0.2515  0.2848
11987W        W28248  15.062   1.268   4.857  0.0787 -0.3067  0.0442
11988W        W28249   6.408   6.813  13.393  0.0372  0.0416 -0.1069
11989W        W28250  15.631  16.605  12.272  0.1246 -0.1764  0.1837
11990W        W28251   6.954   2.753   1.533  0.0137  0.1349 -0.1320
11991W        W28252  17.667   0.121  13.520  0.0120  0.1485  0.3265
11992W        W28253   6.903   7.848  14.830  0.1977  0.0499 -0.1417
11993W        W28254  16.936  10.353   4.048  0.1813  0.0793  0.1520
11994W        W28255   4.669   7.818  16.451  0.1110 -0.2300 -0.1384
11995W        W28256   6.085   2.880   1.047 -0.0142  0.1140 -0.0692
11996W        W28257   9.863  11.892   5.444  0.3006 -0.0855  0.0778
11997W        W28258   4.521   6.453   5.600 -0.1809  0.0355  0.1492
11998W        W28259  15.654   4.452   0.103  0.2939  0.0900 -0.0161
11999W        W28260  12.773   4.278   5.772 -0.1183 -0.0097  0.1600
12000W        W28261  11.736   0.949   4.541 -0.2759 -0.2348  0.0904
12001W        W28262  17.234   8.759  14.461 -0.0674  0.3214  0.0371
12002W        W28263   1.762   5.952   2.045 -0.1390  0.0154  0.2722
12003W        W28264   1.506   9.799  16.940  0.0620  0.0904  0.1424
12004W        W28265  15.950   8.909   1.939  0.0571  0.1045  0.3063
12005W        W28266   3.289   6.248  13.731 -0.0332 -0.0777  0.2063
12006W        W28267   2.114  10.359   5.293  0.2940  0.1765  0.0934
12007W        W28268  14.137   4.266   0.419 -0.0949 -0.0816 -0.1804
12008W        W28269  13.163   2.996   0.867  0.2719  0.3050 -0.4563
12009W        W28270   7.101   1.824   4.743 -0.1110  0.1523  0.2218
12010W        W28271  10.449   8.537  15.048  0.1096  0.2897 -0.1152
12011W        W28272   6.769  16.438  15.955  0.4139  0.0931 -0.1399
12012W        W28273   1.365  12.905  16.537  0.1663 -0.0874  0.1234
12013W        W28274  16.095   9.292   3.737 -0.0124 -0.1641 -0.0821
12014W        W28275   3.652   7.929   4.224  0.3448  0.1067 -0.2578
12015W        W28276   4.685   7.439   5.467 -0.1932  0.2427 -0.0439
12016W        W28277  10.050   5.594   1.155  0.1019 -0.1126  0.1163
12017W        W28278  13.887  16.013  15.213  0.1161  0.0214 -0.1060
12018W        W28279   2.547  13.134   2.318 -0.1810 -0.3585  0.0483
12019W        W28280   4.738   8.652  13.965 -0.2448  0.1047 -0.2214
12020W        W28281   1.716  13.682  14.011 -0.0932  0.0415  0.0641
12021W        W28282   1.788   1.605  14.490  0.2861 -0.3020  0.0712
12022W        W28283  10.216   9.452  11.824  0.3456 -0.1211  0.2349
12023W        W28284  15.445   7.790  13.448 -0.2440  0.0259  0.0444
12024W        W28285   3.653  10.959   5.703  0.0981 -0.0266 -0.2232
12025W        W28286   9.436   1.515   0.644  0.1102  0.3644 -0.0849
12026W        W28287   1.810   1.832   3.365  0.1357  0.1804 -0.1572
12027W        W28288  12.165  16.021   1.842  0.0461 -0.0905  0.1938
12028W        W28289   0.573   2.538   5.567  0.1037 -0.1241  0.0380
12029W        W28290   4.926   3.344   4.631 -0.3221 -0.0088  0.0585
12030W        W28291  17.784   2.801  15.179  0.0310  0.2085 -0.0095
12031W        W28292   5.923   6.440   1.861  0.0925  0.0569 -0.3245
12032W        W28293   5.412   9.124  14.922  0.1812  0.0579  0.0506
12033W        W28294   5.032   3.353  14.294 -0.0164  0.0880  0.2148
12034W        W28295   3.009   4.368  11.996 -0.1369 -0.1285  0.1589
12035W        W28296   6.496   0.653   4.355 -0.1903 -0.0838  0.1188
12036W        W28297   9.479  13.483   5.254  0.2227 -0.4227  0.1932
12037W        W28298  12.447   4.697   3.516 -0.0352  0.2231  0.0569
12038W        W28299  14.867   7.614   2.237 -0.2057 -0.1267  0.0539
12039W        W28300   6.599   1.859  13.418 -0.3822  0.1759 -0.0614
12040W        W28301   1.974  15.242  15.282  0.1033  0.1720 -0.3313
12041W        W28302  17.332   6.721  16.128 -0.0118  0.1347 -0.1163
12042W        W28303  11.092  10.784   3.945 -0.0253  0.0460 -0.0261
12043W        W28304  13.865  17.478  14.139  0.1191  0.2748 -0.1228
12044W        W28305   2.155   5.263  13.480 -0.0514 -0.1865 -0.3199
12045W        W28306   1.413  14.156  16.541 -0.4277  0.1176 -0.0622
12046W        W28307   9.144   5.066  12.835 -0.6100 -0.0384 -0.2017
12047W        W28308   9.547  11.507   1.935  0.1833 -0.3810  0.1142
12048W        W28309  12.830  11.324   1.035  0.0173 -0.2781 -0.0533
12049W        W28310  11.396   2.018  12.729  0.0780 -0.1265  0.1046
12050W        W28311  12.874   4.860  15.838  0.1027  0.0746  0.0799
12051W        W28312   2.932  11.477   5.711  0.1468 -0.1341  0.2336
12052W        W28313   8.634   2.574  13.930 -0.1472 -0.1995 -0.0946
12053W        W28314   2.735   3.405  16.360 -0.2550 -0.1238  0.3843
12054W        W28315  15.100  14.968  16.121  0.0358 -0.0951  0.2193
12055W        W28316  16.907   0.222   5.405 -0.0496 -0.1884 -0.1980
12056W        W28317  12.869  12.465  13.119 -0.1795  0.0009  0.0945
12057W        W28318  12.867   3.508  13.630  0.1556 -0.0066 -0.0123
12058W        W28319   2.613   2.871  13.519  0.0299 -0.0326 -0.0532
12059W        W28320   9.647   2.367  15.052 -0.0235  0.2198 -0.0302
12060W        W28321  11.259   3.913   2.855 -0.0052 -0.2312  0.0625
12061W        W28322   0.450   1.932  11.892 -0.1172 -0.1165  0.1952
12062W        W28323   2.620   3.097   1.174 -0.0493  0.2563 -0.0615
12063W        W28324  11.487  15.733   0.486  0.0283 -0.2196 -0.1465
12064W        W28325  12.602   0.105  13.028  0.2858 -0.2367 -0.0280
12065W        W28326   8.868   2.552  16.671  0.0014  0.0183 -0.1133
12066W        W28327   2.216   9.032  16.717 -0.0805 -0.2618 -0.3693
12067W        W28328   9.670  15.393   5.732 -0.0780  0.0613  0.1565
12068W        W28329  16.738  17.534   1.365 -0.1549 -0.2708  0.0619
12069W        W28330   1.138   7.652   3.045  0.0701 -0.0275 -0.1337
12070W        W28331  15.219  13.594   3.990 -0.0781 -0.1716 -0.1507
12071W        W28332   2.061  11.007   3.919 -0.0550  0.3550 -0.1593
12072W        W28333   5.323   9.238   4.438 -0.0766 -0.0574  0.2107
12073W        W28334  11.245   0.246  15.135 -0.2767  0.1334  0.1385
12074W        W28335   4.277  11.493   3.941 -0.1430 -0.0228  0.2860
12075W        W28336   8.318  15.482  11.281 -0.2308  0.1327  0.0135
12076W        W28337   2.647  13.967  12.858 -0.1110 -0.0696  0.2575
12077W        W28338   9.422   0.362   3.520 -0.2604  0.1374 -0.0984
12078W        W28339  14.136  10.263  11.686 -0.0806 -0.0876  0.0113
12079W        W28340   7.737  10.101  16.423  0.3765 -0.1243  0.1102
12080W        W28341   5.935  17.287  13.274 -0.1711 -0.1941 -0.1190
12081W        W28342   4.097  12.245   5.296  0.1405 -0.2083 -0.1627
12082W        W28343   7.619  16.822  15.848  0.0963 -0.0080  0.0508
12083W        W28344  12.999  17.797   4.171 -0.1039  0.1780  0.0597
12084W        W28345   4.629   0.969  12.136 -0.0369  0.0903 -0.1258
12085W        W28346  10.630   8.495   4.807 -0.2554 -0.0305 -0.1656
12086W        W28347  12.701   5.211   3.658  0.1843 -0.0363 -0.0232
12087W        W28348   2.240  13.842  15.199 -0.2998  0.6000 -0.0671
12088W        W28349  12.226  15.189   0.743 -0.2684 -0.0123  0.1205
12089W        W28350   3.140  17.859   3.097  0.2046 -0.0363  0.0932
12090W        W28351   3.508  14.624   4.722  0.1701 -0.3633  0.2310
12091W        W28352   3.862  11.076  14.218  0.2864  0.0716  0.1727
12092W        W28353  16.079  13.788   1.908  0.1811 -0.1099  0.1370
12093W        W28354  13.662   5.067  15.701 -0.1840 -0.0277 -0.0580
12094W        W28355   2.146  14.077   2.569  0.0298 -0.2913  0.1558
12095W        W28356  16.042  10.087   6.190  0.0738 -0.0795  0.0599
12096W        W28357   3.217  17.694   1.170 -0.1172 -0.0066 -0.2063
12097W        W28358  11.648   4.623  15.973 -0.0762 -0.0678 -0.3234
12098W        W28359  13.421   3.602  12.004  0.1115  0.3404 -0.1311
12099W        W28360  17.626  11.265  16.349  0.0032  0.0544 -0.0008
12100W        W28361   8.606   9.784  16.756 -0.0305  0.3872  0.3295
12101W        W28362   1.312   5.989   0.447 -0.0889 -0.1575  0.1256
12102W        W28363   2.319  14.342   0.039 -0.1352 -0.1995  0.0551
12103W        W28364   2.698   8.973   3.796  0.2152 -0.1252 -0.0238
12104W        W28365  12.746   9.328   3.911  0.0071  0.2640 -0.1595
12105W        W28366  12.273   6.878  13.304 -0.0093  0.1237  0.0055
12106W        W28367  17.512   4.744  15.017 -0.0069  0.1529 -0.1200
12107W        W28368  12.360   4.390  16.313  0.0182  0.0687  0.1795
12108W        W28369  15.780   3.635   2.768 -0.0579  0.2182 -0.2371
12109W        W28370   7.937   3.685  12.039  0.0797 -0.2547 -0.2576
12110W        W28371   2.145   0.900   5.129  0.3953  0.3854 -0.1466
12111W        W28372  11.019   8.963  13.281 -0.0151 -0.1742 -0.0727
12112W        W28373   1.161   8.221  12.179 -0.2807  0.1212  0.1527
12113W        W28374   9.099  14.404   0.015 -0.0700 -0.4656  0.0967
12114W        W28375  11.383   9.704   3.860  0.1124 -0.0146  0.0084
12115W        W28376  12.796   2.362   3.071 -0.3908 -0.0044  0.0062
12116W        W28377   7.621  14.858   2.659 -0.2206 -0.1137  0.2424
12117W        W28378   7.008   7.997   5.339  0.0388  0.3942  0.0863
12118W        W28379  12.982   8.099   4.590 -0.1894  0.2601  0.1807
12119W        W28380   7.769  15.937   2.831 -0.1622 -0.2216  0.1978
12120W        W28381   9.254   7.097  14.928 -0.0483 -0.0704 -0.0611
12121W        W28382   2.936  17.695  16.843 -0.0367  0.0425 -0.1774
12122W        W28383  13.168   2.893   4.822  0.4385 -0.1406 -0.1740
12123W        W28384  14.884   3.035   0.574 -0.1159 -0.2558  0.3302
12124W        W28385  10.699  12.175  14.604 -0.1142 -0.0084  0.2621
12125W        W28386  15.809   1.588   0.642  0.0174 -0.0192  0.0811
12126W        W28387   9.911   7.261  14.754 -0.0332 -0.2836  0.0919
12127W        W28388   8.480  10.943   1.190  0.1328 -0.1000 -0.1662
12128W        W28389  14.540  10.527  11.821 -0.2516  0.0495 -0.1485
12129W        W28390   3.371  12.889   2.362  0.0336  0.0161  0.2434
12130W        W28391   4.239  16.925  12.103 -0.0536 -0.3717  0.1262
12131W        W28392  17.011   5.757   0.643  0.0063  0.0659  0.0305
12132W        W28393   5.007   6.593   1.787 -0.1061  0.0854 -0.3028
12133W        W28394   3.625   9.568  13.784  0.0635 -0.3691 -0.1219
12134W        W28395   2.504   8.809  13.481 -0.1071 -0.0593 -0.1300
12135W        W28396  14.009   0.342   4.861  0.2492  0.1895 -0.4266
12136W        W28397  16.935  13.581  16.852  0.0854  0.1678  0.2723
12137W        W28398   9.513   2.642   1.676  0.1901 -0.0036 -0.0609
12138W        W28399   3.846   1.368   0.856 -0.0137 -0.0623  0.0644
12139W        W28400   7.753  12.443  14.471  0.0130  0.0489 -0.0154
12140W        W28401  14.824   4.709   3.918 -0.3611  0.1784  0.0721
12141W        W28402  16.599  12.457   3.231  0.0612  0.0407  0.0746
12142W        W28403  11.856   0.819  14.827 -0.2414 -0.0213 -0.0635
12143W        W28404  16.182  11.380   2.134  0.2296 -0.1930  0.4001
12144W        W28405  16.335  11.551  15.214 -0.3249  0.0439 -0.0369
12145W        W28406   6.218  17.023  16.899 -0.0706  0.1108 -0.1818
12146W        W28407   0.246  15.949  11.840 -0.1139 -0.1704  0.0345
12147W        W28408   7.066  14.929  16.464 -0.0906 -0.0341 -0.1167
12148W        W28409  15.816   1.615  12.675  0.0972  0.0015  0.0522
12149W        W28410   9.838  12.570   4.150  0.0909  0.0310  0.2389
12150W        W28411   4.232   7.859  13.413 -0.4127 -0.3642 -0.1134
12151W        W28412  15.285  14.702   1.102  0.3671 -0.1629 -0.1073
12152W        W28413   8.148  17.615  16.688 -0.0085  0.0623  0.4540
12153W        W28414   0.704   5.606  16.418  0.0317 -0.0339 -0.0715
12154W        W28415   6.813   3.524  16.770  0.0348  0.1210 -0.2057
12155W        W28416  17.242  11.569   4.078 -0.0931 -0.0435  0.1335
12156W        W28417   3.161  16.326   4.138 -0.0193  0.1081 -0.3814
12157W        W28418   0.882   5.691   2.088 -0.0728 -0.2977  0.2163
12158W        W28419   0.482  15.452   3.554  0.0393  0.1090  0.2429
12159W        W28420  16.072  12.764   2.660  0.2790 -0.1143  0.0617
12160W        W28421   3.604   5.545   4.905 -0.3657 -0.0707  0.2951
12161W        W28422  14.322   6.424   3.752  0.1357  0.0175 -0.1932
12162W        W28423  13.305   7.925   5.103  0.0861 -0.5368 -0.1303
12163W        W28424   8.834  10.714  12.341  0.3598  0.2106  0.0532
12164W        W28425   4.260  12.271  14.519 -0.0648 -0.3837  0.0675
12165W        W28426  14.020   5.323  15.934 -0.3301 -0.3445  0.1129
12166W        W28427  12.014  16.110  11.779  0.1269 -0.2460 -0.1135
12167W        W28428  12.021   3.033   1.554 -0.0123 -0.1819 -0.0005
12168W        W28429  11.747   2.155   0.144  0.0208 -0.0578 -0.4455
12169W        W28430   3.378   2.292  15.733 -0.1661  0.2746 -0.0744
12170W        W28431  12.366  13.668   3.832  0.1369 -0.0320 -0.2853
12171W        W28432   6.204   7.544  15.398  0.0640 -0.2575  0.3872
12172W        W28433  10.341  15.253   0.496 -0.0322  0.0866  0.0308
12173W        W28434   9.802   3.999  16.714  0.0270  0.1914  0.1987
12174W        W28435  14.297   7.710   1.522 -0.2679 -0.0645  0.1126
12175W        W28436  12.386  10.688  13.490  0.0917 -0.1761  0.0433
12176W        W28437  10.718   9.945  14.033  0.0341  0.1083 -0.2901
12177W        W28438   3.487  17.224  14.801 -0.0039 -0.0509 -0.1709
12178W        W28439  14.581   6.976  14.704  0.0998  0.0186 -0.2374
12179W        W28440   3.278   6.744   2.668  0.2275  0.2592 -0.0218
12180W        W28441   5.338  17.579  16.589  0.0173  0.0015 -0.4417
12181W        W28442   1.839  12.598  12.071 -0.0250 -0.1464  0.1717
12182W        W28443  15.726  14.474  16.975  0.0401  0.0598 -0.1097
12183W        W28444  12.909  13.506  16.285 -0.0274 -0.1067  0.1389
12184W        W28445  16.330   0.846   1.505  0.3391 -0.1629  0.1674
12185W        W28446   4.940  12.428  16.820 -0.2149  0.4958 -0.0591
12186W        W28447  14.925   0.858   6.023 -0.2387 -0.1563  0.2306
12187W        W28448   0.484   0.037  11.917  0.2413 -0.3354 -0.0035
12188W        W28449  12.678  11.076   2.702 -0.1284  0.0308  0.0692
12189W        W28450  10.939  17.068   5.842 -0.2085  0.3016 -0.3861
12190W        W28451  17.599  16.994   2.780  0.0645  0.2211  0.1354
12191W        W28452   9.670   0.320  14.568 -0.1526 -0.0363  0.1954
12192W        W28453  16.692   4.184  14.673  0.0487  0.2028 -0.0866
12193W        W28454  15.587   5.209  12.272 -0.0417 -0.0196  0.1704
12194W        W28455   9.137  16.760   2.714  0.1634 -0.1356  0.0868
12195W        W28456  12.821   6.615  13.565  0.0451  0.2067  0.0007
12196W        W28457  12.759  17.150  16.180 -0.1036 -0.0490 -0.0586
12197W        W28458  10.236  17.657  16.283 -0.0331 -0.0687 -0.0343
12198W        W28459  12.855   0.496  13.245  0.1253  0.1446 -0.0143
12199W        W28460   3.566   4.811   2.154 -0.0518  0.0842 -0.0062
12200W        W28461   0.330  14.097  11.872  0.2283  0.0938  0.2436
12201W        W28462  10.274   2.750  12.677 -0.1241 -0.1703 -0.0961
12202W        W28463  10.518  16.456  15.051 -0.2268 -0.0025  0.3299
12203W        W28464  16.423  11.045  14.442  0.2047  0.3056  0.2522
12204W        W28465   0.545   1.340  13.741 -0.1738  0.1228  0.1207
12205W        W28466   1.886  10.804   2.219  0.4461  0.0406 -0.1096
12206W        W28467   3.793  17.172  13.273  0.0616 -0.0861  0.2216
12207W        W28468   2.156  12.184  11.997  0.0937 -0.0409 -0.0778
12208W        W28469  17.763  12.707   0.993 -0.0278 -0.3355  0.0129
12209W        W28470  15.785  17.335   5.542 -0.0690 -0.1236 -0.4109
12210W        W28471  10.276   0.201  15.939 -0.0758  0.0648 -0.1180
12211W        W28472   3.037  12.646  15.458 -0.2304  0.1514 -0.3121
12212W        W28473   3.978   4.223  15.511 -0.3209 -0.1360 -0.0167
12213W        W28474  14.418  12.738  12.076 -0.1799  0.0637  0.0469
12214W        W28475   3.008   8.165  12.662  0.1832  0.1948 -0.0730
12215W        W28476  12.901  11.269   4.879 -0.0557 -0.0113  0.0679
12216W        W28477   9.596   4.772  16.548  0.0034 -0.0900 -0.0581
12217W        W28478  15.267   4.655   4.126 -0.1325  0.2166  0.0823
12218W        W28479  13.829   1.395  15.565  0.0019  0.0046 -0.0621
12219W        W28480  10.023   6.022   1.410  0.1812 -0.1803  0.0754
12220W        W28481  11.009  12.601   3.222 -0.2304  0.1087  0.0476
12221W        W28482   2.051  11.873   5.436  0.2191 -0.0086 -0.2736
12222W        W28483  16.090  13.689  16.669  0.2036 -0.0150 -0.2076
12223W        W28484   7.494  12.918  11.314 -0.2665  0.3089  0.1033
12224W        W28485  14.659   8.205  15.444  0.0539 -0.0256 -0.1862
12225W        W28486   8.624   4.200   5.771 -0.0539 -0.2165  0.1149
12226W        W28487  14.335   8.544  13.454 -0.1706 -0.0550  0.0686
12227W        W28488  11.476  13.722   3.684 -0.2422 -0.0880  0.0839
12228W        W28489   9.373   2.118   5.924 -0.0146  0.1308 -0.0623
12229W        W28490   0.829   5.314   1.004 -0.0527 -0.0122 -0.3665
12230W        W28491  13.899   7.436  12.554  0.1979  0.1624 -0.1554
12231W        W28492   6.730   5.646   2.163  0.1877 -0.0189 -0.2460
12232W        W28493  13.727   4.663  12.477 -0.0396 -0.2450  0.0891
12233W        W28494   5.908   2.409   2.864  0.1079 -0.1339  0.3720
12234W        W28495  16.129  15.697  14.727  0.0191 -0.1200 -0.1157
12235W        W28496  10.000  11.366   1.809  0.0019  0.1591  0.1142
12236W        W28497   4.080   9.863  13.768 -0.2067 -0.0840  0.0100
12237W        W28498  10.313  10.772  13.543 -0.0434  0.1274  0.1307
12238W        W28499   7.757   9.735  14.977  0.0274  0.3022  0.0738
12239W        W28500  17.453   1.750  14.395  0.0479 -0.3187 -0.1939
12240W        W28501  11.725   4.081  12.752 -0.1345  0.3103  0.2293
12241W        W28502  16.974   5.806   0.128 -0.0366  0.1762  0.2310
12242W        W28503  16.791  10.038  16.147  0.0112  0.1776 -0.1127
12243W        W28504  14.999  17.646  15.276 -0.0139 -0.4405 -0.0057
12244W        W28505   8.559   3.277   4.980 -0.1290  0.0285 -0.2561
12245W        W28506   7.340   3.413   2.022  0.2205  0.0581 -0.1842
12246W        W28507   4.758   8.840   2.319 -0.2974 -0.4265  0.2215
12247W        W28508   9.650   9.959  13.801  0.0587 -0.1238 -0.2174
12248W        W28509   4.582  17.283   4.220  0.1418  0.0052  0.4096
12249W        W28510  17.178   2.937   4.187  0.0548  0.1536  0.2026
12250W        W28511   1.094   3.054  15.109 -0.1340  0.0647  0.2089
12251W        W28512   3.359  14.751   4.220  0.0946 -0.1567 -0.1955
12252W        W28513   2.148  17.567   2.093  0.0961 -0.2864 -0.0582
12253W        W28514   2.235   0.312  16.528 -0.1111  0.0819 -0.0407
12254W        W28515  10.035  13.724   3.967  0.1120 -0.0011 -0.1236
12255W        W28516  11.780  17.360   0.992  0.3256  0.0694 -0.1611
12256W        W28517   4.778   0.841   5.018 -0.5487 -0.1115 -0.1652
12257W        W28518   5.786   1.492  14.907 -0.3782  0.3637  0.0360
12258W        W28519  16.060   8.455   2.804 -0.1481 -0.2231 -0.1675
12259W        W28520  13.364   3.538  13.661 -0.1295 -0.0166 -0.0330
12260W        W28521  11.165   9.864  16.539 -0.2986  0.5375 -0.2100
12261W        W28522   1.894   7.846   3.556  0.0469  0.0428  0.1865
12262W        W28523  15.274   4.235   2.170  0.1229 -0.1757  0.0633
12263W        W28524   6.810   8.966  15.503  0.1591 -0.0167  0.1380
12264W        W28525   1.179   1.229   5.152  0.0492 -0.2865  0.1769
12265W        W28526   2.102  14.728   3.313 -0.2263 -0.2077 -0.0087
12266W        W28527  16.015  10.495   3.826  0.1751  0.2015  0.0148
12267W        W28528  14.025  16.540   5.112  0.0002  0.0558 -0.0244
12268W        W28529  14.039   1.889   0.952 -0.2638  0.0010  0.0743
12269W        W28530   4.056  16.829  15.230  0.0564 -0.0927 -0.1549
12270W        W28531  14.698   6.385   0.111  0.0090  0.0807 -0.2167
12271W        W28532   9.592  11.614   0.526 -0.3073 -0.0474 -0.1489
12272W        W28533   0.087  13.589   0.520 -0.1504  0.0610  0.0224
12273W        W28534  12.047   5.394   4.331  0.1389 -0.1032  0.0701
12274W        W28535  10.882   5.865   1.071 -0.2597  0.1859 -0.1368
12275W        W28536  11.101  14.758   0.703 -0.2806 -0.2863  0.2385
12276W        W28537   8.354   4.305   2.592  0.3264 -0.1109  0.0699
12277W        W28538   7.104  10.103   5.845 -0.2442  0.0585  0.2395
12278W        W28539  15.949  15.783   4.242 -0.0472  0.4602  0.0738
12279W        W28540   3.716   6.023  13.190 -0.1743  0.1725  0.2264
12280W        W28541  11.775   6.491   3.106  0.0465 -0.0631  0.2477
12281W        W28542  12.028   6.707  12.075 -0.2038  0.1231  0.0048
12282W        W28543   2.936   1.012   5.406 -0.0104  0.0370  0.2720
12283W        W28544  16.006  14.853   1.689 -0.0953 -0.2673 -0.1907
12284W        W28545   0.970   6.097  13.916 -0.0460 -0.0893 -0.2255
12285W        W28546  10.445  10.627   3.431  0.3185  0.2084  0.1699
12286W        W28547  13.894  10.470  12.556  0.3949  0.0570  0.0485
12287W        W28548  11.814  12.943  11.972 -0.0933  0.0573 -0.0491
12288W        W28549   0.174   4.264   1.403 -0.2396  0.1754 -0.4813
12289W        W28550  14.815   1.186  16.347 -0.5696 -0.0034 -0.0387
12290W        W28551  14.162   3.581  15.715  0.0738  0.4585  0.1615
12291W        W28552  16.772   8.098  11.932  0.2291 -0.0056  0.1647
12292W        W28553  12.673  12.763   0.884  0.1694 -0.0879 -0.2326
12293W        W28554  11.283  10.498  12.251 -0.0722  0.1033 -0.1986
12294W        W28555   5.662  17.152   3.493  0.2662 -0.0067  0.0623
12295W        W28556  16.769   0.935   4.912 -0.0379 -0.1181 -0.1576
12296W        W28557  14.746  15.700   2.683 -0.1839 -0.0286  0.1450
12297W        W28558   4.656  12.784  14.060  0.0940 -0.1010  0.2188
12298W        W28559   9.293   7.365  16.135 -0.3269 -0.0655 -0.0432
12299W        W28560  12.762  13.953   1.078  0.2243 -0.4484 -0.0999
12300W        W28561   1.760   1.618   0.446  0.1473 -0.2649  0.0259
12301W        W28562   2.263   0.267   0.382  0.0812  0.0132 -0.0046
12302W        W28563   3.648  13.520   3.097  0.0746 -0.0480  0.1250
12303W        W28564   1.799   8.746   4.520  0.0457 -0.0044  0.2278
12304W        W28565  13.322   4.028   4.079 -0.2783 -0.2416 -0.0858
12305W        W28566   6.735   2.812   4.700  0.0575 -0.0240 -0.2581
12306W        W28567  16.211   5.041  13.234 -0.2195  0.1324 -0.1769
12307W        W28568  16.163   0.618  15.777 -0.3767 -0.3778  0.0593
12308W        W28569   4.829  10.930   1.567  0.1642  0.1062 -0.2826
12309W        W28570  14.577  15.570   3.180 -0.1832  0.2978  0.0187
12310W        W28571   2.118  17.388  12.310 -0.0415  0.0312 -0.0425
12311W        W28572   8.040  15.600  13.085 -0.3329 -0.0758  0.0529
12312W        W28573  14.382  11.125   5.964 -0.0624  0.1752 -0.0173
12313W        W28574  13.803  16.602  12.408 -0.2406  0.1931  0.0911
12314W        W28575   9.485  17.365   1.361  0.2256  0.1926 -0.4623
12315W        W28576  14.464  10.573  12.689  0.0737 -0.3618 -0.0467
12316W        W28577  10.282  16.514   0.008  0.0988  0.0841 -0.2302
12317W        W28578   4.722  16.436   4.972 -0.2680  0.1471  0.1504
12318W        W28579  13.766   8.717   4.597  0.3174 -0.0852 -0.0424
12319W        W28580   3.010  12.616  11.795  0.1615 -0.2352 -0.1088
12320W        W28581  13.486  12.423  16.397  0.0012 -0.2086  0.2506
12321W        W28582   3.118   1.622   5.233 -0.0875 -0.0061  0.2511
12322W        W28583  11.519   1.812   4.898 -0.2337 -0.1676 -0.1864
12323W        W28584   0.960  11.337   1.895 -0.0298  0.0216  0.0053
12324W        W28585  10.988   0.682   5.188 -0.1125  0.0708 -0.2230
12325W        W28586  11.447  11.796  15.453  0.1265  0.0875 -0.1783
12326W        W28587   8.369   6.866  12.024  0.1852 -0.1809 -0.3171
12327W        W28588   0.561  17.391  15.103  0.0173 -0.0420  0.3502
12328W        W28589  15.298   2.503  14.520  0.1952  0.1891  0.0507
12329W        W28590   7.766   7.750   5.144  0.2184  0.1190  0.0705
12330W        W28591  17.217  14.261  11.995  0.2467 -0.0565  0.3074
12331W        W28592   3.983  10.519  13.695 -0.2461  0.2266 -0.1319
12332W        W28593   5.743  10.432   5.581  0.1013  0.0912 -0.0780
12333W        W28594  14.049  13.984  14.420 -0.4357 -0.0281 -0.1957
12334W        W28595  12.814   6.357  14.664 -0.0388  0.0943 -0.0454
12335W        W28596  15.028   6.058  14.445  0.0059  0.0420  0.2624
12336W        W28597  16.030   0.724   0.694  0.1522 -0.0838  0.3719
12337W        W28598   3.382   7.596   0.254 -0.4167  0.1112  0.1848
12338W        W28599   4.452  13.866  11.998  0.0249 -0.2597  0.2987
12339W        W28600  13.367   5.271  14.545 -0.2349 -0.2147  0.2175
12340W        W28601   3.833   0.965  15.965  0.2407 -0.0275 -0.1085
12341W        W28602  10.442   2.068  11.850 -0.1633  0.1912 -0.3937
12342W        W28603   6.352  15.528  16.450 -0.0244  0.1119 -0.1746
12343W        W28604  14.746   3.653   0.456  0.1322 -0.0746 -0.0011
12344W        W28605   5.160  11.063   1.079  0.0814  0.1021  0.2734
12345W        W28606   8.247  13.463   3.671  0.0415  0.3132  0.0152
12346W        W28607  17.695   6.105  15.550  0.1251  0.0178  0.3350
12347W        W28608   9.378   1.168   2.235  0.0454 -0.1730  0.1779
12348W        W28609   3.945  14.183   4.072  0.1510 -0.0041 -0.0418
12349W        W28610   4.112   1.885   3.642  0.0890 -0.1512 -0.1281
12350W        W28611  12.986   7.855  14.878 -0.2535  0.2277  0.0083
12351W        W28612  12.044  11.176   0.014 -0.1826 -0.0351  0.2794
12352W        W28613   0.062   2.212  16.509  0.0780  0.2694  0.1283
12353W        W28614   7.887  10.223   3.684 -0.2055 -0.1939  0.1225
12354W        W28615   6.553   0.039   5.100  0.3195 -0.0125  0.3420
12355W        W28616   4.669  15.371  16.529 -0.1536  0.0367 -0.0880
12356W        W28617  10.399  15.084   0.014  0.1155 -0.0176 -0.1563
12357W        W28618   8.576   2.187   1.841 -0.0772 -0.1921  0.0086
12358W        W28619   1.252   6.102   3.434  0.2162 -0.2273  0.0631
12359W        W28620   4.103   2.734  13.827 -0.0427  0.0334  0.3979
12360W        W28621  11.497  10.506  13.102  0.0473 -0.0529 -0.0593
12361W        W28622   4.257  17.471   4.735 -0.5014 -0.2384 -0.1815
12362W        W28623   7.263   7.427  14.888 -0.1799 -0.2162  0.2770
12363W        W28624   6.810   2.705  16.380 -0.0900  0.1532 -0.2785
12364W        W28625   5.854  15.288  12.144  0.0814 -0.0015 -0.1379
12365W        W28626   2.790   6.245  13.652  0.2161  0.1923 -0.2181
12366W        W28627   3.383   6.395   1.212  0.1977 -0.1194 -0.2395
12367W        W28628  14.701  13.811  13.661  0.2224 -0.0051 -0.3940
12368W        W28629  14.801   4.810   0.456 -0.1344 -0.2800 -0.3138
12369W        W28630  16.594   3.920  14.209 -0.0287  0.0890 -0.1207
12370W        W28631   5.375   1.266   2.607  0.0381 -0.0839 -0.0046
12371W        W28632   7.463   8.648   3.973 -0.1545  0.1072  0.2538
12372W        W28633   7.819   4.907  16.397 -0.1929 -0.2393 -0.1295
12373W        W28634   1.066  16.085  13.198  0.1632 -0.2096  0.0416
12374W        W28635  14.779  15.904   5.948  0.2832  0.1347 -0.2050
12375W        W28636   5.768   5.598   4.003  0.4385  0.0034  0.0189
12376W        W28637  12.850  10.373   1.366 -0.2174 -0.3469  0.1994
12377W        W28638  10.401   5.104   4.684  0.1858 -0.2538  0.2479
12378W        W28639   4.975   9.400  15.173  0.1695  0.1790 -0.2374
12379W        W28640  13.172   5.260  15.708  0.0755  0.0749 -0.2001
12380W        W28641   9.770   7.319   5.016 -0.0310  0.0752 -0.1225
12381W        W28642  17.060  17.102  13.443 -0.1980  0.0316  0.2108
12382W        W28643  12.410  13.704  14.575 -0.2591  0.2844  0.1205
12383W        W28644   5.316   5.171  14.400  0.2031 -0.0191 -0.0525
12384W        W28645   3.294  13.158  15.082  0.2136 -0.0287 -0.0585
12385W        W28646   3.469  16.731  16.628  0.0187  0.2284  0.1630
12386W        W28647  11.294   0.188   4.387  0.2755  0.1435  0.0875
12387W        W28648   3.533   0.306  12.378  0.0541 -0.3360 -0.3023
12388W        W28649   0.677   3.681  13.831 -0.1526 -0.0137 -0.3599
12389W        W28650   5.553  13.725   0.176 -0.0545  0.0140  0.0923
12390W        W28651   5.651  15.230   3.545 -0.1853 -0.0809 -0.1549
12391W        W28652  14.943   9.861   4.286  0.0465  0.2927 -0.0062
12392W        W28653   7.948  16.334   1.440 -0.0208  0.0708 -0.2770
12393W        W28654  13.753  11.930  13.663  0.0595  0.0173  0.1552
12394W        W28655  17.350   4.638   3.854  0.1429 -0.0187  0.3914
12395W        W28656  10.335   8.680   1.260  0.2629 -0.2816 -0.1492
12396W        W28657   3.558  13.059  16.001  0.0695 -0.1894  0.2228
12397W        W28658  12.881   1.912   4.368  0.3636 -0.2418 -0.1017
12398W        W28659  13.557   4.814   5.854 -0.1515  0.1099 -0.1274
12399W        W28660  13.884  10.199   5.158  0.0697 -0.2175  0.1569
12400W        W28661   2.245   2.275   0.479 -0.0487 -0.0674  0.0839
12401W        W28662   5.235   8.457   5.426  0.1360 -0.1514 -0.0191
12402W        W28663  15.545   9.664   2.435  0.0836  0.1032  0.0322
12403W        W28664   9.044  13.334  15.562  0.0100  0.0195  0.0327
12404W        W28665   7.926  14.957   0.497 -0.2225 -0.1580 -0.0491
12405W        W28666   7.851  10.163   6.353  0.1476 -0.1847  0.0275
12406W        W28667   4.724   9.207  12.842  0.2203 -0.3925  0.2322
12407W        W28668  17.606  10.107  15.684  0.2726  0.1614 -0.3383
12408W        W28669  14.460  16.017  12.171  0.0107  0.0650  0.2382
12409W        W28670  15.924  14.615   3.633  0.2262  0.1308 -0.4497
12410W        W28671  10.483   6.051  12.287 -0.2239 -0.2816  0.0231
12411W        W28672   1.449   9.346   0.190 -0.0216  0.0128 -0.1500
12412W        W28673  17.445  13.110  14.325  0.3884  0.1814 -0.3528
12413W        W28674   5.131   8.922   5.556 -0.0054 -0.0939 -0.0641
12414W        W28675   9.503   6.190  16.876 -0.1379 -0.3019 -0.0065
12415W        W28676  12.129   2.941  13.514  0.1773  0.0593 -0.0660
12416W        W28677   3.968   6.879  15.175  0.0690  0.1926  0.0923
12417W        W28678   2.299   5.020  13.976  0.1306  0.0218  0.0454
12418W        W28679   4.746   9.720  12.285  0.1201 -0.2607  0.0168
12419W        W28680  15.281   7.927   2.320  0.2171  0.0384  0.0254
12420W        W28681   4.572  10.595   5.045  0.1819 -0.3477 -0.0819
12421W        W28682   2.317   1.466  12.572 -0.0053  0.0339  0.1641
12422W        W28683  11.122   6.536  16.613 -0.0047 -0.1347 -0.1046
12423W        W28684  10.643  14.442   2.267  0.0595  0.0702 -0.3025
12424W        W28685   9.482  15.810  14.334 -0.1148  0.1680 -0.0165
12425W        W28686   1.531  16.267   1.958 -0.3081  0.1501  0.2139
12426W        W28687  13.252   6.810   1.232 -0.0936  0.0951  0.0532
12427W        W28688  10.066   1.532   5.156  0.3675 -0.3516  0.0440
12428W        W28689   4.321   5.834  12.521  0.0053  0.0432  0.0498
12429W        W28690  14.349   6.248  12.418 -0.0153 -0.0587  0.0813
12430W        W28691  12.932  10.259  12.346  0.1359 -0.0132 -0.0917
12431W        W28692  15.490  15.113   1.774  0.2824  0.1821  0.0385
12432W        W28693   6.056   3.665   2.101  0.1093  0.1627  0.1252
12433W        W28694  14.981  10.658  14.028  0.1364 -0.1603 -0.1873
12434W        W28695  15.105   5.033  12.320 -0.2119  0.2553 -0.0091
12435W        W28696   3.181   5.458   2.996  0.3487 -0.1032  0.1856
12436W        W28697   5.472  14.023  14.015  0.0032 -0.3748 -0.0357
12437W        W28698   5.175   8.369  15.238 -0.0675  0.2122 -0.3506
12438W        W28699  13.942  11.398   5.624 -0.0422 -0.0914  0.0772
12439W        W28700   4.730   6.069   6.182  0.3823  0.3514  0.2119
12440W        W28701  17.381   6.701   4.758  0.1275  0.2193  0.0031
12441W        W28702  17.648   2.517   5.247 -0.0556  0.2344 -0.1543
12442W        W28703  11.763  14.870  14.603 -0.1355  0.1235  0.1295
12443W        W28704   6.828   3.272  12.903  0.1139 -0.0203 -0.0798
12444W        W28705   4.081   2.422   0.706 -0.1667 -0.2278 -0.4989
12445W        W28706   8.638   1.201   0.992  0.2147 -0.0576 -0.1820
12446W        W28707   2.720  16.992   1.632  0.1728  0.0568 -0.0766
12447W        W28708   6.276  16.182  11.510 -0.1031 -0.2739 -0.0361
12448W        W28709   5.244  15.344  16.216 -0.2071 -0.0985 -0.1629
12449W        W28710   0.349   4.051   5.541  0.1022 -0.1713 -0.2827
12450W        W28711  11.211  10.852  16.045  0.1577  0.1252  0.1164
12451W        W28712  15.254   1.720  16.343 -0.0322 -0.2754  0.2911
12452W        W28713   6.617   9.183   1.145 -0.0840  0.0336  0.1575
12453W        W28714   6.315  12.986  14.585 -0.1374 -0.1105 -0.0899
12454W        W28715  16.608   2.567   6.186 -0.3245  0.0775 -0.2184
12455W        W28716  15.984   0.161   3.453  0.1312  0.1217  0.0565
12456W        W28717  11.289   1.632  14.081  0.1102 -0.0091  0.0981
12457W        W28718   8.293  16.039  14.927  0.2246 -0.3006 -0.1664
12458W        W28719  16.326   4.567  12.409 -0.0900 -0.1615 -0.4655
12459W        W28720   2.312  10.906  16.747 -0.1750  0.2538  0.3104
12460W        W28721  11.867   6.891   5.293 -0.1209 -0.0409 -0.0678
12461W        W28722   0.162  16.150   0.086 -0.1740 -0.0837  0.3738
12462W        W28723   5.389  13.165  15.107  0.0690  0.0542  0.3263
12463W        W28724   7.410  16.909   4.600  0.0494  0.1075 -0.1067
12464W        W28725   9.530   5.220  13.355 -0.2032  0.2368 -0.0558
12465W        W28726   0.470   6.053  16.298  0.0167 -0.1796  0.1707
12466W        W28727   4.558  16.346  11.412  0.0166 -0.1972 -0.1785
12467W        W28728  11.358   3.280   2.207 -0.1021  0.3214  0.1117
12468W        W28729  13.945  14.732   0.055 -0.2577  0.0588 -0.0853
12469W        W28730  12.309   1.824   4.336  0.0084  0.0457 -0.1858
12470W        W28731  16.684   2.228  11.851 -0.1067  0.0664  0.0514
12471W        W28732  14.054   4.144   0.925  0.2559 -0.2291  0.2092
12472W        W28733   6.379  14.525  13.391 -0.2015 -0.0715  0.1301
12473W        W28734   2.889   0.421   2.909 -0.1583 -0.1232  0.0671
12474W        W28735   2.973  17.825  12.435  0.2623 -0.4162 -0.0311
12475W        W28736   3.982   3.551   2.106  0.1637 -0.0667 -0.0362
12476W        W28737  11.360   3.985   5.791  0.1959 -0.0426  0.2770
12477W        W28738   6.144  10.504   3.297 -0.2659  0.1634 -0.1317
12478W        W28739   1.937  10.869  13.849 -0.0915 -0.0410 -0.0284
12479W        W28740  13.404  15.582   4.480  0.1681 -0.3138 -0.2491
12480W        W28741  10.925  14.166   6.208 -0.1132 -0.1241  0.0251
12481W        W28742  13.755   2.574   3.226 -0.0913 -0.1369 -0.0438
12482W        W28743   8.159   9.585   2.621  0.1023 -0.1260  0.0051
12483W        W28744   4.309   6.668   1.014 -0.0859 -0.0982 -0.2493
12484W        W28745  11.878  13.702  14.882  0.0094  0.1035 -0.2795
12485W        W28746   5.928  12.743  15.365 -0.3199 -0.0212  0.0589
12486W        W28747  10.226   1.172  15.678 -0.2387 -0.0996 -0.2331
12487W        W28748  17.337   2.034   1.057 -0.1450 -0.0142  0.1691
12488W        W28749   8.215   6.069  12.717 -0.0199  0.0547 -0.1939
12489W        W28750  13.179  15.146   2.461 -0.1356  0.3501 -0.1690
12490W        W28751   4.879   3.793  14.440  0.1234 -0.0263 -0.0858
12491W        W28752   2.550  14.954   3.251 -0.1545 -0.0746  0.0009
12492W        W28753   1.680   1.218   4.218 -0.2048  0.0984 -0.0036
12493W        W28754   5.778   4.761  14.865 -0.1181  0.0355 -0.1869
12494W        W28755   6.565   4.336   5.533  0.0181 -0.0020 -0.0292
12495W        W28756   9.540  12.787  14.643 -0.0189  0.1094 -0.1117
12496W        W28757   6.967   4.155   5.277  0.1343  0.0049 -0.1037
12497W        W28758   2.680   6.988  15.538  0.1207 -0.0463 -0.1222
12498W        W28759  16.192   5.395  13.567 -0.1664  0.0646 -0.2202
12499W        W28760  10.042   4.721  14.957 -0.0920  0.0038  0.3797
12500W        W28761  13.846  13.233  12.825  0.0701  0.0734  0.3641
12501W        W28762  14.497  13.369   0.857  0.2480 -0.2778  0.2152
12502W        W28763   6.009  11.569   3.610  0.1194  0.0624 -0.3048
12503W        W28764   0.166  15.859  14.949 -0.1584  0.0966 -0.1608
12504W        W28765   8.193  10.551   1.097 -0.0153  0.0551 -0.2755
12505W        W28766   9.373   8.258   0.042 -0.0757  0.2326  0.0105
12506W        W28767   7.201   9.785   1.568 -0.2257 -0.0246  0.1580
12507W        W28768  16.161   5.273  16.658 -0.1828  0.0083  0.0411
12508W        W28769  10.337   1.472   0.996 -0.3228  0.3113  0.1119
12509W        W28770  16.807  14.753   2.057 -0.2542  0.4825 -0.4723
12510W        W28771   1.870   6.890  13.306 -0.2014  0.3323 -0.1959
12511W        W28772  15.721   2.054   3.891  0.1720  0.1286  0.0544
12512W        W28773   9.321  11.868   1.529  0.2439  0.1702  0.0166
12513W        W28774   7.857  14.172  12.252 -0.0000 -0.0010  0.0592
12514W        W28775  17.148   2.614   2.357  0.1315  0.0250 -0.0209
12515W        W28776  11.808  13.811  13.952 -0.2682  0.2711 -0.1075
12516W        W28777   4.684  13.889   1.124 -0.1905  0.2389 -0.1668
12517W        W28778   6.541   9.386  12.321 -0.0422 -0.1564  0.1634
12518W        W28779  15.955   7.965   3.753  0.0600 -0.1698  0.1098
12519W        W28780   7.117   0.484   3.265 -0.1965  0.1795 -0.5145
12520W        W28781   0.529  10.123   6.121  0.2346 -0.1684  0.1856
12521W        W28782   1.999   4.374   5.868  0.0402  0.0193 -0.1536
12522W        W28783  14.327   6.019  14.459 -0.0449  0.0562  0.0736
12523W        W28784   3.333  17.760   4.325  0.0207 -0.0085 -0.3191
12524W        W28785  11.163   7.938  14.937 -0.1029 -0.0310 -0.1076
12525W        W28786  10.092   5.524   4.774  0.0876 -0.0245  0.0659
12526W        W28787  12.072   9.903   5.448 -0.0383 -0.0437  0.3236
12527W        W28788  15.189   1.931   6.159 -0.0746 -0.0216 -0.0732
12528W        W28789  16.043  12.070   2.731 -0.0386  0.3777  0.0837
12529W        W28790  13.357   4.754   0.892 -0.3481 -0.1915  0.2938
12530W        W28791  14.679  11.085   0.850  0.0493  0.0844  0.1682
12531W        W28792  17.692   7.172   2.825  0.1548 -0.0788  0.1461
12532W        W28793   8.460  10.165   4.810 -0.0414  0.1352  0.1020
12533W        W28794  11.324   9.737   1.359  0.1820  0.0845  0.3846
12534W        W28795   7.415  10.061   5.396  0.1559  0.3068  0.0526
12535W        W28796   8.910  10.567  13.643  0.0936  0.0003 -0.1959
12536W        W28797   5.765   4.436   1.913  0.1058 -0.0945  0.0335
12537W        W28798   5.281   9.481   1.270 -0.1130 -0.1957  0.0367
12538W        W28799  10.089  10.907   5.665 -0.1707 -0.2224 -0.0731
12539W        W28800   1.207   1.304  15.270 -0.2012 -0.0719 -0.0050
12540W        W28801   5.316   2.997   4.657 -0.0577  0.1704  0.2623
12541W        W28802  17.041  16.908   0.671  0.1599  0.1330 -0.1013
12542W        W28803   3.922   0.570   3.983  0.0434 -0.0402  0.0550
12543W        W28804  10.700   7.267  12.722  0.2200  0.0814 -0.1981
12544W        W28805   9.609   5.671  12.416  0.0849  0.0937  0.1954
12545W        W28806  11.147   2.640  14.163  0.2500  0.1546 -0.2588
12546W        W28807  12.073   4.257  13.591  0.5218 -0.0274  0.1462
12547W        W28808   5.261   4.668   4.572 -0.1879 -0.0692 -0.1778
12548W        W28809  10.412   5.382  15.788 -0.0967  0.0579  0.2468
12549W        W28810   9.518   3.076  14.347 -0.2835  0.1476  0.0218
12550W        W28811   1.470   0.757   1.677 -0.0484  0.3591  0.0650
12551W        W28812   7.679   1.665  14.226  0.0020 -0.1063 -0.1260
12552W        W28813  12.734  15.993   4.697 -0.2584 -0.0636 -0.1971
12553W        W28814   1.328   8.350  16.077 -0.2161  0.1856 -0.1094
12554W        W28815  10.729   0.994   1.898  0.1045 -0.1573 -0.1522
12555W        W28816   6.211  14.541  11.621 -0.0317  0.0670 -0.1046
12556W        W28817  15.894  12.520   1.501  0.1788  0.0657  0.1994
12557W        W28818  15.856   9.569   4.827  0.2831 -0.0222 -0.1288
12558W        W28819  13.828   7.705   3.548  0.2077  0.0283  0.1820
12559W        W28820  11.980   8.117  12.200 -0.0683  0.1551 -0.1615
12560W        W28821  15.163  13.007   4.404  0.0423 -0.1008 -0.1770
12561W        W28822   8.495  11.417  12.704  0.0760 -0.3795 -0.0705
12562W        W28823  10.586  12.788  13.393 -0.3787 -0.2976 -0.0739
12563W        W28824  15.345  17.019  12.359  0.2742 -0.2454  0.1156
12564W        W28825  16.531  13.045  15.678  0.3182  0.0206 -0.0288
12565W        W28826  16.931   1.530   1.744 -0.4578  0.0046  0.2954
12566W        W28827   2.299   9.037   5.218 -0.3681 -0.0051  0.3846
12567W        W28828  15.141  16.959   0.367  0.2050 -0.0295 -0.1835
12568W        W28829  17.670   7.668   2.710 -0.1760  0.0649 -0.2299
12569W        W28830  17.294   4.373  13.920 -0.1954  0.0633  0.1053
12570W        W28831  17.852  14.727   5.476  0.0221  0.4221 -0.0896
12571W        W28832   6.174   1.299   2.168  0.5387  0.0767 -0.0611
12572W        W28833  11.493  12.888   4.279 -0.2236 -0.3584  0.0975
12573W        W28834  14.223  10.375   1.439  0.3271  0.1631 -0.0259
12574W        W28835  12.943  12.670   6.093  0.1202 -0.2681 -0.0104
12575W        W28836   0.934  16.511   4.577  0.2471  0.1435 -0.2039
12576W        W28837  13.150   5.975   5.288 -0.1033 -0.0100  0.2074
12577W        W28838   0.429   2.044  15.480 -0.1787  0.0417 -0.0280
12578W        W28839  17.751   7.151  12.351  0.3038  0.1366  0.0864
12579W        W28840   8.103   0.876   1.544  0.2348  0.2521 -0.0436
12580W        W28841  16.378  17.060  13.894  0.0438  0.2961  0.2397
12581W        W28842   9.872   9.531   4.775  0.0371  0.1435 -0.2477
12582W        W28843   3.569   2.390   2.478  0.1691  0.2369  0.2110
12583W        W28844   8.910   4.462   4.377 -0.3261 -0.0088  0.1338
12584W        W28845   8.794  16.638   4.337 -0.2736 -0.0404 -0.1013
12585W        W28846  12.249   6.807   1.176 -0.0796  0.0910  0.0585
12586W        W28847  16.428  13.694   1.559 -0.0580  0.5807  0.0602
12587W        W28848   3.112  13.708  12.454  0.3748  0.0866  0.0555
12588W        W28849  10.609  16.928   6.214 -0.1395 -0.5915 -0.1500
12589W        W28850  10.393   5.988   0.994  0.0380 -0.0790 -0.0688
12590W        W28851  13.840   1.395  14.418 -0.0374 -0.2626  0.0763
12591W        W28852   5.686  14.769   3.763 -0.2974  0.1682 -0.1159
12592W        W28853   7.370  12.743  12.235 -0.0352 -0.1302 -0.0334
12593W        W28854  14.951  16.790  15.065 -0.2856 -0.1213 -0.0871
12594W        W28855  13.342   0.411  13.757 -0.0973 -0.6012  0.0018
12595W        W28856   6.606  17.076  15.469  0.2638  0.0695 -0.2587
12596W        W28857   7.493  15.122  16.556 -0.2634  0.2283  0.1908
12597W        W28858   5.742   5.932   4.853  0.1249  0.0470 -0.1850
12598W        W28859   4.280   5.263  14.349 -0.4264 -0.1765 -0.1669
12599W        W28860  16.233   1.778   3.971  0.0780  0.0389  0.2897
12600W        W28861   7.581   1.760   3.217  0.2682 -0.0536 -0.1246
12601W        W28862   9.466  11.500  13.217 -0.2254  0.2373  0.1767
12602W        W28863   6.954  17.488  15.955 -0.0401 -0.3819  0.1266
12603W        W28864   2.347   1.297  15.217  0.0133  0.2964  0.2405
12604W        W28865   7.831  12.720  13.516 -0.2935  0.3321  0.2951
12605W        W28866   7.778   1.753   1.795  0.0277  0.1118 -0.0792
12606W        W28867  12.542   6.676   1.616 -0.2416  0.3927  0.0025
12607W        W28868   0.812  13.392   2.059  0.2813  0.0523 -0.2273
12608W        W28869  16.417  10.834  14.929  0.1009  0.2439 -0.0373
12609W        W28870   9.362   0.921  14.116 -0.1389 -0.1595  0.3018
12610W        W28871  14.531  17.156   1.807 -0.1109  0.0690 -0.1874
12611W        W28872   1.001  16.368   3.086  0.0050  0.1681  0.0083
12612W        W28873  17.765  14.356  15.732  0.1692  0.0568 -0.3745
12613W        W28874  12.522   3.142   2.088  0.0306  0.0681 -0.0931
12614W        W28875   2.901  12.642   6.238 -0.2280 -0.1804 -0.2716
12615W        W28876  14.226  13.055  11.738  0.0909 -0.1127 -0.4731
12616W        W28877   8.586   7.411   1.568  0.2389  0.3106 -0.0618
12617W        W28878  11.125  16.440  16.458  0.0536  0.1797  0.4105
12618W        W28879   5.138   6.608  11.209  0.4272 -0.1702  0.1631
12619W        W28880   0.891   2.369   0.552 -0.1072  0.1170 -0.0718
12620W        W28881  10.642  16.235  11.921 -0.1961  0.2294 -0.1899
12621W        W28882  13.902   6.386  10.632 -0.4475 -0.0994 -0.0017
12622W        W28883  14.512   1.536   0.369 -0.3650 -0.0136 -0.2360
12623W        W28884  15.926  15.000   2.716 -0.0161  0.1022 -0.2281
12624W        W28885   0.506  16.772   1.537  0.0198  0.1373  0.0710
12625W        W28886  10.433   1.905   5.014  0.0126  0.1910  0.3063
12626W        W28887   2.130  15.825  16.935 -0.0886 -0.0553 -0.0783
12627W        W28888  16.303   1.652  13.897 -0.1356 -0.3610 -0.0701
12628W        W28889   5.823  12.525  12.220 -0.0255 -0.0667  0.2311
12629W        W28890  13.087   8.294   0.488  0.0161  0.1067 -0.1288
12630W        W28891   0.437  13.760   4.543 -0.3639 -0.0771 -0.1501
12631W        W28892  13.862   2.956   5.803 -0.0305  0.0924  0.1661
12632W        W28893   1.245   1.879   2.142  0.0480  0.0267  0.0382
12633W        W28894  13.639   1.505   3.460 -0.1636 -0.1942 -0.0697
12634W        W28895   1.979   9.991   4.509 -0.0355 -0.2192  0.1587
12635W        W28896  11.317   4.929  13.577  0.2010 -0.0706  0.0628
12636W        W28897  14.907   6.299   4.413  0.0803 -0.1018  0.2399
12637W        W28898   9.435  14.169   0.959  0.0781 -0.0557 -0.0376
12638W        W28899  16.002  11.847   3.775 -0.1568  0.0911 -0.0340
12639W        W28900   1.223  16.723   2.560  0.3783  0.0775 -0.0208
12640W        W28901  14.115   4.490  15.910 -0.0623  0.1188 -0.1402
12641W        W28902   2.762   6.412  15.210  0.0583 -0.2852 -0.0733
12642W        W28903  16.255  17.771   0.731  0.1551 -0.2453 -0.3517
12643W        W28904   3.257   7.616  15.060  0.0034  0.1729  0.0366
12644W        W28905   3.328  14.152  16.597 -0.1952 -0.0285 -0.0411
12645W        W28906   6.154   6.882   2.048  0.0969 -0.0865 -0.3670
12646W        W28907   4.673  14.426  14.620 -0.2597 -0.3522  0.0401
12647W        W28908  15.611   6.513  15.456 -0.2426 -0.0905 -0.0229
12648W        W28909  15.104   5.310  15.767 -0.0889 -0.2089  0.0470
12649W        W28910   0.665   0.704   0.142  0.0792  0.1577 -0.2277
12650W        W28911  17.329  13.912  13.286  0.0084  0.0526  0.0709
12651W        W28912   1.292   0.382   4.093 -0.2187 -0.0522 -0.0858
12652W        W28913  14.236   6.466  11.874 -0.0749  0.0302  0.1444
12653W        W28914  16.988  16.209   5.986  0.0042 -0.0055  0.1416
12654W        W28915  12.312  16.707  13.558 -0.0603  0.0373  0.2037
12655W        W28916   9.719  14.987   4.321 -0.0176 -0.1201  0.3610
12656W        W28917  11.944   3.553  12.627 -0.1918  0.0460 -0.2880
12657W        W28918  14.938   4.714  16.887 -0.1167 -0.0163  0.1533
12658W        W28919  13.280  14.020  15.305 -0.3663  0.0358 -0.4698
12659W        W28920   4.597   3.047  15.049 -0.0668  0.4034 -0.1482
12660W        W28921   8.890   7.594   3.891 -0.0476  0.0199  0.4024
12661W        W28922   8.806   8.037   0.318 -0.0288 -0.0274 -0.0337
12662W        W28923  16.644   2.500  15.342 -0.0597  0.0705  0.1317
12663W        W28924  14.031  14.450   1.177  0.1262 -0.1482  0.0422
12664W        W28925  16.395   7.578  14.630  0.0431 -0.3224 -0.0816
12665W        W28926  17.153  12.774   3.763  0.1503  0.3329 -0.2623
12666W        W28927   3.831   5.733   6.327 -0.0583 -0.0863 -0.0299
12667W        W28928   0.557   1.740  12.406 -0.1601  0.0119 -0.2647
12668W        W28929   4.909   3.018  13.150 -0.1495  0.4029  0.0081
12669W        W28930   8.408  14.754  12.746  0.2622 -0.1881 -0.0367
12670W        W28931  15.091   7.129   2.783 -0.1400 -0.0617  0.3373
12671W        W28932   1.931   1.055   3.805 -0.1251  0.0102  0.2463
12672W        W28933  12.686  17.050   4.935  0.0340 -0.1250 -0.0477
12673W        W28934  17.164   6.560  13.667  0.0838  0.2435  0.1364
12674W        W28935   6.841  10.852  12.723 -0.1236  0.2712  0.1687
12675W        W28936   9.712   9.487   3.788 -0.0467 -0.0145  0.2691
12676W        W28937   8.898  16.370  13.415  0.1167  0.1364 -0.2334
12677W        W28938  15.363  10.496   1.093 -0.1186 -0.1967 -0.0595
12678W        W28939   2.110   5.974   2.959 -0.2774  0.1475  0.3130
12679W        W28940   1.631   4.339   3.074 -0.2011  0.4117 -0.0225
12680W        W28941   3.299   6.333   1.755  0.0217 -0.0541  0.0620
12681W        W28942  14.839  10.993  11.743  0.0209  0.1476 -0.1559
12682W        W28943   0.895  16.302  16.849  0.1637  0.3821  0.2905
12683W        W28944  16.299  10.421  13.039 -0.0971  0.0849 -0.0641
12684W        W28945   6.076   7.107  14.173 -0.0216  0.1467 -0.0267
12685W        W28946  13.082   4.632   1.355  0.0325  0.2457  0.0596
12686W        W28947  11.123   0.135   5.823 -0.2291  0.1753 -0.4706
12687W        W28948  13.083   3.870   3.546  0.1416 -0.2854  0.1079
12688W        W28949   7.149   9.375  11.789 -0.0606  0.0356 -0.0711
12689W        W28950   8.903  13.819   4.011 -0.1890  0.3095  0.2320
12690W        W28951  12.239  15.418   2.226 -0.0334  0.1046  0.1189
12691W        W28952   0.727  17.203  16.016  0.2037  0.0851  0.0596
12692W        W28953   9.859   1.070  12.313  0.2146 -0.0188 -0.4303
12693W        W28954   1.334   5.130   0.977  0.2155  0.2137  0.0615
12694W        W28955  10.269   4.350   1.041 -0.0678  0.0374 -0.3784
12695W        W28956  14.430   8.549   0.190  0.1151 -0.0640 -0.1778
12696W        W28957  10.145  15.258   3.841 -0.3224  0.3180 -0.0675
12697W        W28958  16.339   4.098   4.516 -0.1091  0.0176  0.1244
12698W        W28959   7.983   4.559   5.248 -0.1084  0.3702  0.0983
12699W        W28960   9.432  10.093  14.616 -0.0225 -0.0073 -0.2978
12700W        W28961   3.003  16.836   4.362 -0.0527  0.2809 -0.0444
12701W        W28962   2.688   9.531   3.039  0.0438  0.0362  0.2557
12702W        W28963   8.104   1.697   0.363 -0.0989  0.2161  0.0836
12703W        W28964   9.390  14.317  16.565 -0.0321 -0.2074 -0.1116
12704W        W28965  10.309   9.488   1.223 -0.0529 -0.1771 -0.1073
12705W        W28966   2.404   0.999   2.470  0.2243 -0.0324 -0.0019
12706W        W28967   1.574   3.036  15.033 -0.3474 -0.3702 -0.3525
12707W        W28968   1.887   0.115  16.929  0.1377  0.1456  0.0900
12708W        W28969  15.272  12.524   4.606 -0.0454 -0.0753 -0.3833
12709W        W28970   8.748   1.830  15.861 -0.0316 -0.0496  0.1081
12710W        W28971   1.217  12.924  14.957  0.0658  0.0718  0.1579
12711W        W28972   7.015  16.342   2.315  0.0298  0.1478 -0.1619
12712W        W28973   6.942  16.479   4.524  0.0743  0.1019  0.1868
12713W        W28974  14.568   4.169   1.729  0.3706 -0.1777  0.0227
12714W        W28975   3.058  12.240  12.492 -0.2379  0.0205 -0.4050
12715W        W28976  12.954  14.403  15.793  0.0236  0.2362 -0.1900
12716W        W28977   0.635   5.884  16.814 -0.2508  0.1346 -0.1468
12717W        W28978   6.260   6.700  12.767  0.0728 -0.0300  0.1194
12718W        W28979  14.868   0.711  16.199 -0.0426  0.2034 -0.1541
12719W        W28980   1.996   5.468   2.747  0.1118 -0.2019 -0.1978
12720W        W28981  16.925   3.124   3.773  0.0455  0.0589 -0.0342
12721W        W28982   9.815  11.886  11.987  0.0479 -0.0757  0.0784
12722W        W28983   9.382  17.687  16.117  0.0800  0.1097  0.1063
12723W        W28984   9.084  15.295  15.754 -0.0011 -0.0076  0.2905
12724W        W28985   7.797  16.639  13.143 -0.0061  0.2591  0.2647
12725W        W28986  11.327  12.448  14.659  0.1119 -0.0622  0.4139
12726W        W28987  14.711  15.863  15.150 -0.3989 -0.1128  0.0443
12727W        W28988  16.423  10.134  12.645 -0.1571 -0.0592 -0.0637
12728W        W28989   1.850   2.881   3.790  0.0295 -0.0022  0.2672
12729W        W28990   8.094   4.071   0.893 -0.3216 -0.1898  0.0190
12730W        W28991   1.119  13.471   1.549  0.0595 -0.1227  0.1020
12731W        W28992  14.779  10.900  13.585  0.0578  0.0126  0.1274
12732W        W28993  11.393  14.664   2.869  0.0773 -0.0655  0.2001
12733W        W28994   3.859   9.559   3.779 -0.0155 -0.0092 -0.1141
12734W        W28995   5.127   7.425  13.755 -0.0561 -0.1462 -0.3060
12735W        W28996  15.585   8.031   5.135  0.0191 -0.2747 -0.0436
12736W        W28997  13.288  14.399  16.226  0.2028 -0.1714  0.0923
12737W        W28998  15.975   8.177  14.853 -0.0655 -0.1147  0.1421
12738W        W28999  14.626  11.104  15.288  0.0082  0.2012  0.0924
12739W        W29000   4.113   9.220   1.746  0.0157  0.0498 -0.4558
12740W        W29001   4.627   5.360  14.747  0.1647 -0.0776 -0.0611
12741W        W29002  12.427  16.574   0.623 -0.4081  0.1526  0.2364
12742W        W29003   0.563  11.622  11.717  0.0350  0.0638 -0.2955
12743W        W29004  12.725  15.780  12.278  0.0832 -0.0670 -0.1164
12744W        W29005   2.395   2.665  12.175 -0.2131  0.0826 -0.2931
12745W        W29006  12.485   6.527   3.999  0.0242 -0.1113  0.1561
12746W        W29007  16.577   0.018  13.452  0.3537 -0.1545  0.0467
12747W        W29008  11.482   7.083   2.115  0.0898  0.1297 -0.0042
12748W        W29009   0.392  13.880   4.017 -0.0813  0.1201 -0.1267
12749W        W29010  11.387  17.479   4.483  0.0333  0.0921 -0.0278
12750W        W29011   1.975   8.446   0.392  0.1330 -0.2384  0.2796
12751W        W29012  10.259   4.636  14.532  0.1001  0.1360 -0.1264
12752W        W29013   5.321  16.136   1.445 -0.2557 -0.3519 -0.1020
12753W        W29014   8.573   5.490  16.317  0.0710  0.2733 -0.1801
12754W        W29015  15.767  13.426  14.746  0.1237 -0.0412  0.0233
12755W        W29016  15.512  16.980   4.053  0.0961  0.0617  0.0411
12756W        W29017   4.389  13.419  11.737  0.1009 -0.3320 -0.1297
12757W        W29018  10.326   1.484  13.676 -0.0351  0.2084  0.0500
12758W        W29019   4.306   8.398   3.217 -0.1424  0.1491 -0.0182
12759W        W29020   1.191  14.067   0.374 -0.0746  0.1734  0.0671
12760W        W29021   5.403  15.627  16.632 -0.0573  0.2531 -0.1074
12761W        W29022   4.758   9.887   0.911 -0.1374  0.0172 -0.0060
12762W        W29023  16.898   3.424   2.487 -0.2179  0.1472  0.2502
12763W        W29024   2.867   1.377   1.744  0.0233  0.0431 -0.1355
12764W        W29025   3.515   9.953  15.650  0.0396 -0.0433 -0.0496
12765W        W29026   6.816   9.232   4.458  0.1275 -0.1664  0.2016
12766W        W29027  12.655  14.065  12.677  0.0756 -0.0901 -0.0671
12767W        W29028  10.360   3.001   3.434  0.0541 -0.0836  0.0559
12768W        W29029  13.156   5.088  13.675 -0.0139 -0.1749 -0.0601
12769W        W29030   6.924  13.135  14.090 -0.0072 -0.0218  0.1639
12770W        W29031   3.052   3.491   4.003 -0.1820 -0.1088 -0.0257
12771W        W29032   4.662  15.669  12.370  0.1357 -0.2830 -0.2119
12772W        W29033  15.550   4.630  13.795 -0.0712  0.1166  0.0780
12773W        W29034  15.824  10.413  16.943  0.2877  0.0272 -0.2669
12774W        W29035  10.780   9.759  12.115 -0.0935  0.0481  0.0777
12775W        W29036   5.544   8.164   5.126  0.1422  0.0200 -0.1130
12776W        W29037   7.858  15.007   3.093 -0.0728 -0.2279 -0.0256
12777W        W29038   6.262   0.044   2.537  0.0774  0.0618  0.1249
12778W        W29039   9.250   7.631   2.805 -0.1755 -0.0158  0.2287
12779W        W29040  13.454   9.750   5.673 -0.2108 -0.0137  0.1859
12780W        W29041  13.516   7.362   2.225 -0.0450  0.0009 -0.3703
12781W        W29042   7.221  16.004  13.459 -0.0601 -0.0402  0.0431
12782W        W29043  16.234  17.098   3.366  0.1287 -0.0476  0.0755
12783W        W29044  15.083   8.160  11.455  0.0944 -0.1573 -0.0807
12784W        W29045   5.028   5.528   2.183  0.2268 -0.0672 -0.1574
12785W        W29046  13.161  13.575  14.321  0.1554  0.0368 -0.0347
12786W        W29047   5.008  16.251   0.667 -0.0914  0.2680 -0.0280
12787W        W29048  13.709   6.508   1.654 -0.2776 -0.2485 -0.2754
12788W        W29049  12.298   7.688   0.224 -0.2194 -0.0011  0.1550
12789W        W29050   0.145  17.005  13.487 -0.1017  0.0621 -0.1921
12790W        W29051  15.145   5.794   0.790 -0.2262  0.4417  0.4630
12791W        W29052   1.960  15.377   3.497  0.2875 -0.0809  0.0196
12792W        W29053   4.024   4.946   3.150  0.1880  0.2164  0.1494
12793W        W29054   2.361   0.838   4.678  0.1495  0.0952 -0.0882
12794W        W29055   5.656  15.707  15.363  0.0397  0.0386 -0.0426
12795W        W29056   6.970  12.600   1.463 -0.0765 -0.0578  0.2335
12796W        W29057   3.903   5.400   4.510 -0.2694  0.2152 -0.2062
12797W        W29058   1.983   9.964   0.771  0.0106 -0.1036 -0.3122
12798W        W29059   8.536   9.726   2.054  0.1185  0.1095 -0.2892
12799W        W29060  15.846  17.422  15.099  0.0187 -0.2216  0.3097
12800W        W29061   1.896   2.783   5.714 -0.0018  0.2578  0.1627
12801W        W29062  16.323   6.991   3.482  0.0599  0.0154 -0.2140
12802W        W29063   2.122  11.637   0.681  0.0027 -0.0464 -0.2299
12803W        W29064  13.487   6.794   4.917 -0.2058  0.0052 -0.1742
12804W        W29065   6.567   1.740  16.723 -0.2460  0.1574  0.4934
12805W        W29066  15.717  10.924   0.660 -0.1008 -0.0518 -0.2120
12806W        W29067   3.828  10.730  11.486  0.2493 -0.0889 -0.0741
12807W        W29068   8.096   9.140   1.653 -0.0016 -0.2264  0.2615
12808W        W29069   7.599   9.833   3.203  0.1713  0.2359  0.2565
12809W        W29070   8.172  10.729   0.537  0.2431  0.1767 -0.1160
12810W        W29071  17.325  16.983  16.541  0.0378 -0.1794  0.2485
12811W        W29072   6.629  12.666  12.767  0.0809  0.2477  0.0973
12812W        W29073   8.728   8.436  16.960  0.2543 -0.1349 -0.0924
12813W        W29074  16.251   2.873  16.529  0.0496 -0.2911 -0.0866
12814W        W29075   8.221   3.758  13.458 -0.1563  0.0454  0.0672
12815W        W29076  13.727   2.943   1.665  0.1194  0.1014 -0.1286
12816W        W29077  11.739   5.760  14.594  0.0406 -0.1880  0.2598
12817W        W29078   6.541   3.846   2.251  0.1747 -0.1495  0.3189
12818W        W29079  16.697  17.246   6.086 -0.0390 -0.0296 -0.0573
12819W        W29080  11.655  12.473  12.205  0.2845  0.0442  0.1865
12820W        W29081  14.341  16.930   4.490  0.1735 -0.0392 -0.2992
12821W        W29082   9.205   6.220   3.573  0.1748  0.0372 -0.1503
12822W        W29083   4.551  13.520   3.393  0.1681 -0.1567  0.4714
12823W        W29084  14.903  12.792  11.963 -0.0660 -0.1332  0.1947
12824W        W29085  17.817  12.502   3.186  0.0715  0.4632 -0.0211
12825W        W29086  12.843  14.113  13.191  0.0946 -0.0060  0.2970
12826W        W29087  13.602   8.437   0.309  0.2001  0.1088 -0.1222
12827W        W29088   9.520  16.047   1.619  0.0672 -0.1314  0.1216
12828W        W29089   8.373   1.112  15.523  0.1298 -0.1056  0.0470
12829W        W29090   9.818   6.049  14.896  0.0753  0.2242  0.2407
12830W        W29091   8.575   0.400   4.798 -0.0230  0.1279  0.1750
12831W        W29092  17.575  13.247  16.219 -0.0865 -0.3040 -0.1675
12832W        W29093   7.595  13.750   0.375 -0.2990 -0.0720 -0.1073
12833W        W29094   7.177   6.016   2.086  0.0234 -0.1020 -0.0705
12834W        W29095   5.204   1.109  15.639  0.0804 -0.0587  0.3430
12835W        W29096  11.339  10.681  16.457 -0.1965  0.3797  0.0085
12836W        W29097  12.428   7.582   6.509  0.1934  0.3105 -0.2234
12837W        W29098  14.940   9.281   4.701 -0.0061  0.2746  0.4192
12838W        W29099  12.579  10.634  12.421 -0.5288  0.2146  0.1222
12839W        W29100  10.477   6.432   0.747 -0.1208 -0.3671  0.0146
12840W        W29101  15.926   1.677   4.583 -0.2601  0.0629 -0.1216
12841W        W29102  11.234   9.329   2.901 -0.3491  0.0799  0.1676
12842W        W29103  10.259  17.375  15.288 -0.1766 -0.2933 -0.5442
12843W        W29104   8.451   9.033   3.314 -0.2286 -0.1096 -0.0430
12844W        W29105   4.514  13.749   2.024  0.1058 -0.1722 -0.0552
12845W        W29106  13.522  16.826   0.163 -0.0679  0.0521 -0.1385
12846W        W29107  17.820  14.802  13.511  0.3145 -0.2627  0.0300
12847W        W29108   6.400   7.748  13.000  0.1602  0.2152 -0.0596
12848W        W29109   2.652   9.818   4.808  0.2530  0.0645  0.2965
12849W        W29110   4.438  17.313  12.350 -0.1686 -0.0058 -0.1511
12850W        W29111  10.742   5.271  13.847 -0.1261  0.3361 -0.1526
12851W        W29112   7.824   7.636  11.629  0.3677 -0.1112  0.0910
12852W        W29113   1.525  16.241   0.467  0.1461  0.0246  0.0961
12853W        W29114   8.047   9.186   3.036 -0.0867  0.1441  0.0958
12854W        W29115  15.854  11.160  15.944 -0.1794  0.1449  0.0949
12855W        W29116  11.240   5.431   4.277  0.0740  0.1944 -0.0978
12856W        W29117  11.381  16.792  12.025 -0.1133  0.1807 -0.2564
12857W        W29118   5.984   3.360   1.627 -0.0838  0.0047 -0.3182
12858W        W29119  14.852  13.328   4.177  0.0928 -0.2890 -0.1542
12859W        W29120  14.421  11.082  13.152 -0.0341 -0.3790  0.4227
12860W        W29121   7.133  17.253  13.094  0.2777  0.0136 -0.2763
12861W        W29122  11.738  16.660  15.580 -0.4040 -0.0961  0.3046
12862W        W29123   5.242  17.789  16.127  0.1508 -0.0988 -0.1414
12863W        W29124   0.221  14.010   0.263  0.1398 -0.3387 -0.0710
12864W        W29125  15.003  14.960   2.598 -0.0268  0.1427 -0.1945
12865W        W29126   5.613   0.936   3.346  0.1024  0.3583  0.0039
12866W        W29127   5.632  10.919  15.157 -0.1186  0.1551  0.1212
12867W        W29128   1.004   6.555   3.648 -0.2924  0.1848 -0.0568
12868W        W29129   1.717  15.450  16.717  0.0691 -0.1046  0.0313
12869W        W29130  13.714   2.758  12.166  0.0865 -0.0515 -0.1238
12870W        W29131   8.907   2.123   0.418  0.3251  0.0334 -0.0556
12871W        W29132   7.307  10.914  14.148  0.1197 -0.0355  0.0768
12872W        W29133  15.255   1.906   5.280  0.0815 -0.4839 -0.1641
12873W        W29134   8.131   2.567   2.107  0.3240 -0.3405 -0.1215
12874W        W29135   4.467  14.479   1.117  0.0126  0.1491  0.1254
12875W        W29136  10.028  16.094   0.776  0.1649  0.0342  0.2858
12876W        W29137  10.906   4.981   0.905  0.1037  0.3066  0.0629
12877W        W29138  13.766   0.226   4.444 -0.1655  0.1969  0.0820
12878W        W29139   3.632   8.961   3.948  0.2627  0.2587 -0.2563
12879W        W29140   0.630   1.719   6.481 -0.0103 -0.0100  0.2179
12880W        W29141   2.277   7.473  12.654  0.2316 -0.2445  0.1661
12881W        W29142  13.137   5.527  12.986 -0.0626 -0.5231 -0.0019
12882W        W29143   7.395   8.437  15.337 -0.1212  0.1201  0.2249
12883W        W29144   0.471   8.298   3.173  0.0079  0.0125  0.3092
12884W        W29145  10.343   4.594   4.880 -0.2308 -0.0170  0.0568
12885W        W29146  10.898  15.032  16.926 -0.0510 -0.0803  0.0342
12886W        W29147   7.328  15.598   2.555  0.1832  0.0304 -0.0781
12887W        W29148  12.580  17.514   5.168  0.0678  0.1573  0.2788
12888W        W29149   6.000   4.987   1.338  0.2875 -0.0973 -0.0191
12889W        W29150  10.669   2.504  12.486 -0.3639 -0.0404 -0.2449
12890W        W29151   7.732   3.688   4.769 -0.2421  0.0875  0.0675
12891W        W29152  11.244   2.830   2.346 -0.0521 -0.1443 -0.0881
12892W        W29153   2.598  10.140  15.763 -0.1317 -0.1144 -0.0864
12893W        W29154   0.540  16.798  12.738 -0.3609  0.0710  0.2728
12894W        W29155   6.240  16.013   2.055  0.1496 -0.1434 -0.5360
12895W        W29156   3.493  14.089  14.911 -0.1112 -0.2462 -0.0206
12896W        W29157  12.334  10.997   3.071 -0.0285 -0.3341  0.2326
12897W        W29158   7.525  16.312  16.908 -0.1409 -0.0814 -0.3081
12898W        W29159  13.938   0.147   2.098  0.0545  0.1324 -0.2075
12899W        W29160  13.564   3.833  14.404  0.0503  0.0584 -0.1130
12900W        W29161   0.614  11.397  12.216  0.2712 -0.1990  0.1038
12901W        W29162  10.041  10.207  13.490 -0.0490  0.0704 -0.1559
12902W        W29163  15.627   1.072   5.775  0.2127  0.4409  0.2315
12903W        W29164  11.707   8.515   4.395 -0.0857  0.2669  0.2349
12904W        W29165   9.986  10.576  11.391 -0.1879 -0.1831 -0.2758
12905W        W29166  13.326   9.327  11.464 -0.1170 -0.0261 -0.2394
12906W        W29167  16.183   4.841   2.099 -0.3614 -0.1283 -0.0767
12907W        W29168   1.491   4.579   0.803 -0.1195  0.0072 -0.2678
12908W        W29169  13.728   0.448   0.065  0.0714 -0.1264 -0.4373
12909W        W29170   3.436   2.297  13.732  0.0132 -0.4042 -0.1312
12910W        W29171   6.516   5.416  14.865  0.0041  0.1507  0.2778
12911W        W29172   2.268  12.709   0.251 -0.3219 -0.1219  0.1479
12912W        W29173  11.680   4.610  13.690  0.2031  0.0965 -0.1764
12913W        W29174  17.092   6.939  15.780  0.0261  0.1097 -0.0646
12914W        W29175   0.377   8.448   1.409  0.2355 -0.1037 -0.0753
12915W        W29176   2.744  16.524  14.174  0.1043  0.1456 -0.2665
12916W        W29177   1.376   8.085  13.028 -0.1255 -0.2270  0.0697
12917W        W29178   4.365  13.083  14.833 -0.1815  0.1788 -0.1463
12918W        W29179  12.102  11.299  11.743 -0.1216  0.0853  0.0060
12919W        W29180   8.788  14.588  11.601 -0.0424 -0.0880  0.2087
12920W        W29181   0.206  12.010   1.625 -0.2003  0.1967  0.1145
12921W        W29182   9.010  17.538   5.289 -0.0767 -0.0189 -0.0135
12922W        W29183   1.013   8.832  12.927 -0.0650 -0.1893 -0.0049
12923W        W29184  14.566  13.296   3.737 -0.1085  0.1100 -0.0088
12924W        W29185  13.442   2.673   3.943 -0.1332 -0.1826 -0.1437
12925W        W29186  11.665   9.704  12.057  0.1369 -0.1968 -0.0986
12926W        W29187   3.710  11.548   2.097 -0.2074 -0.2158 -0.3569
12927W        W29188   7.101   6.971  15.144  0.2917 -0.3111  0.0183
12928W        W29189  16.959  14.535  15.914 -0.0353  0.0936  0.0406
12929W        W29190  11.221   0.411  11.901 -0.3213 -0.1856 -0.1087
12930W        W29191  10.221  13.536   2.480 -0.2226 -0.3097 -0.2855
12931W        W29192   0.215   2.882  15.647  0.0484 -0.1754  0.2392
12932W        W29193   6.743  14.057   4.651  0.0939 -0.1518 -0.2430
12933W        W29194   8.690  16.965  12.669 -0.1386  0.2060 -0.2705
12934W        W29195   8.161  11.040  14.674  0.1051 -0.1852 -0.1126
12935W        W29196   2.959  15.388   5.125 -0.0881 -0.0571  0.1240
12936W        W29197  17.655   7.446  16.463  0.0037 -0.2368 -0.0684
12937W        W29198   3.566  16.960  14.432 -0.4780  0.1937 -0.0414
12938W        W29199  14.290  13.197   4.354 -0.0118 -0.2045  0.2673
12939W        W29200   5.337   4.527   4.090 -0.0142  0.1855  0.0630
12940W        W29201   1.399  10.931  13.869  0.0127 -0.1844  0.3698
12941W        W29202   9.613   8.672  11.654  0.1680 -0.0008 -0.0489
12942W        W29203  10.370  14.067   2.306  0.1275  0.1465 -0.3454
12943W        W29204  15.430   8.999   1.878 -0.2629  0.0345 -0.0142
12944W        W29205   6.498   7.372   0.166  0.0625  0.0766 -0.0667
12945W        W29206   3.680   8.173  11.769  0.2023  0.0721 -0.1909
12946W        W29207   7.251  14.473  13.608  0.0649  0.3170 -0.0407
12947W        W29208  15.294  11.269   2.142  0.0146  0.0523  0.1091
12948W        W29209   2.877   1.891  14.375  0.0025 -0.2141  0.0200
12949W        W29210   5.380  11.236   4.934 -0.0815  0.3161  0.2426
12950W        W29211   4.917   4.595  14.210  0.0602  0.1675  0.2213
12951W        W29212   4.876   4.403   3.865  0.0244 -0.1605 -0.4762
12952W        W29213  17.421  17.011  14.772 -0.2457 -0.3186  0.0134
12953W        W29214  11.619  11.445  15.813  0.0799 -0.0213  0.0792
12954W        W29215  17.150  17.363  16.843 -0.4747 -0.2465 -0.0497
12955W        W29216  17.697  13.404  13.998  0.1360  0.2388 -0.1356
12956W        W29217   5.571   4.586   0.313 -0.2701  0.0569  0.2040
12957W        W29218   0.327   6.063  14.611  0.1232  0.0551 -0.1412
12958W        W29219   6.601   3.971  12.076  0.0174  0.0255 -0.0306
12959W        W29220   2.262   5.792  16.928  0.1481  0.1825 -0.1513
12960W        W29221   7.021  11.288  15.335 -0.0363  0.0662  0.0417
12961W        W29222   1.215   5.998  16.574  0.1732  0.1127 -0.3056
12962W        W29223  13.827  15.301   4.255 -0.4310 -0.3164 -0.0281
12963W        W29224  11.915  14.448   0.492  0.0556  0.4336 -0.1413
12964W        W29225  11.327  16.665   5.253 -0.0613 -0.0178  0.1962
12965W        W29226   2.086   8.580   2.158 -0.2246 -0.0334  0.1107
12966W        W29227   5.205  10.784  13.252  0.1387 -0.2554 -0.3091
12967W        W29228  10.349   8.413   2.899 -0.2739  0.0736  0.3424
12968W        W29229  16.831  11.722  13.982  0.1297 -0.1952 -0.0728
12969W        W29230  12.977  12.130   1.387 -0.4209  0.1827 -0.0862
12970W        W29231  11.389   6.934  16.796 -0.1035 -0.1870 -0.0576
12971W        W29232   6.202  13.009  12.407 -0.0952  0.0496 -0.1248
12972W        W29233   9.605  12.214   3.874 -0.0320  0.0907  0.1471
12973W        W29234   9.386  13.482  12.150 -0.0093  0.3648  0.3163
12974W        W29235  17.481   0.213  15.887  0.1545  0.1136 -0.2583
12975W        W29236  14.715  16.664   5.382  0.0424  0.2535  0.1394
12976W        W29237   8.825  12.382  14.038 -0.1330  0.3773 -0.1085
12977W        W29238   6.505   1.038   0.101 -0.0316 -0.0302 -0.1152
12978W        W29239   6.687  13.695  11.503 -0.0550  0.1919 -0.0272
12979W        W29240  10.766  13.496   3.369 -0.1533 -0.0880 -0.2150
12980W        W29241  13.035  16.382  14.613  0.0091 -0.1624 -0.0817
12981W        W29242  12.270   6.393  13.590 -0.0692  0.1608 -0.1533
12982W        W29243   3.896  12.995   0.420 -0.3579  0.3204 -0.1496
12983W        W29244   3.379  17.483  15.161  0.2455  0.0269 -0.1176
12984W        W29245  13.552   3.186   2.191 -0.0061  0.0581 -0.0797
12985W        W29246  11.834  15.692   3.541 -0.0205 -0.0021  0.0236
12986W        W29247   8.598   7.039  13.742 -0.0346 -0.4027  0.1336
12987W        W29248   3.033   0.868  14.610  0.0940 -0.2843 -0.1146
12988W        W29249   3.406  16.947  12.428 -0.2967  0.2812 -0.0667
12989W        W29250  14.849   2.739   2.388  0.1688  0.1666  0.1273
12990W        W29251  11.538  14.050  14.845  0.1845 -0.1688 -0.0521
12991W        W29252   4.500  17.025  11.571 -0.0549  0.1368  0.1768
12992W        W29253  12.528  15.324  12.186  0.0771  0.1638 -0.2004
12993W        W29254   4.425   2.389  15.715 -0.2887 -0.0726  0.2497
12994W        W29255  17.808  11.249  14.791  0.0712  0.0209  0.0424
12995W        W29256   4.455  11.426  13.988 -0.2525 -0.2033  0.2385
12996W        W29257   7.166  10.235   2.371 -0.3646  0.4971 -0.0785
12997W        W29258  15.688   1.323   1.198  0.3978 -0.1772 -0.0349
12998W        W29259  14.186   3.193  13.572 -0.0818  0.2503  0.1984
12999W        W29260  16.530   3.610   3.375 -0.1123 -0.2332 -0.2447
13000W        W29261   3.549  16.098   1.197  0.1398  0.0376 -0.0848
13001W        W29262  12.169  16.554  12.239  0.1768  0.1214 -0.0847
13002W        W29263   4.304   6.725   4.584  0.3291  0.0478  0.3095
13003W        W29264  17.638  17.060  12.333  0.0635  0.0457 -0.1467
13004W        W29265   5.229  14.614  15.449 -0.1997 -0.1884 -0.1177
13005W        W29266  13.792   9.477   2.612 -0.0324 -0.1377 -0.0799
13006W        W29267  15.240   0.936   3.913 -0.2639 -0.0180  0.0008
13007W        W29268   4.385   7.433   3.227  0.1577  0.0512  0.0535
13008W        W29269  13.172  14.223  11.482  0.0113 -0.0281  0.0671
13009W        W29270  11.667   0.576   0.715  0.1656 -0.0570 -0.0909
13010W        W29271   9.594  15.422   4.497  0.0932  0.0238 -0.0920
13011W        W29272  17.724  14.834   3.228  0.3210  0.1554  0.0210
13012W        W29273  10.365  16.242   2.422  0.3435 -0.2808 -0.0824
13013W        W29274  11.010   1.280   5.139 -0.0262 -0.0171  0.0231
13014W        W29275  11.180  11.720   0.683  0.0487 -0.0508  0.2393
13015W        W29276  16.365   5.309   4.252 -0.1601  0.4208  0.1352
13016W        W29277  16.288   1.967   3.026 -0.1782  0.1243 -0.0354
13017W        W29278  17.417   8.275   5.056 -0.0230 -0.0883 -0.2877
13018W        W29279  16.947   4.916  15.080  0.0582  0.1137 -0.1299
13019W        W29280   6.262   4.623   3.550  0.2328 -0.2918  0.1603
13020W        W29281  14.728  10.488   5.706 -0.0063  0.1675 -0.0587
13021W        W29282  17.687   5.481   4.753  0.1068  0.0330 -0.1508
13022W        W29283  10.127  15.075  14.107  0.1745 -0.3214  0.1720
13023W        W29284  12.981   0.978   5.136  0.1511  0.0797 -0.3175
13024W        W29285   5.938   0.833  12.020  0.3817  0.0754 -0.1979
13025W        W29286   8.514  11.924   4.842 -0.1837 -0.1272 -0.2149
13026W        W29287   2.136  12.572  15.005  0.0679 -0.3455  0.0561
13027W        W29288   8.878  13.723  13.674 -0.0196  0.5417 -0.1264
13028W        W29289   8.453   2.823  16.745 -0.0087  0.1631 -0.1880
13029W        W29290  17.417   5.857   4.514  0.2020 -0.0534 -0.0340
13030W        W29291   4.346   7.758   2.010 -0.1710  0.2034 -0.3033
13031W        W29292  17.165   6.275  16.323  0.1101 -0.0576  0.3900
13032W        W29293   9.101   1.229  11.913 -0.0397 -0.2609 -0.1534
13033W        W29294  13.312  17.649  12.472 -0.0151  0.0844  0.3648
13034W        W29295  12.308   0.862   3.204  0.0279  0.3217 -0.2528
13035W        W29296   8.808  15.334  11.865  0.0609  0.3291  0.0709
13036W        W29297  13.755  14.027   4.140  0.0816 -0.0207 -0.3510
13037W        W29298  14.775  11.820   5.539 -0.0836  0.0476 -0.1446
13038W        W29299  11.954   8.743  13.461  0.1486 -0.3153  0.0800
13039W        W29300   3.182   8.294  15.195  0.0249  0.0037 -0.2805
13040W        W29301  17.377   3.982   5.741  0.2998  0.1721 -0.0110
13041W        W29302  12.237  10.999   1.439  0.1239 -0.0260 -0.1083
13042W        W29303   9.938   3.074   3.999  0.1486 -0.4428  0.3472
13043W        W29304   7.702  10.333  12.651  0.0742  0.1399 -0.2046
13044W        W29305  15.847  17.192  12.024 -0.2471 -0.2089 -0.0941
13045W        W29306   4.243  13.463   4.804 -0.0224 -0.0486 -0.1248
13046W        W29307  15.804  17.546  15.952  0.1571 -0.3232 -0.0552
13047W        W29308   7.685  12.784  16.189 -0.1921  0.0169 -0.0991
13048W        W29309   0.274   6.491   2.459  0.2100  0.0491  0.2331
13049W        W29310  17.539   4.133  11.877  0.1127 -0.4356  0.0379
13050W        W29311   0.377  12.136  13.985 -0.0036  0.1713  0.0628
13051W        W29312   8.696   1.049   5.723 -0.0225  0.0115  0.1022
13052W        W29313  11.116   8.184   2.953  0.0027  0.2613  0.2865
13053W        W29314  17.672   5.133  14.584  0.2247  0.0975  0.0206
13054W        W29315   3.106   7.687  12.364  0.1241 -0.1187  0.0470
13055W        W29316   3.153   3.106  15.082  0.0845  0.0853 -0.2938
13056W        W29317  12.005   6.787   3.901  0.3150 -0.0871 -0.2079
13057W        W29318   9.999  15.965   3.604 -0.2974 -0.0629 -0.0157
13058W        W29319  15.660   4.027   3.941  0.0223 -0.2619  0.1251
13059W        W29320   6.777  15.318  14.533 -0.0941  0.1738  0.0828
13060W        W29321  16.790   9.990   5.833  0.3259 -0.1017 -0.2092
13061W        W29322   3.721  15.973   5.844 -0.2072 -0.0739  0.1466
13062W        W29323  13.158  11.235   1.826 -0.1485  0.0445  0.1147
13063W        W29324  10.774   1.545  16.365  0.0963 -0.4493 -0.3629
13064W        W29325  15.235  17.233   4.372 -0.1317 -0.0035  0.1400
13065W        W29326   0.420   0.464  13.697 -0.2604 -0.1662 -0.4397
13066W        W29327  16.866   6.519  12.328  0.2573 -0.1836 -0.1332
13067W        W29328  10.028   6.710  15.442 -0.1424  0.2205 -0.1767
13068W        W29329  13.486  13.753   3.894  0.0811  0.1021  0.0494
13069W        W29330  16.236   9.785  14.963 -0.1965  0.0287 -0.1302
13070W        W29331   3.287   3.313  14.079  0.0265  0.0889 -0.2303
13071W        W29332  11.294   1.555  12.650  0.0885  0.2936 -0.1926
13072W        W29333  12.182   3.186  16.624 -0.0465 -0.3205  0.0505
13073W        W29334  17.774   5.451   2.427  0.1633  0.3380 -0.0294
13074W        W29335  11.667   3.630  13.041  0.0118 -0.1195 -0.1576
13075W        W29336   7.940   3.845   3.799 -0.1770 -0.0284 -0.0047
13076W        W29337  14.428   8.603   5.869 -0.1167  0.2975  0.3970
13077W        W29338   4.729   5.942  13.586  0.0491 -0.0615  0.3210
13078W        W29339   4.552  15.632   5.024 -0.1154 -0.3781  0.0901
13079W        W29340   8.945   3.284   5.962  0.1137 -0.0543 -0.0110
13080W        W29341   9.696  12.687   2.923 -0.0876 -0.0588 -0.1204
13081W        W29342   6.064  15.796  14.989 -0.2632 -0.0013  0.1639
13082W        W29343  10.762  15.169  11.553  0.0244  0.1328 -0.1389
13083W        W29344   4.924  10.311  16.495 -0.1825 -0.0647 -0.1682
13084W        W29345  12.395  11.509   2.753 -0.1312 -0.0407 -0.0172
13085W        W29346   7.004  14.049  12.302 -0.0933 -0.0187 -0.0238
13086W        W29347  11.874  11.889   1.500  0.2237 -0.2433  0.0444
13087W        W29348  14.674   3.074   2.042 -0.0275 -0.1548 -0.0160
13088W        W29349   8.293  12.063  16.224  0.2284 -0.1000 -0.0742
13089W        W29350   4.654  15.287   3.058 -0.0688  0.0885  0.2654
13090W        W29351   9.935  13.203   2.594  0.0340  0.0749 -0.1487
13091W        W29352   5.633   1.448  12.594  0.0741  0.1185  0.0416
13092W        W29353  10.130   1.304  16.933 -0.2425 -0.0115 -0.2051
13093W        W29354   7.187  16.109  12.617 -0.2137  0.0208 -0.0092
13094W        W29355  16.128  14.767   4.059 -0.0178  0.2903 -0.0003
13095W        W29356  15.221   9.414  11.952  0.0660 -0.0226  0.0486
13096W        W29357  15.119   1.385   4.057  0.0405  0.0486  0.1369
13097W        W29358  13.719  14.534  16.025 -0.3210  0.0581 -0.2953
13098W        W29359   6.269   8.003   2.361  0.0601 -0.2642  0.2659
13099W        W29360   5.137   0.965  13.508 -0.0985  0.0259 -0.3116
13100W        W29361  12.382  16.608  14.032 -0.1365 -0.2393 -0.2321
13101W        W29362   4.568   2.441   5.612 -0.0406  0.2099 -0.1566
13102W        W29363  13.449  15.570   1.599  0.2662 -0.1963 -0.3744
13103W        W29364  13.773  13.865  16.953 -0.1998 -0.1032  0.0077
13104W        W29365   1.141  13.235  16.262 -0.2183  0.0455  0.3602
13105W        W29366  14.051  17.013  15.163  0.0471 -0.1063  0.1453
13106W        W29367  17.802  14.087  16.196 -0.1475 -0.1989  0.0256
13107W        W29368  16.880  10.430   5.569  0.2334 -0.2067 -0.0278
13108W        W29369   1.889   4.948  14.853 -0.1263 -0.0220 -0.1006
13109W        W29370  17.513  16.914   0.821 -0.0609 -0.0984  0.1534
13110W        W29371  16.535   9.253  14.330  0.0235  0.3007 -0.1106
13111W        W29372   1.628   6.954  14.726  0.1017  0.2617 -0.0601
13112W        W29373  10.563   0.115   1.864  0.3672  0.2311  0.1689
13113W        W29374  16.057   5.319   2.261  0.1652 -0.1085 -0.0127
13114W        W29375   8.049   2.098   2.572  0.2488  0.0560 -0.2302
13115W        W29376  10.605  12.131   4.923  0.1276  0.2406 -0.3837
13116W        W29377   2.921   1.442   4.787 -0.0413 -0.0419  0.0755
13117W        W29378   1.431   7.918   0.952 -0.1218 -0.2538 -0.1177
13118W        W29379   3.044  10.411   2.103 -0.1543 -0.1797  0.0677
13119W        W29380  17.361  17.266   3.377  0.0135  0.2255 -0.0887
13120W        W29381   7.731   2.457  16.060  0.2970 -0.1851  0.3730
13121W        W29382  12.166  17.360   3.651  0.0821  0.0637 -0.0287
13122W        W29383  15.849   7.284  12.303 -0.0527 -0.4089 -0.1242
13123W        W29384  11.626   6.080   3.818 -0.0803  0.1379 -0.2728
13124W        W29385  12.664  13.213  12.970 -0.1405  0.1646  0.1850
13125W        W29386   3.488  11.816   6.325  0.0042  0.0594  0.1177
13126W        W29387  12.932  13.442   2.057  0.3007 -0.0893 -0.0302
13127W        W29388   0.484   4.502  12.198 -0.0730 -0.0620 -0.2642
13128W        W29389   6.530   5.885   3.564 -0.1589 -0.1198 -0.4479
13129W        W29390   1.826   2.241  12.769  0.1320  0.0665  0.2002
13130W        W29391   6.193  13.766  15.114  0.0515 -0.0375  0.2892
13131W        W29392   4.840  11.845  11.607  0.2656 -0.0989 -0.2193
13132W        W29393   4.527  11.248   2.338  0.4083 -0.3804 -0.0496
13133W        W29394   0.652  14.880   2.704 -0.2930  0.0119 -0.0479
13134W        W29395  12.939   4.401   2.190  0.1423  0.2074  0.0251
13135W        W29396  12.521  13.452   1.828  0.0077  0.1841 -0.1181
13136W        W29397  17.445   6.322   1.108 -0.0269 -0.2668 -0.0513
13137W        W29398  13.669   8.535   3.734  0.1457  0.2037  0.2057
13138W        W29399   7.556   9.367  15.746 -0.1195 -0.0994 -0.2505
13139W        W29400  12.735  10.843  11.532  0.3372  0.3670  0.0729
13140W        W29401  17.793  14.435   2.855  0.2415  0.0599 -0.3913
13141W        W29402  17.757   9.454  13.684  0.1929  0.2280 -0.0534
13142W        W29403  15.081   6.234   1.124  0.0459  0.1359  0.2061
13143W        W29404   4.904   6.070  16.954 -0.1231  0.0308  0.1362
13144W        W29405  17.280  16.549   2.058  0.1293 -0.1270  0.2298
13145W        W29406   4.918  16.417  15.204  0.0552 -0.0341 -0.1952
13146W        W29407  15.067   0.904   2.211 -0.0386 -0.1288 -0.0957
13147W        W29408   1.296  16.410   5.787 -0.0391  0.3320 -0.1636
13148W        W29409   2.975  12.699  16.488  0.0069 -0.0060 -0.1138
13149W        W29410   1.287   9.804   5.960 -0.3793 -0.2620  0.1732
13150W        W29411  17.510   5.944  14.097  0.2785 -0.3719  0.0011
13151W        W29412   1.793   2.078   0.574 -0.1207  0.2612  0.4026
13152W        W29413  16.992   5.096   2.557 -0.0965 -0.0546 -0.0412
13153W        W29414  12.914   4.852  14.484  0.3144  0.0575  0.2547
13154W        W29415  12.683  13.996  13.647  0.0506 -0.2457  0.1171
13155W        W29416  11.232  11.690   2.210  0.2015  0.1685 -0.2797
13156W        W29417   6.649   5.039   4.752  0.0969  0.3810  0.1835
13157W        W29418  10.702   1.735  14.285  0.0650  0.0571 -0.0237
13158W        W29419  15.485   4.444  15.012  0.3281 -0.0390  0.1696
13159W        W29420   8.522  11.038   0.274  0.1463  0.0710  0.0470
13160W        W29421   9.300  11.498  15.759 -0.0387 -0.3059  0.3201
13161W        W29422   3.310   2.975  12.894 -0.1382  0.0159 -0.0293
13162W        W29423   2.342   7.971  15.646  0.0068  0.1821 -0.0966
13163W        W29424   4.801  10.176   5.184 -0.1005 -0.0621 -0.1454
13164W        W29425  15.574   2.044   1.232  0.3016  0.2029  0.0537
13165W        W29426   2.260   8.198  14.736  0.4093 -0.0364 -0.1962
13166W        W29427   4.421   7.686  13.887 -0.0931 -0.1735 -0.1039
13167W        W29428   0.992  13.044   4.794 -0.1700 -0.5142  0.1417
13168W        W29429  17.751   4.428  16.217 -0.1892  0.0352  0.0756
13169W        W29430  14.469   2.393   2.170  0.1498  0.1512 -0.2755
13170W        W29431  17.700   5.788  14.632  0.1596 -0.2277  0.1096
13171W        W29432   9.952   7.237   0.788  0.1951  0.0881  0.0587
13172W        W29433   6.119   5.333  11.010  0.0682  0.1097  0.2333
13173W        W29434   6.437  17.411   2.455 -0.0932  0.0532  0.0667
13174W        W29435  11.283  10.067  15.518 -0.0154  0.2025 -0.4885
13175W        W29436  10.036   2.705   5.717 -0.2326  0.2736 -0.1037
13176W        W29437   6.156   8.095  15.356  0.2559  0.2673 -0.2819
13177W        W29438  10.935  12.030  15.500  0.3250 -0.0521  0.1858
13178W        W29439   1.302  13.136  11.694 -0.0090  0.1057  0.2212
13179W        W29440  11.587   1.433  15.477 -0.2866 -0.0336  0.0212
13180W        W29441  10.583   0.680  12.539  0.0779  0.1358  0.2021
13181W        W29442   3.288   3.277   3.157 -0.0111 -0.3185 -0.0114
13182W        W29443   0.473   8.684   4.098  0.0355  0.0929  0.1089
13183W        W29444   1.700   4.823   1.213 -0.0282 -0.4155  0.2401
13184W        W29445  15.470   7.073  16.543 -0.0554  0.2354 -0.1337
13185W        W29446   8.976  13.727  14.188 -0.1331 -0.0452 -0.1891
13186W        W29447  14.112   9.945   1.171 -0.1392  0.0975  0.2349
13187W        W29448   1.603   6.844   5.765 -0.0148 -0.0208 -0.1878
13188W        W29449   6.766   2.055  12.959 -0.0688 -0.2421 -0.4099
13189W        W29450   7.097   4.261  16.189 -0.0722  0.0975 -0.0785
13190W        W29451  14.539   2.997   3.370  0.1391  0.0422 -0.0692
13191W        W29452   3.208  12.462  14.557  0.0583  0.0082  0.2059
13192W        W29453   3.946  16.183   2.474 -0.0641  0.3134  0.1074
13193W        W29454   6.178   2.836  12.099  0.0849 -0.1076  0.0158
13194W        W29455  12.398   5.926   6.100  0.3360 -0.0277  0.2368
13195W        W29456  11.826  14.804   4.515  0.0830  0.0924  0.3876
13196W        W29457   4.897   5.906   0.591  0.0353 -0.1949  0.1861
13197W        W29458   0.790   0.320  12.502  0.1458 -0.2109 -0.0752
13198W        W29459   5.398  12.434   1.570  0.1966  0.0078  0.1496
13199W        W29460  13.282  13.633   3.102  0.3501  0.2114 -0.2133
13200W        W29461   2.172   2.746   5.192 -0.2564  0.0673  0.1744
13201W        W29462   8.722  14.417  13.380 -0.0239 -0.0569  0.0691
13202W        W29463  12.596  16.112   5.448 -0.0803 -0.3138  0.0720
13203W        W29464  14.092  10.754  11.571 -0.1138 -0.0662  0.0787
13204W        W29465   4.477   4.899  14.873  0.0395 -0.1750  0.0904
13205W        W29466   3.558   0.176   0.796  0.0721  0.2449 -0.2142
13206W        W29467  13.803   5.656   4.055 -0.0873  0.1484 -0.1556
13207W        W29468   5.553   6.792  16.506 -0.0286 -0.2228 -0.4494
13208W        W29469  10.719   9.518  11.702 -0.2510 -0.0554 -0.2241
13209W        W29470   2.853  12.487   5.461  0.0665  0.3461  0.1180
13210W        W29471   0.213  11.395   5.560 -0.1204 -0.0316 -0.3692
13211W        W29472  12.556   8.210  15.775 -0.0387 -0.0780 -0.0680
13212W        W29473  10.967  12.435   1.588 -0.0523  0.0318 -0.0865
13213W        W29474   4.222   0.206   1.369  0.2213 -0.0494  0.3097
13214W        W29475   5.858  13.702   3.209  0.1366  0.1123 -0.0644
13215W        W29476  11.008   6.052  12.734  0.1433 -0.1671  0.2487
13216W        W29477  12.579  11.825   0.980 -0.1606 -0.2328 -0.4563
13217W        W29478  11.116   3.210   1.062 -0.2217 -0.1718  0.1670
13218W        W29479   9.060  12.942   2.859  0.0412 -0.1042  0.2063
13219W        W29480   7.956   6.828  11.746  0.3416 -0.2408  0.1420
13220W        W29481  13.600   5.327  13.892 -0.2126  0.0437  0.0897
13221W        W29482  10.362   7.994   1.239 -0.0610  0.1069  0.0989
13222W        W29483  12.073   0.332   4.115  0.1637 -0.0623  0.0905
13223W        W29484   0.909   4.636   4.179  0.0959 -0.0124 -0.1431
13224W        W29485   4.861  10.004  15.687  0.1055  0.0266 -0.0948
13225W        W29486  11.714  11.058   4.025  0.1551  0.2172  0.0972
13226W        W29487  11.572  13.206   6.187  0.0711  0.0920  0.1045
13227W        W29488  11.071  10.906  15.147 -0.3140  0.2827 -0.0311
13228W        W29489  10.301  15.815   0.428 -0.4770  0.0180  0.1236
13229W        W29490   9.568  12.931   0.098  0.2390  0.1860 -0.0529
13230W        W29491  15.038   6.968   5.054  0.2678 -0.0419 -0.0218
13231W        W29492  16.942  15.771   0.452 -0.0422 -0.2538 -0.0269
13232W        W29493  11.959   3.944  13.989  0.0883 -0.0579  0.2149
13233W        W29494  17.463   5.866   0.893 -0.2642  0.0925 -0.1447
13234W        W29495  15.659   9.999   4.552 -0.1908 -0.0893  0.4345
13235W        W29496  10.752  17.604   3.726  0.1360 -0.8637  0.1493
13236W        W29497   6.627  11.779   5.547  0.2658  0.0175 -0.0414
13237W        W29498  15.877   8.260  12.174 -0.1920  0.0882 -0.1824
13238W        W29499  13.144   3.094  14.883 -0.0088  0.0811  0.1386
13239W        W29500  11.545   8.222  15.773  0.3421 -0.1470 -0.1993
13240W        W29501   3.116   0.109  11.613 -0.1066 -0.1949 -0.0351
13241W        W29502  12.959  12.960  13.308  0.3887 -0.0870 -0.2001
13242W        W29503   9.961   3.710   2.623 -0.0210 -0.0356 -0.4201
13243W        W29504  10.701   9.661   1.486 -0.2177  0.0948 -0.0858
13244W        W29505  13.288   4.826  15.422 -0.0613 -0.1148  0.1552
13245W        W29506   1.882   8.235  14.379 -0.0668 -0.1538  0.0012
13246W        W29507  15.636   7.723   2.610  0.0470  0.0013  0.2330
13247W        W29508  13.629  17.617   4.255 -0.1273  0.1038  0.1001
13248W        W29509   2.967   7.075   5.094  0.3762 -0.0801  0.1389
13249W        W29510   0.075  11.058   1.550 -0.1118 -0.1207  0.1673
13250W        W29511  10.324  14.039  11.478 -0.3426  0.1848 -0.3765
13251W        W29512  16.773   4.612   5.149 -0.3168  0.3571  0.1773
13252W        W29513  10.237   8.626   5.686 -0.2374 -0.3708  0.0639
13253W        W29514   4.715   4.484   1.548 -0.1831  0.1708 -0.1504
13254W        W29515   7.411   5.479   4.048 -0.0068 -0.1138 -0.0118
13255W        W29516   2.234  10.590   3.765 -0.1642  0.0409 -0.0596
13256W        W29517   5.011   6.108   1.965  0.2443  0.0550 -0.0034
13257W        W29518  16.805  17.603   5.293  0.1898  0.2042  0.1627
13258W        W29519   2.148   0.575   3.813  0.0218 -0.3623  0.2832
13259W        W29520   4.172   9.929   1.748 -0.2117  0.1251 -0.2938
13260W        W29521   1.991   4.054  15.580  0.0816 -0.1668  0.0265
13261W        W29522   6.189   1.509   3.402 -0.0377  0.0493  0.2331
13262W        W29523  11.553   5.743   4.526  0.0554 -0.1599 -0.1369
13263W        W29524  11.306   4.110  12.197  0.4197  0.0163 -0.2351
13264W        W29525  17.093  14.370   4.389  0.4252 -0.0701  0.1679
13265W        W29526  16.642  10.516  13.420  0.0306 -0.1945  0.4017
13266W        W29527  11.983  14.020   6.133 -0.2883 -0.1451  0.1888
13267W        W29528   0.402  13.266  14.029 -0.0041  0.1330  0.3026
13268W        W29529   6.135   0.405   0.627  0.0472 -0.0043 -0.0143
13269W        W29530   1.849   8.936  12.784 -0.2747  0.0107  0.3276
13270W        W29531   5.221  13.205  16.102  0.1000  0.0930 -0.0302
13271W        W29532   1.723  12.975   0.184 -0.2324 -0.0965  0.1208
13272W        W29533  13.262  16.292   1.463  0.1762 -0.0029  0.0142
13273W        W29534   3.877   6.657   0.626  0.0654 -0.1704  0.1039
13274W        W29535   9.070   8.741  13.331  0.3004 -0.0515  0.0275
13275W        W29536  14.289  16.387  16.654  0.2714 -0.0251  0.1654
13276W        W29537  16.164   0.764  16.683  0.6242  0.0219  0.0008
13277W        W29538   3.266   7.354   5.361  0.1906 -0.0429 -0.1247
13278W        W29539   5.541   2.185   4.337 -0.2455  0.1580 -0.0639
13279W        W29540   2.171   8.596  13.047  0.3304 -0.0088  0.0204
13280W        W29541   9.659   7.182  15.719  0.0113 -0.1095  0.0446
13281W        W29542  14.189  11.303   3.468  0.1528 -0.1796 -0.0506
13282W        W29543   5.357   1.749  14.604 -0.2655 -0.0535  0.1141
13283W        W29544  14.476   0.099   2.316  0.2247 -0.0902 -0.3559
13284W        W29545  10.538  13.640  12.744  0.2426  0.1825 -0.0981
13285W        W29546  17.283   8.676   3.654  0.1228  0.3886 -0.1346
13286W        W29547   2.967  14.157   5.555  0.3721 -0.2098 -0.2945
13287W        W29548  16.766   4.794   2.917  0.1479 -0.1188  0.1106
13288W        W29549  12.089  10.986  16.080 -0.0415 -0.0380 -0.0014
13289W        W29550  13.278  14.602   2.754  0.0670 -0.1006  0.0594
13290W        W29551  11.752  16.746   2.424  0.3059 -0.1132 -0.0820
13291W        W29552   4.314  13.539   1.562 -0.1085 -0.0705 -0.0785
13292W        W29553   8.818   7.488  13.787 -0.1443 -0.0971 -0.3364
13293W        W29554   0.579  17.491  13.583  0.2375  0.3395 -0.2003
13294W        W29555   1.014   4.471  14.964 -0.1501  0.2518  0.0210
13295W        W29556   7.456  11.395  14.487  0.1903 -0.0896  0.0438
13296W        W29557  17.107   6.552   2.985 -0.0471 -0.0405 -0.0485
13297W        W29558   9.233   2.794  16.431 -0.1646 -0.3460 -0.0771
13298W        W29559  14.970  12.521  12.505  0.0940  0.0584 -0.2464
13299W        W29560   1.273  14.908   4.882 -0.0415  0.2171 -0.0424
13300W        W29561  14.596  11.993  15.714  0.0578  0.1930  0.1917
13301W        W29562   8.101   8.111  12.916  0.1720 -0.0820  0.2175
13302W        W29563   2.120  14.175   0.521 -0.0454 -0.1190 -0.1335
13303W        W29564  12.950  12.177  13.834  0.1069 -0.0427  0.1195
13304W        W29565   3.648  11.897   1.691  0.0010 -0.1833  0.0987
13305W        W29566   6.766  14.979   4.655 -0.1953  0.2875 -0.2447
13306W        W29567   3.391  12.778   0.132 -0.2590 -0.0503  0.1749
13307W        W29568  10.594   2.943  12.245  0.1079  0.0198  0.1704
13308W        W29569  14.221   9.494  14.788  0.0732  0.1127 -0.2212
13309W        W29570  13.494   5.249  13.253 -0.0274 -0.2715  0.2205
13310W        W29571   7.536   8.259   0.901 -0.0852 -0.1026 -0.0973
13311W        W29572   0.208  10.409  15.882  0.3021  0.2171 -0.0303
13312W        W29573   1.182   9.733   0.359  0.0680  0.0847 -0.2464
13313W        W29574  10.635  12.899   4.186  0.0637 -0.1274 -0.1771
13314W        W29575  10.345   0.431  12.973 -0.1100  0.2179  0.2024
13315W        W29576   9.619   2.652   3.876  0.3110 -0.3940 -0.3802
13316W        W29577   1.612  16.925   1.554  0.0270  0.0466 -0.1197
13317W        W29578   3.845   8.663   2.336  0.2047  0.0982 -0.2705
13318W        W29579  16.258   4.394   1.149 -0.0865  0.0284 -0.0546
13319W        W29580  15.109  14.341   2.690  0.0415  0.2077 -0.0007
13320W        W29581   9.625  17.549  12.070 -0.1984  0.0759 -0.1007
13321W        W29582  12.514   5.231  13.492 -0.3798 -0.2882  0.0163
13322W        W29583   7.417   7.706   3.713  0.0652  0.1282  0.0576
13323W        W29584  14.813   0.209  12.813  0.3600 -0.1919 -0.0446
13324W        W29585   3.375   4.003  13.461 -0.0736  0.1537 -0.0353
13325W        W29586   8.735   8.015   0.831  0.0303 -0.3543  0.1691
13326W        W29587   3.957   7.110  12.440  0.1227  0.0394  0.2132
13327W        W29588  10.878   8.482   2.551 -0.0335  0.2978  0.0690
13328W        W29589  12.239  10.634   4.735  0.2155  0.2924  0.1071
13329W        W29590  11.854  15.311  16.776 -0.0288  0.0376 -0.0260
13330W        W29591   9.760   8.518  15.674  0.0104  0.0101  0.1402
13331W        W29592  11.408  10.467   5.849 -0.3819  0.3660  0.0102
13332W        W29593  11.335  15.723   3.130 -0.0457 -0.1158 -0.1771
13333W        W29594  13.126  16.913   4.646  0.2701  0.1095 -0.1199
13334W        W29595   5.744  14.342   1.101 -0.1022 -0.0774 -0.1575
13335W        W29596  12.482   3.241  14.542  0.1782 -0.2360 -0.0350
13336W        W29597  14.143   0.313   0.293  0.1817 -0.1422  0.0082
13337W        W29598   5.072   7.850   3.346 -0.2205 -0.0631 -0.0122
13338W        W29599  14.215   5.669   3.121  0.4069 -0.0908 -0.3384
13339W        W29600   6.694  16.541   2.742 -0.1375 -0.0366 -0.0059
13340W        W29601   7.822   7.934   1.128 -0.0692 -0.0847  0.0262
13341W        W29602  14.839   9.461  13.961 -0.0504  0.2084  0.2432
13342W        W29603  15.808  12.572  14.080  0.2720 -0.0529  0.0895
13343W        W29604  12.237   0.438   4.706  0.3509  0.2719 -0.0634
13344W        W29605  10.722   8.988   3.999  0.1313  0.3086  0.0882
13345W        W29606  16.675   7.229   4.875 -0.2023  0.0330  0.0807
13346W        W29607   8.955   6.215  15.054  0.0959 -0.3266  0.0050
13347W        W29608  12.818   9.140   4.806 -0.0202  0.2410  0.1506
13348W        W29609  16.075  15.688  16.383 -0.3025 -0.0437 -0.0676
13349W        W29610   1.370   4.675  16.906  0.0249  0.2756 -0.1310
13350W        W29611  12.200   4.069  12.561  0.0963 -0.2051  0.0652
13351W        W29612   5.743   8.545  16.632  0.1836  0.4032 -0.0998
13352W        W29613   2.122   2.312  12.386 -0.1430  0.2794  0.1552
13353W        W29614   1.901  13.747   3.683 -0.1160 -0.1323  0.2901
13354W        W29615   5.485   0.587   0.056 -0.0220  0.0079  0.0726
13355W        W29616   4.503  17.266   3.500  0.0618 -0.1740  0.0816
13356W        W29617  10.984  13.450  12.564  0.3500 -0.1774  0.0339
13357W        W29618   2.781  14.007  16.768 -0.1801 -0.0081  0.1174
13358W        W29619  14.474  10.242   2.408  0.3561  0.0526  0.1487
13359W        W29620  15.575   9.830   5.194 -0.2163  0.0474  0.1587
13360W        W29621   8.785   3.886   1.994  0.0811  0.0749 -0.0165
13361W        W29622   1.514  10.721   0.802  0.1085 -0.0790  0.1724
13362W        W29623   3.562   4.537  15.318 -0.0746  0.1256 -0.0897
13363W        W29624  13.894  11.473  15.323  0.4406  0.1118  0.2030
13364W        W29625   7.225  14.278  16.888 -0.0689 -0.2812 -0.1801
13365W        W29626   2.388   7.259  13.578 -0.3766 -0.0347 -0.1108
13366W        W29627   8.663  17.704   3.604 -0.3406  0.0922  0.1971
13367W        W29628  13.294   6.194  11.524 -0.0122  0.0163  0.1230
13368W        W29629   2.360   9.118  12.568  0.0066 -0.1531  0.0641
13369W        W29630   1.040  17.620  13.288  0.0233 -0.1047 -0.0540
13370W        W29631   0.079  12.206  12.037 -0.0368  0.1530  0.1567
13371W        W29632   4.132   2.111   4.129 -0.0772 -0.1004  0.0727
13372W        W29633   6.789  13.441   0.687  0.0977 -0.0106  0.0042
13373W        W29634  16.345   8.106  12.239 -0.2257  0.1793 -0.0130
13374W        W29635   2.573   4.144  12.193  0.2553 -0.2332  0.0048
13375W        W29636   6.555  11.319  12.655 -0.2130 -0.0848  0.0388
13376W        W29637   1.945   2.002   4.482  0.0514  0.1421  0.2194
13377W        W29638   1.857   3.960  16.681 -0.1867  0.5134  0.2448
13378W        W29639  13.916   5.483   0.763  0.0064  0.0144  0.0968
13379W        W29640   9.981   3.910   4.195  0.1560  0.1940  0.0802
13380W        W29641   4.464  17.734  14.719  0.2046 -0.0672  0.1532
13381W        W29642  11.057   0.016  13.095  0.0755 -0.0213 -0.0321
13382W        W29643   7.895  11.474   0.770 -0.0112  0.0838 -0.4159
13383W        W29644  10.813   5.944  14.665 -0.0935 -0.0570  0.0808
13384W        W29645  11.267   4.478  15.590 -0.2593  0.0505  0.2794
13385W        W29646   8.416  10.557   2.806 -0.2482  0.1838  0.0509
13386W        W29647   1.269  17.345   3.120  0.2007  0.1049  0.0257
13387W        W29648  17.313   6.571  14.591  0.5136 -0.0245  0.1043
13388W        W29649  16.920  16.101   2.688 -0.2472  0.0715 -0.1525
13389W        W29650   8.455  14.014  15.338  0.0524 -0.0037  0.0187
13390W        W29651  10.833  16.974   3.589 -0.2234 -0.0084  0.1781
13391W        W29652   7.400  14.341  12.514  0.1770  0.0427  0.1371
13392W        W29653   5.483  11.030   3.602  0.2332 -0.1438  0.0854
13393W        W29654  13.975   6.165   0.064 -0.2799 -0.1986  0.0322
13394W        W29655   0.162  17.283  15.423 -0.0044  0.4912  0.0709
13395W        W29656  13.049  11.403  16.216 -0.2758 -0.2045  0.2199
13396W        W29657  16.988  13.222  15.832 -0.0102  0.0824  0.1586
13397W        W29658   1.128   1.451   4.269  0.2631  0.1842 -0.1315
13398W        W29659  15.967  10.671   5.133  0.2535  0.0839 -0.2042
13399W        W29660   1.521   4.255   0.416 -0.1281  0.2058  0.3181
13400W        W29661   5.865   4.127  15.654  0.1098  0.2633 -0.1181
13401W        W29662  10.102  17.820   2.043  0.1297 -0.0226 -0.1096
13402W        W29663   4.042   5.458   1.302 -0.1382 -0.1039 -0.0297
13403W        W29664   0.773  11.200  14.956 -0.0467  0.1562 -0.3336
13404W        W29665  17.614   1.896   3.417  0.0397  0.2872  0.1445
13405W        W29666  12.943   5.083   0.729 -0.1478  0.1661 -0.2615
13406W        W29667   0.208   2.151   5.022 -0.1101 -0.2664  0.1618
13407W        W29668   5.885   4.989   4.102  0.0596  0.1995  0.2013
13408W        W29669  15.200  14.210   4.991 -0.1587 -0.1642  0.0130
13409W        W29670  10.361  10.180   5.819 -0.0209  0.0835  0.0801
13410W        W29671  12.365  12.073  12.120  0.0116  0.0110  0.1165
13411W        W29672  10.785  16.831   4.952  0.0701  0.1451  0.1761
13412W        W29673   5.016  13.659   3.687  0.2772 -0.0226 -0.1327
13413W        W29674  17.689   6.965  15.452 -0.1687  0.0373 -0.3564
13414W        W29675  10.053   1.898  15.861 -0.0768  0.2694 -0.1647
13415W        W29676  16.950  13.742   3.709 -0.3444  0.0033 -0.0129
13416W        W29677  10.522  11.261   2.800 -0.0841 -0.0215 -0.1182
13417W        W29678  17.792   0.652   1.581  0.1338 -0.0185 -0.0250
13418W        W29679   1.087  17.806  15.738 -0.2431 -0.0053 -0.0646
13419W        W29680   5.262  15.672   2.906 -0.0021 -0.1923  0.0217
13420W        W29681  13.919  14.984  14.940  0.0894  0.3628  0.2259
13421W        W29682   0.575  11.273   5.208  0.2195 -0.4377 -0.0353
13422W        W29683   4.156   3.640  12.692  0.0020  0.2391 -0.1284
13423W        W29684   7.921   5.974   3.938  0.0251 -0.1715 -0.2949
13424W        W29685  16.415   7.462  13.594 -0.0248 -0.2280 -0.0362
13425W        W29686   3.350  10.123  16.949 -0.3725  0.1542  0.1879
13426W        W29687   0.387  16.589   5.765  0.1708  0.1132  0.1605
13427W        W29688   2.678  16.440  16.814 -0.2590 -0.0404 -0.0355
13428W        W29689   9.758  14.062  14.917 -0.0326 -0.3935 -0.1670
13429W        W29690   4.308  14.973   3.247  0.1684 -0.0918 -0.2664
13430W        W29691   8.534  13.160   5.280 -0.0283  0.1209 -0.0811
13431W        W29692   7.079   9.383  16.121 -0.0189  0.0121  0.0182
13432W        W29693  11.174   9.961   2.152  0.2799 -0.0072  0.0951
13433W        W29694   6.495  16.411   2.269  0.1445 -0.0672 -0.1600
13434W        W29695   2.124   5.312  16.790  0.2941 -0.0603 -0.0476
13435W        W29696  11.410  15.162  13.696 -0.0413  0.0694  0.1423
13436W        W29697  17.778   7.958  13.602  0.0964 -0.0993 -0.0058
13437W        W29698  13.539   9.800   4.014 -0.0983  0.2740 -0.1638
13438W        W29699   7.645   9.041   1.439 -0.0022 -0.0087  0.1164
13439W        W29700  14.369  16.757   3.564 -0.1768 -0.0884 -0.2223
13440W        W29701   6.385   3.184  13.096 -0.3270 -0.2109 -0.0891
13441W        W29702   6.091   9.049  15.914 -0.2405  0.3436  0.3749
13442W        W29703   5.162   4.695   0.695  0.0004  0.0677  0.3285
13443W        W29704   4.902   6.102  13.118 -0.0302  0.1412 -0.1811
13444W        W29705  12.551   8.414   2.674 -0.2218  0.0887 -0.1627
13445W        W29706  13.101   5.956  14.902  0.1478 -0.2091 -0.1908
13446W        W29707  12.944   0.105  14.042  0.0261 -0.2728 -0.1360
13447W        W29708   1.766  14.444  16.876 -0.1410  0.0383 -0.0245
13448W        W29709  13.559   8.823  14.616 -0.1582  0.2481  0.3194
13449W        W29710   6.913   8.318   5.707  0.2801  0.0773 -0.0518
13450W        W29711   3.105  16.973  15.020  0.0284  0.0938 -0.0815
13451W        W29712  15.208   2.305  14.966 -0.1351 -0.0459  0.0354
13452W        W29713   5.861   3.203  15.912  0.2410  0.0433 -0.1852
13453W        W29714  16.645  11.102   5.719  0.1523  0.1397  0.1002
13454W        W29715   9.006   4.023   0.551 -0.0888  0.0203 -0.0864
13455W        W29716   1.564  13.753  15.786  0.1358 -0.4150  0.1957
13456W        W29717   2.407   0.027  12.385  0.0959 -0.2399  0.1027
13457W        W29718   1.262   7.595  16.658  0.1311 -0.3178 -0.4040
13458W        W29719   9.982  12.888   0.826  0.0181 -0.0842  0.1502
13459W        W29720  15.681   0.002  16.289 -0.4185 -0.0502  0.1656
13460W        W29721   1.534   6.678   4.675 -0.2867  0.1337 -0.2427
13461W        W29722   2.680  12.546   1.006  0.5477  0.0290 -0.0398
13462W        W29723   3.323  17.179  13.011  0.1485 -0.1304 -0.1262
13463W        W29724   4.230   2.160  13.997  0.0603  0.1642  0.1296
13464W        W29725   5.545  15.106   0.412 -0.0912 -0.1863  0.0450
13465W        W29726  14.380   5.925   6.348  0.0631 -0.0794  0.0112
13466W        W29727  11.426   6.841  15.848 -0.1533  0.2281  0.1515
13467W        W29728   1.024  16.984   0.671 -0.0147  0.1575  0.0904
13468W        W29729   8.788   2.062  14.012 -0.0821  0.0592  0.4076
13469W        W29730  16.209   4.156  14.871  0.0272  0.0258 -0.0458
13470W        W29731  11.547   4.541  12.762 -0.3312 -0.3491  0.0721
13471W        W29732   5.715   9.046   1.109 -0.1431 -0.0606  0.1119
13472W        W29733  13.397   1.951  15.034 -0.0591 -0.2025  0.1549
13473W        W29734  16.127   9.326  15.584 -0.0477  0.0457 -0.0372
13474W        W29735  16.279   9.019   2.742 -0.0939 -0.0795 -0.3862
13475W        W29736   5.128   1.486  12.734 -0.1039 -0.2133  0.2763
13476W        W29737  17.341   8.087  12.392  0.3112 -0.0422  0.1385
13477W        W29738   9.071   0.166   3.211 -0.0173  0.1900 -0.2835
13478W        W29739  10.958  15.414  16.610 -0.2636  0.1153 -0.2116
13479W        W29740   1.635  16.350   2.477 -0.2347  0.1078  0.0982
13480W        W29741   4.144  15.915   4.996  0.2963 -0.4450 -0.2633
13481W        W29742   1.381  10.305   1.652 -0.0507  0.0675  0.0832
13482W        W29743  16.323   8.519  14.723  0.2305  0.2682 -0.1081
13483W        W29744   0.314  17.716   2.795  0.1473  0.3047  0.0648
13484W        W29745   5.344  15.441   0.120 -0.1985  0.3599  0.2384
13485W        W29746   9.508  12.488   0.457  0.1376  0.1684 -0.0966
13486W        W29747  14.439   4.732  12.004  0.4106  0.0316 -0.3374
13487W        W29748   6.860   5.099  15.905 -0.3823 -0.1517  0.1566
13488W        W29749  12.372  10.103  13.248  0.3916 -0.2816  0.0941
13489W        W29750  17.401   5.069   2.278  0.0312 -0.0807 -0.2295
13490W        W29751   2.776   0.304   0.306  0.1520  0.2080  0.1370
13491W        W29752  13.711  11.039   3.348  0.1594  0.0971 -0.1374
13492W        W29753  16.998  10.117   0.670  0.1383  0.2348 -0.2418
13493W        W29754  14.499   6.918   4.851  0.1671 -0.2800  0.0098
13494W        W29755  16.007   3.624   4.056 -0.1722  0.2236  0.1360
13495W        W29756   9.265  15.394   0.496 -0.0140  0.1256  0.1256
13496W        W29757   8.400   4.111  14.636  0.0334  0.2293 -0.0274
13497W        W29758   6.642   1.832  13.945  0.2633  0.2438 -0.2775
13498W        W29759   3.108   1.650  16.202  0.4646 -0.1607  0.0039
13499W        W29760  11.894  10.124   3.020  0.1709  0.2827  0.0527
13500W        W29761   9.191  16.838  12.845 -0.1375  0.1637 -0.0717
13501W        W29762   3.201   5.864  11.660 -0.0465 -0.2759  0.0670
13502W        W29763   4.742   8.526  13.485  0.1016 -0.0232 -0.0726
13503W        W29764   9.281  10.846   1.208  0.0389  0.1838 -0.3036
13504W        W29765   2.225  12.108  16.033  0.0672  0.0531 -0.0294
13505W        W29766   7.642   7.454  15.195 -0.1360 -0.0001 -0.1267
13506W        W29767   3.175   8.113   4.259  0.2405 -0.0751 -0.0852
13507W        W29768   1.687   8.343  16.931 -0.1311  0.1478 -0.3109
13508W        W29769   1.963  17.472   2.572 -0.1007 -0.0901 -0.3727
13509W        W29770   5.621   3.843   5.285  0.2383 -0.0536  0.2856
13510W        W29771  13.631   2.758   2.637 -0.2738  0.0378  0.0703
13511W        W29772   6.878   2.396  13.298 -0.0516  0.4385 -0.0614
13512W        W29773  10.086   0.974  11.860  0.1578  0.2104 -0.1773
13513W        W29774   6.165  10.659  14.400 -0.1834  0.1548 -0.2250
13514W        W29775  17.751  16.459   1.086 -0.3142 -0.0237 -0.3679
13515W        W29776   8.796  12.380  12.731 -0.1075 -0.0551 -0.3240
13516W        W29777  11.728   3.683  14.629 -0.0202  0.3284 -0.0185
13517W        W29778  12.880  13.111   1.086 -0.1168  0.0320 -0.1300
13518W        W29779  13.155   4.644   4.031 -0.3113  0.1841  0.0199
13519W        W29780  14.771   1.968  13.667  0.0948  0.0977  0.0916
13520W        W29781  14.352  10.073   0.566  0.0770  0.1006 -0.1234
13521W        W29782   2.850  13.308   5.212  0.3184  0.4200 -0.2236
13522W        W29783  12.389   8.267  13.159 -0.0169  0.1632 -0.0996
13523W        W29784  15.438   6.257  14.181  0.1124 -0.0869 -0.0596
13524W        W29785   0.049   4.688   0.724 -0.0001 -0.0471  0.2258
13525W        W29786   2.902  14.481  13.024  0.1724  0.1686  0.0037
13526W        W29787  12.129   4.856  12.075  0.0425 -0.0089  0.3984
13527W        W29788   2.207   1.046   4.275  0.3028 -0.2309  0.1015
13528W        W29789   4.670   5.955  15.386 -0.2271  0.3311 -0.0681
13529W        W29790   1.348   6.068  12.255 -0.1602 -0.1584  0.3061
13530W        W29791   3.420  11.771   4.977  0.1525 -0.0105 -0.0788
13531W        W29792  16.284   9.197   5.013 -0.0331 -0.3729  0.0781
13532W        W29793   9.523   6.945   4.319  0.1767 -0.1540 -0.0892
13533W        W29794   5.146   6.586  15.182 -0.2028  0.0789  0.1296
13534W        W29795   7.376   7.186  15.538  0.1186  0.0742 -0.3957
13535W        W29796   9.108   9.637  13.724  0.0163  0.1078  0.3314
13536W        W29797   1.896  13.808  13.533 -0.0975  0.3525 -0.2168
13537W        W29798   9.313  15.468   2.801  0.1515 -0.0524  0.0061
13538W        W29799   7.196   8.986   5.019 -0.0342  0.2116 -0.3630
13539W        W29800  13.876  16.567   0.962 -0.2602  0.0356  0.1211
13540W        W29801   6.200   8.798   5.808  0.1403 -0.0543 -0.0515
13541W        W29802   4.416  10.622  14.713  0.2643  0.0843  0.0935
13542W        W29803   9.891   0.333   0.603 -0.3351 -0.1654  0.0333
13543W        W29804  16.138   7.118   0.490  0.3157  0.1272 -0.2036
13544W        W29805  17.796  15.863   0.420 -0.2459  0.3132  0.1539
13545W        W29806  11.361   5.816  15.494 -0.1306  0.0459 -0.0501
13546W        W29807   8.715  15.001  10.675  0.1278 -0.0547  0.0907
13547W        W29808   4.706   5.318  11.105 -0.0025  0.2514 -0.2844
13548W        W29809   5.994   0.318   1.705  0.0941 -0.1156 -0.1161
13549W        W29810   8.200   5.789  16.505 -0.3478 -0.1815 -0.0368
13550W        W29811   2.899   1.386  12.425 -0.0964 -0.0919 -0.2373
13551W        W29812   1.880   4.102  14.117  0.0775  0.1538  0.1394
13552W        W29813   7.613   8.053   3.378  0.1458 -0.0076 -0.0333
13553W        W29814  11.333  11.075   4.694 -0.0689 -0.0498 -0.3485
13554W        W29815   1.735  12.580  14.717 -0.0883  0.0319 -0.0074
13555W        W29816  13.902  16.194   2.650  0.1332 -0.1896 -0.2132
13556W        W29817   4.135  17.645  12.545  0.0924  0.0635  0.2759
13557W        W29818   3.234  12.461   4.274 -0.1102 -0.4616  0.0301
13558W        W29819  15.558   8.661  12.193 -0.1642 -0.0186  0.0634
13559W        W29820  12.501   7.208  12.921 -0.0354  0.4662  0.2377
13560W        W29821   0.681   7.341   3.656 -0.1174 -0.2483 -0.1075
13561W        W29822  13.595  11.058   5.472  0.1780  0.2510 -0.1442
13562W        W29823   2.197  14.121   1.803 -0.0607 -0.2700 -0.3344
13563W        W29824  12.075   1.769  16.123 -0.0848  0.0687  0.2280
13564W        W29825   9.485   2.165   3.758 -0.1026 -0.0576  0.0458
13565W        W29826   7.994   4.565   4.724 -0.1252 -0.0512  0.0078
13566W        W29827   7.945   0.517  14.937 -0.1682 -0.2588 -0.0309
13567W        W29828  13.487  17.347  13.845 -0.0602 -0.1082 -0.1987
13568W        W29829   7.552  16.579  14.581  0.3351 -0.1945  0.0046
13569W        W29830   6.607   1.255   2.567 -0.0632  0.3140 -0.0583
13570W        W29831   4.011   7.733   2.487 -0.1321 -0.2173  0.1690
13571W        W29832  12.246   0.518  11.767  0.1373 -0.2501 -0.0395
13572W        W29833  12.387   0.070   1.325 -0.3465 -0.0190  0.0981
13573W        W29834   6.784   0.589  14.921 -0.0828  0.1624  0.2656
13574W        W29835  17.473   5.405  11.875  0.3608 -0.0896 -0.0533
13575W        W29836   5.787  15.651  11.729 -0.2791 -0.5033  0.1684
13576W        W29837  10.141  11.282  11.401  0.2462  0.1871 -0.0349
13577W        W29838   2.701   5.395  15.805 -0.2648 -0.2864  0.1509
13578W        W29839   8.505  15.624   3.393 -0.0998 -0.0574  0.2171
13579W        W29840  15.693   5.110   0.907  0.3865  0.0229  0.0700
13580W        W29841   7.118   7.036  12.757  0.1034  0.1286 -0.1212
13581W        W29842   8.010  13.784  16.577  0.0979 -0.1882  0.3742
13582W        W29843   0.841   4.957   4.644  0.2960  0.2031 -0.1836
13583W        W29844  10.237   1.228   2.798  0.1942 -0.0553  0.1498
13584W        W29845  16.617   3.496  12.174 -0.1578 -0.0413 -0.0211
13585W        W29846  14.014  11.979  14.161  0.0049 -0.3225  0.0551
13586W        W29847   7.840  11.937  15.831  0.1089 -0.0022 -0.2120
13587W        W29848  17.398   9.589   2.194 -0.2478  0.0835 -0.3066
13588W        W29849  12.994   6.155   2.401 -0.0053 -0.2105 -0.2231
13589W        W29850   4.825  11.518   5.056  0.0303  0.0031  0.0409
13590W        W29851   8.698   2.607   3.094 -0.0592  0.2421 -0.2499
13591W        W29852   5.154   4.482   2.913  0.2862 -0.3721 -0.1640
13592W        W29853   9.295   8.718  14.523  0.1899 -0.0260  0.0552
13593W        W29854  14.586   8.919   0.560  0.1881  0.2984 -0.2134
13594W        W29855   9.126  16.216  15.927 -0.0050  0.0189 -0.2576
13595W        W29856  14.995  15.216  11.814 -0.1336 -0.0349 -0.1010
13596W        W29857  11.158  16.769  13.702  0.5140  0.1203 -0.0816
13597W        W29858   6.565   3.587   2.649 -0.1015  0.3227 -0.2751
13598W        W29859   3.299  16.208  15.131 -0.1263 -0.1090 -0.0330
13599W        W29860  16.929   3.946   1.418 -0.2576 -0.1787  0.0139
13600W        W29861   5.061   5.778  11.884 -0.2498  0.0727 -0.1990
13601W        W29862  15.050  16.802   4.262  0.0303  0.1785 -0.1139
13602W        W29863  17.537  16.278   0.050  0.3187 -0.3273 -0.2436
13603W        W29864   6.117  15.754   4.870  0.5090 -0.0978 -0.0689
13604W        W29865   0.474   5.504  15.022  0.1675  0.1257 -0.0797
13605W        W29866  14.830   7.837  13.160  0.3151 -0.2243 -0.0218
13606W        W29867   0.019   4.607   3.975 -0.0691 -0.1113  0.4545
13607W        W29868   4.901   8.947  13.247 -0.1529  0.3598  0.2666
13608W        W29869  13.936  17.192  13.118  0.0032  0.0971 -0.2433
13609W        W29870  11.315   4.421   4.113  0.0882 -0.2155 -0.2364
13610W        W29871   8.635   1.521  13.992 -0.1335 -0.0292 -0.1289
13611W        W29872  16.083  10.333  15.647 -0.0528  0.2036  0.0983
13612W        W29873   3.321   5.352   5.357  0.0900  0.0516  0.0963
13613W        W29874   7.605   6.130  15.886 -0.0653 -0.1872  0.0898
13614W        W29875   9.839  14.247  16.235  0.0080  0.0334 -0.1269
13615W        W29876   4.100  14.165   2.790  0.0825  0.0930 -0.2107
13616W        W29877  10.319   5.133   1.934 -0.2477  0.2188  0.0073
13617W        W29878   9.171  16.016   5.141  0.2029 -0.1625  0.1773
13618W        W29879  12.879   6.744  11.354 -0.1493  0.1054 -0.0010
13619W        W29880   6.379   4.963   4.356 -0.0842 -0.2170 -0.0555
13620W        W29881   7.834   0.283   4.986  0.1356  0.0766 -0.2883
13621W        W29882  12.939  10.783   4.802 -0.3091  0.0483 -0.0397
13622W        W29883  15.738   7.261  12.894 -0.0384 -0.0083  0.0502
13623W        W29884   8.484  12.783  14.988  0.2031 -0.0983  0.0565
13624W        W29885  11.904   7.966   2.665 -0.1172 -0.0149  0.0236
13625W        W29886  11.541   1.007   1.490  0.1086  0.0209 -0.0226
13626W        W29887   2.767  12.077   2.931  0.0354  0.0372 -0.0684
13627W        W29888  17.033  13.718  13.708 -0.0622  0.1121  0.2000
13628W        W29889   5.847   6.869  13.790  0.0024 -0.1009  0.0955
13629W        W29890   6.784   7.555   1.460  0.1725 -0.0746 -0.0240
13630W        W29891   0.948   3.754   5.506 -0.0393 -0.3313  0.0950
13631W        W29892   3.182  14.020  12.905 -0.0208 -0.1113 -0.1139
13632W        W29893  10.632   9.221  15.619  0.0473  0.1436  0.0544
13633W        W29894  12.991   1.688  15.098  0.3557  0.0579  0.2776
13634W        W29895  10.294   7.553   3.434 -0.1422  0.0790  0.2616
13635W        W29896   5.327   6.472  16.111 -0.0783 -0.1743 -0.0323
13636W        W29897   8.122   7.036  15.965 -0.0775 -0.1503  0.0663
13637W        W29898   1.632   5.554   0.706  0.4264 -0.0145 -0.4938
13638W        W29899   7.497   2.743   2.234  0.1862  0.0084  0.0858
13639W        W29900   6.489   7.918   1.204  0.2393  0.4660  0.3002
13640W        W29901  10.066   4.766  16.235  0.0873 -0.2530 -0.2084
13641W        W29902   3.224  15.800   4.060 -0.2063  0.0988 -0.4792
13642W        W29903   9.825   5.996   3.852  0.0693 -0.0345  0.0138
13643W        W29904   2.347  10.124  13.707  0.1129  0.1973  0.2132
13644W        W29905  12.910   4.574   4.453  0.1116  0.4506 -0.4667
13645W        W29906  14.701   0.271   0.326 -0.0255  0.0775  0.0054
13646W        W29907  14.185   3.739   0.607 -0.0613 -0.1694  0.0394
13647W        W29908  13.014   8.831  14.803 -0.0977  0.1057 -0.1039
13648W        W29909   8.365   7.823  14.354 -0.0969  0.2145  0.0004
13649W        W29910  13.560   0.824  12.640  0.1410 -0.1446  0.2007
13650W        W29911  16.181  10.365  11.698 -0.2710  0.1784  0.1410
13651W        W29912  14.897  10.631   1.087  0.2433 -0.2389  0.0864
13652W        W29913   5.697  11.673   5.086  0.1905  0.0659 -0.0516
13653W        W29914  16.091  16.865   2.477 -0.3252  0.0284 -0.0440
13654W        W29915   7.641   0.241  11.265  0.1550  0.0811 -0.0614
13655W        W29916   8.338  13.234   4.109  0.0040  0.1492  0.0861
13656W        W29917  14.747   7.574   5.028  0.0901 -0.0585 -0.2233
13657W        W29918   9.398   1.447   2.755 -0.1416  0.0868  0.0881
13658W        W29919   5.308   5.602  14.207 -0.1500  0.1466 -0.5560
13659W        W29920   6.563   6.904  16.868  0.2168 -0.0288  0.3039
13660W        W29921   8.118   2.431   4.810  0.1779  0.0211 -0.0345
13661W        W29922   0.161   7.935   2.972 -0.0430 -0.1881 -0.1843
13662W        W29923   3.802  15.147   3.074  0.0129 -0.1926  0.4033
13663W        W29924   5.074   5.015  12.495  0.0070  0.0083  0.0270
13664W        W29925  13.688  13.902   3.217 -0.0303  0.0777  0.0051
13665W        W29926  16.254   7.549   3.807 -0.2531  0.1763  0.2121
13666W        W29927   7.693  10.804   1.153 -0.1798  0.0113  0.0505
13667W        W29928  11.246   9.264   2.156 -0.0169  0.1193  0.2024
13668W        W29929  14.730   4.846  13.803 -0.2255 -0.0137  0.0437
13669W        W29930  15.007   0.150   4.199  0.1077 -0.2096  0.1130
13670W        W29931   8.586  11.543   0.630  0.0281 -0.3611 -0.2755
13671W        W29932   8.209  13.100   2.852  0.0772 -0.0083 -0.3511
13672W        W29933   1.987  16.796  16.145  0.0685 -0.0041 -0.0448
13673W        W29934  13.974  15.279  11.987  0.1251 -0.0300 -0.1071
13674W        W29935   9.725   5.523   0.289  0.1959  0.0106  0.2048
13675W        W29936   9.576   3.827  14.479  0.1248  0.1043 -0.0043
13676W        W29937  17.447   4.132  15.813 -0.0690  0.3364 -0.3187
13677W        W29938  17.315   6.895   0.045  0.0940 -0.1582  0.2200
13678W        W29939   3.650   2.635  11.462 -0.1284 -0.2851 -0.1085
13679W        W29940  17.213   7.025  13.431  0.0813  0.0732 -0.0079
13680W        W29941   8.804  17.432   1.931  0.1184  0.0448 -0.0042
13681W        W29942   0.082  14.898   2.745  0.2189  0.0010  0.3933
13682W        W29943   9.868  10.392  15.474 -0.1767  0.0778  0.0366
13683W        W29944   1.060   0.402  14.931 -0.2635  0.0411  0.0040
13684W        W29945  11.059   5.712   6.280 -0.1297 -0.1098  0.2385
13685W        W29946  14.506  15.546  16.277 -0.0915 -0.2100  0.0867
13686W        W29947   2.885  16.859  12.420 -0.1226 -0.1973  0.0977
13687W        W29948  10.313   5.971  14.843 -0.2116 -0.0441 -0.0975
13688W        W29949   8.623  16.167   4.428  0.0817  0.4570 -0.0590
13689W        W29950  14.294   4.830  14.390 -0.0172  0.0996 -0.0272
13690W        W29951   8.970   1.531   4.287 -0.0931 -0.2057  0.2993
13691W        W29952  13.983   2.694   4.053  0.0140  0.1364 -0.2629
13692W        W29953   9.449   5.661  16.858  0.2069 -0.4224  0.1973
13693W        W29954  14.695   8.835  15.546 -0.0593  0.0796  0.0852
13694W        W29955  10.372   7.161   4.013 -0.2277  0.1680  0.3468
13695W        W29956  11.591  16.035  15.308  0.0255 -0.2478  0.1257
13696W        W29957  15.214   6.717   4.551  0.0154  0.2459 -0.0568
13697W        W29958  14.635   2.058  16.281  0.0704  0.1184  0.0047
13698W        W29959  12.218   3.536   4.630  0.0436 -0.3139 -0.1019
13699W        W29960  16.201   2.623  14.124 -0.0472 -0.1514 -0.1647
13700W        W29961  11.785   6.037   1.286  0.2647 -0.0198  0.1483
13701W        W29962   3.266   3.029   3.934  0.0566 -0.1547 -0.2018
13702W        W29963  11.773   6.160   4.726 -0.2190 -0.0398 -0.0380
13703W        W29964   3.186  11.635  11.937  0.1679 -0.0288 -0.0417
13704W        W29965  13.007  16.868   2.668  0.1653 -0.1889  0.3895
13705W        W29966  17.141   0.979  12.842  0.1706 -0.1210  0.1242
13706W        W29967  11.326   8.392   0.984 -0.0114  0.0005 -0.0730
13707W        W29968   8.550   2.198   3.920 -0.0462 -0.0995  0.2697
13708W        W29969   6.127   5.636  12.358  0.0525  0.1582  0.0624
13709W        W29970   0.560  17.031  13.738 -0.0526 -0.0934 -0.2748
13710W        W29971  16.048  10.869  13.027  0.1925  0.1164 -0.0604
13711W        W29972   2.593   5.269  13.130 -0.1457 -0.0985 -0.0834
13712W        W29973   8.176  13.453  16.117  0.0748  0.1322 -0.2271
13713W        W29974   8.676  12.680  14.389 -0.2807  0.0493  0.1315
13714W        W29975   4.386  11.501  11.701  0.1216 -0.0409 -0.0481
13715W        W29976  14.602  12.520  14.765 -0.0643 -0.1136 -0.0810
13716W        W29977   1.608   4.902   5.995  0.2311 -0.1933  0.3710
13717W        W29978   9.804   4.782   2.701  0.2043  0.2307 -0.0444
13718W        W29979  10.261  10.004  16.563  0.1515 -0.4921 -0.2512
13719W        W29980   8.207  14.963  15.513 -0.1586 -0.0788  0.1093
13720W        W29981   6.988   3.211   5.160  0.2035 -0.3125 -0.2314
13721W        W29982   4.605  13.403  15.282 -0.1861  0.2116  0.1603
13722W        W29983   8.481   9.961   2.531 -0.1430  0.3421  0.1037
13723W        W29984   2.428   2.752   0.466 -0.1026 -0.1504  0.0521
13724W        W29985   0.295   4.112  13.604  0.2174  0.2022  0.0768
13725W        W29986   2.881   1.518   5.627  0.0620  0.2615 -0.0619
13726W        W29987   0.015   8.449  15.637  0.2074 -0.0175  0.0760
13727W        W29988   9.887  14.008  14.026  0.2039  0.0630  0.0972
13728W        W29989  15.603  14.794  16.185  0.1927 -0.1289 -0.2109
13729W        W29990  12.799  13.848  15.857 -0.0689 -0.2973  0.0750
13730W        W29991  14.127   4.822  13.425 -0.4279 -0.1255  0.1701
13731W        W29992   7.728   0.683   0.079 -0.0040 -0.0986 -0.0256
13732W        W29993   3.810  13.834  12.301 -0.1866  0.1684 -0.0866
13733W        W29994  16.581  15.152  13.116  0.0931 -0.0896  0.1480
13734W        W29995   5.208   1.382  11.316  0.1973 -0.1078 -0.1438
13735W        W29996  15.555   2.404  13.806 -0.0386  0.3102  0.1780
13736W        W29997   1.177   6.022   5.328  0.4258  0.0131  0.4312
13737W        W29998   7.568   0.621  15.257  0.0834  0.0481  0.2583
13738W        W29999  17.172   0.109  14.525 -0.1931 -0.1360 -0.1866
13739W        W30000   9.886   6.649   4.678  0.1504 -0.2234 -0.0436
13740W        W30001   9.012   6.732   5.514 -0.1068 -0.0743 -0.1651
13741W        W30002   7.082  13.863  11.723  0.1328 -0.0661  0.1597
13742W        W30003   0.361  14.459   2.667  0.0100 -0.2201  0.1047
13743W        W30004   2.782  15.997   4.298 -0.0699  0.0354 -0.1592
13744W        W30005  14.157   6.582   4.650 -0.2247 -0.0345  0.0896
13745W        W30006  14.471  13.547  16.266 -0.3524  0.3412 -0.2301
13746W        W30007   7.417   3.395   0.261  0.2012  0.1733 -0.2297
13747W        W30008   3.323  16.452   2.258 -0.1489 -0.0637  0.1794
13748W        W30009  16.565   2.818   3.058  0.2360  0.0849  0.1492
13749W        W30010  17.660   7.550  12.036 -0.1971  0.3420  0.0748
13750W        W30011  11.683   3.291  15.628  0.3045  0.3273  0.1293
13751W        W30012  12.243   7.844   4.821 -0.1273  0.2523 -0.0222
13752W        W30013   3.826   5.229  11.901  0.0347  0.3716 -0.2993
13753W        W30014   8.908   6.689  12.410  0.0741  0.1531 -0.0049
13754W        W30015   3.240  12.058   4.569 -0.0468 -0.0905  0.3099
13755W        W30016   7.387   1.192  15.617 -0.0698 -0.2085  0.1584
13756W        W30017   7.729   4.476  16.833  0.0425 -0.3795  0.1764
13757W        W30018   1.174   0.383  12.136 -0.1924 -0.0493 -0.1480
13758W        W30019   1.739   7.523   5.277 -0.0976 -0.0845  0.0082
13759W        W30020  15.016  17.667   5.436 -0.4126 -0.1213  0.0665
13760W        W30021   9.446  13.466   0.166 -0.0895 -0.3002 -0.2052
13761W        W30022   3.518   6.175   3.419  0.2540 -0.1231  0.1310
13762W        W30023   0.792   1.290  10.952 -0.1867  0.0538  0.2997
13763W        W30024   6.791  12.289   2.400  0.1655 -0.0816  0.2185
13764W        W30025  10.818   2.075   3.193 -0.6187 -0.2274 -0.2171
13765W        W30026  17.744  12.658   2.508  0.1832  0.0562  0.1651
13766W        W30027   1.793   8.158  11.791  0.1567  0.1633 -0.2709
13767W        W30028   4.878   9.461  13.227 -0.0736  0.1129 -0.4212
13768W        W30029   8.859   4.067  11.696  0.3054  0.1473 -0.0202
13769W        W30030   1.128   1.669   2.937 -0.0463 -0.1302  0.0622
13770W        W30031  15.101  15.323  12.295  0.3431  0.1445  0.2257
13771W        W30032   6.071  16.512  12.843 -0.0325 -0.3560 -0.3352
13772W        W30033  14.240   7.869  11.838 -0.0070 -0.1129 -0.1563
13773W        W30034  12.394   6.101  15.526 -0.1330  0.0452 -0.1802
13774W        W30035   2.650   1.536   0.344 -0.1257 -0.5077  0.3496
13775W        W30036  11.654   3.365   1.767 -0.2238 -0.0931 -0.2928
13776W        W30037   8.075  12.608  15.384  0.0124  0.1280 -0.0513
13777W        W30038   5.019  15.800   1.082 -0.0617 -0.0349  0.1788
13778W        W30039   5.811   6.251   0.646  0.1377 -0.1715  0.0135
13779W        W30040   9.966   3.020  13.941  0.2756  0.0211 -0.1121
13780W        W30041   8.335  11.387   1.673 -0.0842 -0.1408 -0.0878
13781W        W30042  13.361   7.822   2.609  0.0567 -0.0547  0.0028
13782W        W30043   8.884  14.015  10.331  0.0872 -0.0881 -0.1440
13783W        W30044  13.278   7.293   2.679  0.4082  0.1323  0.1839
13784W        W30045  11.281   7.773   3.826  0.2830  0.1339  0.1790
13785W        W30046  11.403  11.888   4.558  0.2105  0.0584  0.0728
13786W        W30047  10.077   6.657   2.667  0.1997  0.0461  0.1518
13787W        W30048  10.383   6.208   5.816 -0.1007  0.0198  0.1414
13788W        W30049   0.891  11.713   3.840  0.2182  0.0750  0.4531
13789W        W30050  10.439  13.520  15.575 -0.3697  0.1894  0.2343
13790W        W30051   2.025   3.926   5.347  0.1042  0.0616 -0.4118
13791W        W30052  13.614   1.618  12.822  0.2465  0.2103 -0.0529
13792W        W30053  15.129  14.065  13.661  0.2063  0.0183  0.2336
13793W        W30054   3.172   9.785  14.004 -0.3693 -0.2758  0.2902
13794W        W30055   7.063   4.862  14.414 -0.1702 -0.2067 -0.1656
13795W        W30056  15.205  16.021  14.948 -0.1373  0.0253 -0.0365
13796W        W30057   3.878   8.849  14.768  0.0767 -0.2077  0.0260
13797W        W30058   3.147  14.967  12.984  0.0330 -0.1010 -0.1937
13798W        W30059   0.808  17.625   2.879  0.0533  0.1417 -0.0907
13799W        W30060   5.546   3.825  12.184  0.1027  0.0760 -0.2009
13800W        W30061   7.278   3.190  15.741  0.2608 -0.0141 -0.2181
13801W        W30062   1.531  12.311   1.692 -0.3314 -0.2988 -0.2356
13802W        W30063  15.128  17.213  13.142 -0.0060 -0.2314 -0.1486
13803W        W30064   9.654   6.352  13.429 -0.0264  0.0688 -0.1102
13804W        W30065   6.950  12.897   1.839  0.0847 -0.1469 -0.1190
13805W        W30066   5.203  15.088   0.975  0.0088 -0.3213 -0.1060
13806W        W30067   2.231   4.214   0.445 -0.1888 -0.0676  0.3960
13807W        W30068   2.092  12.670  14.148 -0.2000  0.0292  0.0463
13808W        W30069   8.066   9.862   2.224 -0.1364 -0.0382  0.2864
13809W        W30070  16.057   1.632  15.091  0.2789 -0.2506  0.0522
13810W        W30071   5.783  15.911   2.961  0.2248  0.0475 -0.1612
13811W        W30072  17.744   4.642   2.196 -0.1662 -0.0464 -0.0389
13812W        W30073   1.511   7.088   5.265  0.1800  0.1072 -0.1644
13813W        W30074   6.925   2.478   5.123  0.1095 -0.0617 -0.0473
13814W        W30075  12.081   7.992  14.463 -0.1248  0.1085  0.0498
13815W        W30076   9.775  13.269   1.051  0.0955 -0.0746 -0.2308
13816W        W30077  17.175  16.456  15.419  0.0603  0.2597  0.0181
13817W        W30078  16.199  10.150   0.231  0.1298 -0.0187 -0.2297
13818W        W30079   0.870  15.876   2.850 -0.0343  0.0399 -0.3141
13819W        W30080   0.204  17.578   5.958  0.0599  0.0976 -0.0440
13820W        W30081   8.682   3.701  14.481  0.0339 -0.2293 -0.0885
13821W        W30082   7.083   3.659   5.409  0.3109  0.2842 -0.1130
13822W        W30083  10.615   2.521   3.283 -0.1121 -0.3468  0.0107
13823W        W30084  12.374  14.251  11.895  0.2039 -0.1922 -0.2549
13824W        W30085   3.598  17.675   2.933  0.0589  0.1169 -0.4079
13825W        W30086  17.213   7.361  15.618  0.3005 -0.0628  0.0366
13826W        W30087   6.722  12.836   5.586 -0.0133 -0.1564 -0.0016
13827W        W30088   6.373   7.767   4.613 -0.0466 -0.1609  0.2450
13828W        W30089  13.191   4.749   2.473 -0.0089  0.2163  0.2564
13829W        W30090  10.066   2.178   1.357 -0.1295  0.2216  0.3294
13830W        W30091   8.967  17.372   2.799 -0.0050  0.3312 -0.2806
13831W        W30092  14.280  14.214  13.114 -0.2421  0.2384  0.2186
13832W        W30093   9.359   7.919   1.760  0.0873  0.1543 -0.3851
13833W        W30094  17.237  12.049   2.052 -0.0330 -0.4438  0.2370
13834W        W30095  11.934   9.769   4.297  0.1431  0.1166 -0.2102
13835W        W30096   3.506  12.154   5.430  0.2805  0.1679 -0.1047
13836W        W30097  13.896   4.644   2.151  0.0306 -0.0811 -0.1389
13837W        W30098   9.589   6.427  15.865 -0.0251 -0.0453 -0.0418
13838W        W30099   0.671   9.738   3.676  0.1805  0.3242  0.2260
13839W        W30100   4.629  17.420  15.482  0.0442  0.1300  0.1370
13840W        W30101   7.781   5.054  15.875 -0.1244 -0.3786  0.1659
13841W        W30102  17.817   3.556   1.772 -0.1668 -0.0923 -0.1494
13842W        W30103  15.412  10.055   0.853 -0.1526  0.0178 -0.1293
13843W        W30104   0.090   6.018   1.044  0.0018 -0.1440 -0.0402
13844W        W30105  14.982  10.019   1.080  0.0742  0.3125 -0.0632
13845W        W30106   8.860   0.740  13.172  0.0377  0.2018 -0.0988
13846W        W30107  11.020   6.220  16.932  0.0496  0.0677  0.1789
13847W        W30108  13.862   5.941   2.016  0.0829 -0.0496 -0.2877
13848W        W30109   9.698   2.597  16.331  0.0290 -0.2401  0.1608
13849W        W30110   8.448  10.419   3.854  0.0992 -0.1825  0.0182
13850W        W30111  13.083   5.201   2.713 -0.0906  0.0639  0.0609
13851W        W30112  14.223  12.133  15.986 -0.2001 -0.0445 -0.1048
13852W        W30113   3.841   0.740   0.054  0.1411 -0.0539  0.3164
13853W        W30114   5.033   8.529  12.980  0.0823  0.0180 -0.0903
13854W        W30115  16.462   9.483  15.266  0.1727  0.0250  0.1406
13855W        W30116  16.837  17.085  16.582 -0.1140 -0.1088 -0.1433
13856W        W30117   5.586   9.889  11.848  0.2691 -0.1709  0.0241
13857W        W30118   6.352  15.673  13.341 -0.0330  0.1010  0.3093
13858W        W30119  17.042   0.840  12.065  0.0090 -0.0517 -0.3055
13859W        W30120   0.152   3.751  16.506 -0.1035 -0.1581 -0.3159
13860W        W30121  11.556   3.528   1.129 -0.0313 -0.1563  0.1101
13861W        W30122   0.907   9.751  13.745  0.0878 -0.2089 -0.3322
13862W        W30123  12.419   4.671  14.303  0.1537 -0.1364 -0.0978
13863W        W30124  10.768  11.595  15.857  0.1789 -0.0197 -0.1686
13864W        W30125   3.346  15.656   1.291  0.0645  0.0704 -0.2142
13865W        W30126   5.042   5.447   0.077 -0.1734 -0.1889 -0.3127
13866W        W30127   8.395   0.712   3.131 -0.1458 -0.2634 -0.0761
13867W        W30128   7.564   3.113  13.221 -0.0729 -0.0889 -0.3007
13868W        W30129   1.980  10.267   2.942  0.3965  0.0859 -0.1435
13869W        W30130  11.020   8.139   0.663 -0.1631  0.2575  0.2686
13870W        W30131   8.618   0.806   4.192  0.1547 -0.2247  0.0129
13871W        W30132   0.313  14.921   0.469 -0.1241  0.1107  0.0491
13872W        W30133  10.531  17.363   5.923 -0.1331 -0.0987 -0.2393
13873W        W30134   3.972  10.228  14.833  0.2385  0.1523 -0.1300
13874W        W30135   4.021  11.938   2.144 -0.1740  0.2287  0.2208
13875W        W30136   7.244  13.928  13.266  0.0311 -0.1487  0.0587
13876W        W30137   5.411  14.365   3.072  0.0482 -0.1079  0.2835
13877W        W30138  16.664  11.804   0.596  0.0218  0.1227  0.1319
13878W        W30139   5.525  16.163  14.428 -0.0282 -0.1595 -0.1649
13879W        W30140  12.296   6.694   2.055 -0.0580  0.0106 -0.2854
13880W        W30141   3.244  15.898  11.765 -0.1563 -0.0601  0.0277
13881W        W30142  15.832   0.748   5.078 -0.0209 -0.1047 -0.2137
13882W        W30143   3.235   8.332  15.759 -0.1887  0.2814  0.2970
13883W        W30144  16.419  10.145   3.850 -0.0213 -0.1523 -0.0245
13884W        W30145  16.422  17.846  12.631 -0.1055  0.0505  0.1538
13885W        W30146  12.500   9.936  14.594  0.1264 -0.0901 -0.0006
13886W        W30147  15.297   1.913  14.636  0.3551 -0.0568 -0.5644
13887W        W30148  12.603   5.526   0.254  0.1596  0.0838  0.2111
13888W        W30149  17.098  14.369  14.562 -0.1379 -0.1460  0.0663
13889W        W30150  11.295  13.902  13.951 -0.0857  0.0940 -0.0792
13890W        W30151   2.478  11.882  15.656  0.3225 -0.3869 -0.0478
13891W        W30152  12.165   3.089  12.628 -0.4098 -0.2079 -0.2754
13892W        W30153  11.795  15.796   5.431 -0.0195 -0.0186  0.0024
13893W        W30154   1.843  10.779   3.496  0.2433  0.1943  0.2127
13894W        W30155   1.760   1.934  16.630 -0.2554 -0.0819 -0.5870
13895W        W30156   9.920   6.134  16.185  0.1841  0.1188  0.3628
13896W        W30157   2.348  16.422   5.890  0.1434 -0.1666  0.2463
13897W        W30158   4.414   1.405   3.766  0.2372 -0.0363  0.1323
13898W        W30159   3.582   6.813  16.498 -0.0614  0.1166  0.2156
13899W        W30160   6.174   8.406   0.628  0.1134 -0.0491  0.0220
13900W        W30161   8.860   9.854   5.180 -0.0391 -0.0742  0.2305
13901W        W30162   9.615  10.604  11.724  0.2448  0.0391 -0.1777
13902W        W30163   0.619  11.004   4.231  0.1571 -0.2136  0.1006
13903W        W30164   0.469  10.422  12.849 -0.1234  0.1053 -0.0109
13904W        W30165   1.498  11.447  13.987  0.2870 -0.0051 -0.1974
13905W        W30166  11.032  13.717  16.242  0.1514  0.0820 -0.2008
13906W        W30167   2.564  14.861  16.874 -0.0687 -0.0366  0.1305
13907W        W30168  16.927  12.806   4.252 -0.0216 -0.0153 -0.0972
13908W        W30169   4.543   0.439   1.740 -0.1080 -0.0103  0.2081
13909W        W30170  17.224   2.197  14.785  0.0548  0.0036 -0.0479
13910W        W30171  13.216   8.577   5.876 -0.0524  0.3005 -0.2367
13911W        W30172   2.309  16.729   3.616  0.2009 -0.0333  0.0864
13912W        W30173  10.989   8.767   1.179  0.0911  0.1842 -0.1277
13913W        W30174   3.907   1.748  16.617 -0.2040 -0.3197 -0.4711
13914W        W30175   4.154  14.739   4.752 -0.0971  0.0377 -0.1740
13915W        W30176   2.259   0.238  12.810 -0.2086  0.2125  0.0591
13916W        W30177   7.785   1.696  16.243  0.0774 -0.0816  0.0596
13917W        W30178  16.693  16.882   3.241  0.0821  0.1717 -0.3176
13918W        W30179  11.462   0.926   5.014  0.0535  0.2505 -0.1323
13919W        W30180   7.988   2.084  14.440  0.1274 -0.0750 -0.0567
13920W        W30181   4.251   1.178   0.644  0.1251  0.4079 -0.1726
13921W        W30182   7.404   8.994  15.306  0.0119 -0.1371  0.3928
13922W        W30183   3.096  12.433   2.997  0.2215  0.1234 -0.0372
13923W        W30184   3.497   4.615  16.895 -0.1070 -0.3156  0.0652
13924W        W30185   7.598  15.262  13.759 -0.0931  0.0107  0.0570
13925W        W30186  10.698   7.038  14.246 -0.1339  0.2171  0.2302
13926W        W30187   4.179   6.458   2.923  0.1611 -0.1863  0.1309
13927W        W30188   8.361   3.836  12.309  0.1551  0.0357  0.1812
13928W        W30189  12.485  12.745  11.583  0.2281  0.0133 -0.0346
13929W        W30190  15.266   2.143   0.283  0.0591 -0.1540  0.0606
13930W        W30191   8.573  16.025  13.627 -0.1328  0.0046  0.0977
13931W        W30192   8.643   3.062  13.819  0.2570  0.4211  0.2738
13932W        W30193  17.255  17.859  12.230 -0.2628  0.1303  0.1235
13933W        W30194  13.752   4.367  16.684 -0.2053 -0.0117 -0.1852
13934W        W30195  17.316   0.694   5.812  0.1257 -0.0749 -0.3127
13935W        W30196  17.790  14.263   1.234 -0.3076 -0.0599  0.1786
13936W        W30197  11.779   9.865  13.780  0.2409 -0.1280 -0.0264
13937W        W30198   1.365   4.913   0.364  0.4327 -0.0445  0.1955
13938W        W30199  15.046   9.285  12.938  0.1103 -0.1850 -0.2214
13939W        W30200   9.227  11.548  13.701 -0.0023  0.1793  0.0432
13940W        W30201  16.598   6.176   0.889 -0.0502  0.1852 -0.1248
13941W        W30202  15.875   6.817   1.702 -0.2036 -0.1915  0.0530
13942W        W30203  15.637   2.802  14.326 -0.0744 -0.1919  0.4290
13943W        W30204  11.041  13.645   5.472 -0.0514 -0.1501  0.3931
13944W        W30205   3.854   1.257   2.840  0.1609 -0.2951  0.0095
13945W        W30206   2.732   1.045   3.416 -0.1176  0.0428 -0.1351
13946W        W30207  17.258   2.200   5.375  0.1172  0.1139  0.1312
13947W        W30208   3.259   7.375   3.578  0.4062 -0.0458  0.0970
13948W        W30209   5.366  15.159   1.624 -0.0135 -0.0281 -0.2810
13949W        W30210   7.454  15.537   1.913  0.1858  0.2614  0.1084
13950W        W30211   2.664   6.045   1.676  0.0311 -0.0325 -0.2019
13951W        W30212   5.482   1.385  13.114 -0.2101 -0.1363  0.1952
13952W        W30213  13.992  11.977   5.632 -0.1174 -0.0709  0.0028
13953W        W30214   8.418   6.975  15.439  0.4085 -0.0288 -0.0756
13954W        W30215   2.958   7.259  14.797  0.0053  0.0995  0.3548
13955W        W30216  12.838  15.503   4.615 -0.0134  0.1031  0.1576
13956W        W30217   2.801   5.966  13.062  0.1341  0.3225 -0.0584
13957W        W30218   0.801   3.284  12.460  0.2108 -0.0384  0.1803
13958W        W30219   3.516   6.681   5.763 -0.2827 -0.1015 -0.1082
13959W        W30220  14.658   8.335  14.614 -0.1784  0.4003 -0.0818
13960W        W30221   8.640   1.622  11.848 -0.2185 -0.2535 -0.1267
13961W        W30222   4.724  12.067   0.178  0.1204 -0.0257 -0.0096
13962W        W30223   9.368  11.382   4.718 -0.2071 -0.0280 -0.1518
13963W        W30224  13.548   8.156  16.309  0.1178 -0.1372  0.0059
13964W        W30225  17.802   4.637   0.192 -0.0692  0.1880  0.1314
13965W        W30226  15.753   8.015   2.208  0.1536 -0.1251  0.0159
13966W        W30227  15.686   2.871   4.396  0.2021  0.3305 -0.0516
13967W        W30228   1.189   7.724  12.399  0.3904 -0.2138  0.1018
13968W        W30229  10.699   2.096   5.582  0.2492  0.0171  0.2852
13969W        W30230   3.560   9.519  15.904  0.2287  0.0238 -0.0992
13970W        W30231   1.074   1.964   1.679 -0.0572  0.2380 -0.2059
13971W        W30232   1.137   6.890  12.744  0.0169 -0.0802 -0.2249
13972W        W30233   1.759   4.763   5.505  0.1153  0.1658 -0.0881
13973W        W30234   5.951   0.625  13.418  0.0998  0.0916 -0.1455
13974W        W30235   7.089   1.289   2.332  0.3883 -0.0847  0.2432
13975W        W30236  15.838  12.082  11.261  0.0470 -0.0522  0.0538
13976W        W30237   5.184   7.843   2.336  0.3248 -0.1067  0.1180
13977W        W30238   4.334   1.795  14.433 -0.0930  0.0801  0.1666
13978W        W30239   7.029  12.700   3.614  0.1959 -0.2094 -0.1094
13979W        W30240   6.249  13.200   0.832  0.0988 -0.1204  0.0047
13980W        W30241   9.092   6.728   2.643 -0.3951 -0.1394 -0.3477
13981W        W30242  15.586  12.307  13.625  0.3993  0.0058 -0.0648
13982W        W30243  13.278   9.213   0.941 -0.0089  0.1072 -0.0296
13983W        W30244   4.935  16.500  12.634  0.0766 -0.3053 -0.0974
13984W        W30245   1.736  13.908   5.687 -0.0180 -0.0730  0.1404
13985W        W30246   4.603   4.750   5.325  0.1376  0.0181  0.0097
13986W        W30247   9.999  17.643   0.740 -0.0890  0.0563  0.2205
13987W        W30248  12.286  13.970  13.925 -0.0448  0.1323 -0.3587
13988W        W30249   9.257  14.816   3.959 -0.0551 -0.2008  0.0923
13989W        W30250   6.649   1.472   4.749  0.0675 -0.3927 -0.1898
13990W        W30251  10.113  13.053  13.363  0.1327  0.0681 -0.0782
13991W        W30252   2.848  10.842  15.935  0.1705 -0.1165  0.1766
13992W        W30253   3.525   9.104  16.289 -0.1764  0.1554 -0.0095
13993W        W30254  13.585   7.024  13.089  0.0339  0.2601 -0.1155
13994W        W30255  10.521  16.501  14.250 -0.2324  0.1838  0.0742
13995W        W30256   1.180   5.489  12.279 -0.3703 -0.2149 -0.2908
13996W        W30257   8.086   7.357   3.879  0.3679  0.0933 -0.0629
13997W        W30258   4.797  12.561  12.099  0.1804  0.0069 -0.0069
13998W        W30259   3.681  16.268  11.701  0.0617 -0.0945  0.0052
13999W        W30260  10.459  16.961   1.239 -0.1619 -0.1086  0.3496
14000W        W30261  12.877  14.697   1.398 -0.0808 -0.1242 -0.1988
14001W        W30262   5.823   1.768   4.439  0.2658  0.1822 -0.0386
14002W        W30263   1.188   5.102   5.812 -0.0479  0.1094 -0.1093
14003W        W30264   0.234   7.438   2.901  0.2901 -0.1196  0.3111
14004W        W30265  15.809  10.172  14.784 -0.0192  0.0179 -0.1491
14005W        W30266   8.481  16.686   4.668 -0.0416  0.4365  0.1198
14006W        W30267   3.684  10.738   5.184 -0.1194 -0.1491 -0.2772
14007W        W30268  17.836   5.464  14.995 -0.1278  0.1946  0.1581
14008W        W30269  14.296   4.697   5.407  0.0131 -0.0617  0.2299
14009W        W30270  17.302   4.646  12.603  0.4452  0.1063 -0.1481
14010W        W30271  11.805   6.749  14.582  0.0100  0.0856  0.2287
14011W        W30272  15.705   1.144   0.516 -0.1750  0.1171 -0.0684
14012W        W30273  15.284   3.906   2.637  0.1173 -0.2113  0.1275
14013W        W30274   7.135   4.145  14.494 -0.0909 -0.0586 -0.0588
14014W        W30275   5.607   5.864  16.651 -0.1011 -0.2787 -0.3972
14015W        W30276   5.486  14.570   4.573  0.1421 -0.1112  0.3232
14016W        W30277   0.133  10.194  16.789 -0.4417 -0.2066  0.0371
14017W        W30278  16.174  14.272   4.363  0.3805 -0.0352  0.0099
14018W        W30279   9.162  11.917   2.548  0.1264 -0.1199  0.0546
14019W        W30280  17.456   0.590   1.988 -0.0225  0.0286 -0.0917
14020W        W30281   7.701   8.692   4.479  0.1629 -0.1756  0.2424
14021W        W30282  12.992   7.713   2.892 -0.2990 -0.2709 -0.1600
14022W        W30283   8.068   2.718   4.378 -0.0075  0.1353 -0.0089
14023W        W30284  10.382   2.861  15.354  0.0475  0.1624  0.0583
14024W        W30285   0.652   4.043   4.294  0.3139  0.0977 -0.2444
14025W        W30286   3.543   5.660   2.685  0.2532  0.2548 -0.0120
14026W        W30287   9.156   3.191  16.096  0.0947 -0.1228 -0.0792
14027W        W30288  16.052   3.772  12.302 -0.1562  0.4918  0.0870
14028W        W30289   3.177   9.852  15.980  0.1910 -0.2257  0.0865
14029W        W30290  16.887   6.112  13.642  0.2117 -0.4811 -0.0054
14030W        W30291  16.050   7.043   4.701  0.2016  0.0257  0.1480
14031W        W30292   2.791  16.086   2.977 -0.0324 -0.2982  0.1740
14032W        W30293  16.297  14.900  13.445 -0.5820 -0.0200  0.0111
14033W        W30294   6.611  13.174  13.681 -0.1539 -0.0118  0.1862
14034W        W30295   3.910  15.255  16.775 -0.0210 -0.1150 -0.1027
14035W        W30296   7.418   2.377  12.049  0.0635 -0.1982 -0.1412
14036W        W30297  14.425   2.430   4.224  0.0969  0.0833 -0.2129
14037W        W30298   1.169   9.950  15.559  0.1437  0.0313  0.0132
14038W        W30299   6.079  15.574  15.511  0.2517 -0.0320  0.0614
14039W        W30300  17.439   4.524   0.603  0.0480  0.1700 -0.1129
14040W        W30301  10.316   0.963   5.008  0.1226  0.1090  0.0180
14041W        W30302   1.382   7.267  16.278 -0.0161 -0.0290  0.0687
14042W        W30303  12.789   6.265  15.896 -0.0301 -0.1497 -0.1510
14043W        W30304   4.988   1.303  11.831 -0.0344  0.2912  0.1861
14044W        W30305  16.901   2.036   2.539 -0.0138 -0.1620  0.0073
14045W        W30306   7.698  17.743   1.281 -0.1505  0.1441 -0.1880
14046W        W30307   5.018  11.668  16.113  0.1411  0.4311 -0.0949
14047W        W30308  14.987  16.998   5.130 -0.0266  0.0693  0.1009
14048W        W30309   3.079  16.572  15.587  0.0817  0.0384 -0.2328
14049W        W30310   2.304  16.053  12.830 -0.0138 -0.2867 -0.0734
14050W        W30311   0.367   2.491   6.010  0.1539  0.2265 -0.0071
14051W        W30312   1.633  11.076   2.647 -0.0426 -0.0641  0.3301
14052W        W30313   9.268   6.789   0.728  0.0080  0.0481 -0.0023
14053W        W30314  14.242   0.460   1.874 -0.1824 -0.0682 -0.0832
14054W        W30315  10.321   5.597   3.118 -0.1312  0.1022 -0.0479
14055W        W30316   4.570  11.277  12.133  0.5249 -0.0676 -0.0452
14056W        W30317  16.568  10.850  13.039  0.1533  0.2599 -0.4168
14057W        W30318  10.977   5.424   3.273  0.1602  0.0927  0.0987
14058W        W30319   5.022  16.963  11.782  0.1922  0.1346 -0.2402
14059W        W30320   1.318  15.054  16.675 -0.2942  0.0880  0.3624
14060W        W30321  15.639   5.219   4.752 -0.0824  0.2018  0.1987
14061W        W30322  17.018  15.581   0.935 -0.0941  0.2592  0.0880
14062W        W30323  13.186   1.472   3.785 -0.1382  0.1510 -0.1951
14063W        W30324   6.677  11.310   1.917 -0.0493  0.1584 -0.1659
14064W        W30325  11.934  15.396  11.266 -0.2002 -0.1023  0.0882
14065W        W30326  10.780   9.437   0.027  0.0473  0.0341 -0.0226
14066W        W30327  13.313  11.284  14.155 -0.2324  0.0241 -0.2132
14067W        W30328   8.936   3.792  12.129 -0.0126 -0.0410  0.2714
14068W        W30329   5.622   3.754   2.871  0.1079  0.1236  0.3404
14069W        W30330  10.560   1.433   0.127 -0.0566 -0.1398 -0.0496
14070W        W30331  12.369   9.310   2.177  0.0053 -0.1865  0.0292
14071W        W30332   1.999   8.759  15.379  0.0688 -0.1308  0.1344
14072W        W30333   9.766  17.826  13.737  0.3700  0.1279  0.0216
14073W        W30334   4.460  16.818  15.609 -0.0933 -0.2853  0.0358
14074W        W30335  12.898  10.608  11.956 -0.2640 -0.4028 -0.1085
14075W        W30336   9.375   1.439  14.201  0.2259  0.0542  0.4191
14076W        W30337  15.675  10.201  15.929 -0.0536 -0.1600  0.2540
14077W        W30338  17.345  15.008   1.321 -0.1064  0.3760  0.0517
14078W        W30339   1.022  15.713  16.056  0.0347  0.1681  0.0332
14079W        W30340  16.537   8.541   1.222  0.0296 -0.0128 -0.0935
14080W        W30341   7.988   8.972  16.619 -0.0403 -0.2695 -0.0660
14081W        W30342   6.027   0.655  15.431 -0.1102 -0.2250 -0.0364
14082W        W30343   3.148   0.491  12.002 -0.0102  0.0473  0.3119
14083W        W30344  10.215   4.275   1.561 -0.0620 -0.2919  0.0920
14084W        W30345   7.919  10.481   4.956 -0.0013  0.0969 -0.0157
14085W        W30346   4.662  14.894   2.655 -0.1068  0.1162 -0.0855
14086W        W30347   0.673  15.050   1.126 -0.3508 -0.0202  0.0369
14087W        W30348   1.725  17.378  12.739  0.0962  0.1889  0.0378
14088W        W30349  15.814  16.525  12.717 -0.0147 -0.1381  0.3615
14089W        W30350   0.437  12.692  15.471  0.1040 -0.0512  0.0529
14090W        W30351   4.162  15.224   2.179  0.0017 -0.1215 -0.3244
14091W        W30352  17.458   6.144  15.964 -0.0036 -0.2513 -0.2682
14092W        W30353  11.464  17.082  12.510 -0.2199  0.0958 -0.3047
14093W        W30354   6.422  17.562   2.958 -0.0749  0.0431  0.1284
14094W        W30355   1.320   0.531   0.409 -0.1673 -0.2326 -0.1322
14095W        W30356   3.137  13.021  13.661 -0.2013 -0.0561  0.1657
14096W        W30357   2.941   0.404   2.013  0.2274 -0.4521  0.1503
14097W        W30358  16.534   6.097  14.015 -0.2498  0.0958  0.1439
14098W        W30359   1.120  12.961   5.277  0.1171 -0.0153  0.2801
14099W        W30360   2.359   8.972   2.358  0.1771  0.0460 -0.2499
14100W        W30361   0.884  17.786  15.261  0.1141 -0.0888 -0.1295
14101W        W30362   7.079   9.920   3.227  0.2599 -0.1959 -0.1365
14102W        W30363   3.739   3.815  12.818  0.0523  0.0180  0.1675
14103W        W30364   1.910  11.168  11.722  0.0758 -0.0113  0.2095
14104W        W30365   9.816   4.676   6.317  0.4427  0.2672  0.0217
14105W        W30366   2.273  14.635   1.681 -0.0520 -0.2796 -0.0278
14106W        W30367   3.332   8.397   5.181 -0.1746 -0.0999 -0.0946
14107W        W30368   0.638   2.887   3.514 -0.2441  0.0122 -0.0679
14108W        W30369  10.053   0.757   2.651  0.0056 -0.1255 -0.0561
14109W        W30370  13.815   7.105   0.407 -0.0578 -0.3111 -0.0932
14110W        W30371  10.034   5.669  16.415 -0.3608 -0.0659 -0.0197
14111W        W30372   5.080   1.753   1.863 -0.4706  0.1038 -0.1263
14112W        W30373  16.701   6.188  15.564 -0.1276 -0.1992 -0.1868
14113W        W30374   7.670  13.613  15.378  0.2957 -0.1675 -0.2374
14114W        W30375   0.049  15.930  14.482  0.1372  0.0940 -0.1335
14115W        W30376   4.038   8.666  11.873  0.3101  0.0630  0.3485
14116W        W30377  17.745   2.280   6.108  0.0110  0.1488 -0.4272
14117W        W30378  16.879  16.414   1.384  0.0796 -0.0046 -0.2942
14118W        W30379   6.208  10.440  11.666 -0.0563 -0.0483 -0.1226
14119W        W30380   6.187   1.001  14.161  0.1646 -0.3823 -0.1597
14120W        W30381   0.124  10.455  11.429 -0.2619 -0.0383 -0.1027
14121W        W30382   9.123  17.047   1.262  0.0572  0.2072  0.1222
14122W        W30383  11.580  10.547  16.899 -0.1346  0.2513 -0.1204
14123W        W30384   8.808  15.156  13.524  0.2735  0.0883  0.3703
14124W        W30385   8.863  13.168   4.162 -0.0941  0.0071 -0.0830
14125W        W30386   1.857   1.496   4.584 -0.0734  0.1126 -0.0368
14126W        W30387  16.028   2.198  16.084  0.2979 -0.0654 -0.3276
14127W        W30388  14.751  16.218  15.728  0.2420 -0.0518  0.0055
14128W        W30389   0.122  14.131   4.556  0.1752 -0.2300 -0.0602
14129W        W30390   1.172   1.377   0.278 -0.0509  0.1701 -0.1547
14130W        W30391   4.954  10.940  12.188 -0.0194 -0.1185  0.1443
14131W        W30392  13.015   4.749   1.831  0.0495  0.1736 -0.1905
14132W        W30393   4.376   7.470   4.641 -0.2939 -0.1235  0.0635
14133W        W30394   2.227  10.157   4.060  0.0676  0.1140  0.0617
14134W        W30395  16.848   1.761   3.914 -0.0897 -0.0555 -0.0381
14135W        W30396   1.341  10.754   3.486  0.0545 -0.1267  0.0269
14136W        W30397   7.552   5.357   1.603  0.1311 -0.2343 -0.1444
14137W        W30398   3.412  16.209  13.233 -0.0380  0.0932  0.1537
14138W        W30399   7.412   0.020   3.936  0.2964 -0.0615  0.0593
14139W        W30400   6.783   5.607  16.860  0.0521  0.0340  0.0683
14140W        W30401  11.390  16.064   2.718  0.0111  0.1549 -0.0266
14141W        W30402   0.291  10.505  15.094 -0.1014  0.1827 -0.2748
14142W        W30403  15.393   0.956  14.992 -0.2246 -0.3165  0.2011
14143W        W30404   2.314  12.006  12.893  0.0217 -0.1936 -0.3130
14144W        W30405   1.754  14.534  13.996 -0.1752  0.0216 -0.1413
14145W        W30406  10.697   8.197  12.963 -0.0724 -0.1249 -0.0206
14146W        W30407   8.296  15.686   4.673 -0.0452 -0.0800  0.0810
14147W        W30408   1.706   0.762  14.100  0.2046  0.0999  0.1616
14148W        W30409  13.270  10.914  15.443  0.2110 -0.1595  0.3463
14149W        W30410  10.931   8.870  11.843 -0.1466  0.0733 -0.2393
14150W        W30411   2.872   2.792   4.602  0.3041 -0.1276 -0.0990
14151W        W30412  14.442  12.194   5.586  0.0484 -0.0192  0.0078
14152W        W30413  13.204  16.975   0.601  0.0089 -0.1929  0.2711
14153W        W30414  17.037   5.394  11.646  0.2317 -0.1198  0.0920
14154W        W30415   9.646   8.890   1.852  0.1196 -0.2680  0.0600
14155W        W30416  15.593   2.648   1.186 -0.0468 -0.1078  0.0821
14156W        W30417  15.736   4.978   0.028 -0.2082 -0.1002  0.1977
14157W        W30418  14.609  17.549   0.923 -0.1936  0.2892  0.0343
14158W        W30419  15.699   2.774   3.076 -0.3817  0.0369  0.0238
14159W        W30420  17.234  17.842   0.728 -0.1556 -0.1079 -0.1451
14160W        W30421   2.852   4.016  14.084  0.4568 -0.1016 -0.1156
14161W        W30422  17.226   5.992   2.748 -0.0230  0.0561  0.2340
14162W        W30423  14.381   5.873   3.564 -0.1173  0.2531  0.2049
14163W        W30424   2.834  12.218   0.651 -0.1212 -0.0979  0.1382
14164W        W30425   1.182  16.397  12.833  0.0027 -0.0695 -0.0957
14165W        W30426   3.433   9.461   4.038 -0.2717 -0.2458  0.2129
14166W        W30427  13.405   0.383   4.020 -0.1963 -0.0772 -0.2443
14167W        W30428   7.029   5.287   3.278  0.0077 -0.1464  0.0099
14168W        W30429  13.454  11.207   2.310  0.1671  0.2686  0.0325
14169W        W30430  17.181   7.759  11.075 -0.0916  0.3111  0.0449
14170W        W30431   8.702  15.418  16.344 -0.0144  0.0976  0.1038
14171W        W30432   2.542  11.487   1.058 -0.0421  0.1408 -0.2246
14172W        W30433  17.556  17.553  12.510 -0.2592  0.2646 -0.1966
14173W        W30434   4.434  12.590  13.605 -0.3914  0.2326 -0.0253
14174W        W30435   8.302   0.875   0.882  0.0928  0.1296  0.0107
14175W        W30436   8.182  11.433   5.039 -0.1860  0.1294 -0.1223
14176W        W30437   3.455   5.631   4.364 -0.1061 -0.2256  0.2805
14177W        W30438  16.380   4.690   1.564 -0.0516 -0.2802  0.0297
14178W        W30439  17.785  10.898   0.943 -0.0343 -0.1833  0.0775
14179W        W30440   2.829   3.482  14.314  0.3931  0.1635 -0.1891
14180W        W30441   5.596   4.166   1.328 -0.1068  0.0514 -0.0357
14181W        W30442   2.625  13.542  16.957 -0.0748 -0.0902  0.0860
14182W        W30443   5.359  11.915   2.376 -0.0121  0.0221  0.2213
14183W        W30444   7.710   0.280   0.434  0.1250 -0.0076 -0.0036
14184W        W30445   0.538  14.233  14.134  0.2377  0.1487  0.4353
14185W        W30446  17.587   1.082  12.646  0.3246  0.0104  0.0940
14186W        W30447  15.594  15.562  13.029 -0.3014 -0.3138 -0.0121
14187W        W30448  17.421  12.012  12.096 -0.0034 -0.0324  0.0833
14188W        W30449   4.554  13.260   5.240 -0.0359 -0.3646  0.0686
14189W        W30450  16.407   7.597   0.524 -0.1839  0.2193  0.2531
14190W        W30451  15.368  15.856   3.027  0.1840  0.1435 -0.1185
14191W        W30452   4.507   3.663   0.156  0.1040  0.2555  0.0418
14192W        W30453  16.791   7.643  11.767 -0.1069  0.4131 -0.1293
14193W        W30454   0.151  16.872  14.508 -0.0876  0.1083  0.1597
14194W        W30455  12.048  16.272  15.391  0.0339 -0.1159 -0.1827
14195W        W30456   1.054  16.155   0.429  0.0672  0.1945 -0.2716
14196W        W30457   0.646   5.954  15.226  0.1299  0.1346 -0.4172
14197W        W30458  15.067   2.023   1.613 -0.0617 -0.2741 -0.0608
14198W        W30459  17.075   3.464   3.381 -0.3879 -0.2622 -0.2949
14199W        W30460  12.862  16.546   4.830  0.0330  0.0007 -0.1569
14200W        W30461   5.720   3.657  15.831 -0.3971 -0.4160  0.1968
14201W        W30462   7.596   6.935   4.340 -0.0564  0.4642 -0.0100
14202W        W30463  13.856   1.748   4.341 -0.1309  0.0763 -0.2431
14203W        W30464  11.816  12.083  11.959  0.0839 -0.0840  0.4263
14204W        W30465   1.733   7.333   4.747 -0.1216 -0.1261  0.2127
14205W        W30466   2.713   8.333   6.220  0.1452 -0.1632 -0.2773
14206W        W30467  12.702   4.002  16.170 -0.0060  0.1777  0.0574
14207W        W30468   4.060   4.217  16.464  0.2782 -0.0311  0.1620
14208W        W30469   2.890  14.043  13.306  0.0184  0.0051 -0.2638
14209W        W30470   5.485   2.901   4.157 -0.1857 -0.0326 -0.1109
14210W        W30471  11.856   0.064   5.211 -0.0717  0.0693 -0.0880
14211W        W30472   1.854   7.731  12.756 -0.0558  0.0858 -0.1347
14212W        W30473   7.949   6.609   4.580  0.0575 -0.3110  0.2447
14213W        W30474   7.418   7.773   0.869  0.0769  0.2050  0.0176
14214W        W30475   1.286   3.952   0.006 -0.1410 -0.1084 -0.0505
14215W        W30476   3.671   7.140   3.799  0.0469 -0.1716  0.0108
14216W        W30477   3.404  14.928   6.225  0.2821  0.2484  0.2656
14217W        W30478  13.660   4.922  16.972  0.1416  0.4851 -0.0753
14218W        W30479   2.593  13.240   4.295  0.0897 -0.0636 -0.0595
14219W        W30480   6.459  15.404  12.088 -0.0667 -0.0625 -0.4758
14220W        W30481   5.353  16.569  11.807 -0.0607  0.1925 -0.0513
14221W        W30482  16.792  10.878   2.783  0.1273  0.0161  0.1463
14222W        W30483   2.085   5.965  12.763  0.1778 -0.2196 -0.2767
14223W        W30484  14.607   9.688  12.665 -0.0213  0.0505  0.0639
14224W        W30485  13.021  15.715  11.260  0.0167  0.0368 -0.1122
14225W        W30486   5.029  16.417   4.503  0.0818  0.4011  0.4418
14226W        W30487   4.988   0.526  16.844 -0.0947 -0.1314  0.2306
14227W        W30488   4.643   0.942  13.321  0.0167  0.0248 -0.0355
14228W        W30489  10.774  17.143  15.611  0.0651  0.0661 -0.2022
14229W        W30490   0.568   3.663  12.216 -0.3007 -0.0701 -0.1086
14230W        W30491   7.700  12.937   4.874  0.2789 -0.0092  0.2230
14231W        W30492   9.627  15.466  11.464 -0.0987 -0.1501  0.0984
14232W        W30493   7.094   6.406   4.824  0.1367  0.1445 -0.0758
14233W        W30494   7.204   5.746  14.558  0.1336  0.2858 -0.1104
14234W        W30495   6.216   7.582  14.030 -0.0654 -0.0679 -0.4568
14235W        W30496   5.234  10.053   2.534  0.1647  0.2223  0.3381
14236W        W30497   3.700  15.624   4.865 -0.0788 -0.2271 -0.0193
14237W        W30498  15.112  10.746   4.087  0.2227 -0.2545 -0.1798
14238W        W30499  11.874   5.445   3.323 -0.1381 -0.1607  0.0686
14239W        W30500   6.109   9.952   0.143 -0.0225  0.0064  0.3543
14240W        W30501   9.957  16.806   4.575  0.0862  0.0899  0.1103
14241W        W30502   9.814   9.915   2.880 -0.2217 -0.0283  0.1463
14242W        W30503  11.966  10.222  15.871 -0.1316 -0.2629  0.0220
14243W        W30504  14.089   6.425   5.137  0.1137  0.1998  0.0660
14244W        W30505  11.692  10.802  12.214  0.0896 -0.4001 -0.0615
14245W        W30506   6.628  11.618  11.889 -0.0408  0.1062 -0.0345
14246W        W30507   3.909  10.707  15.649  0.0001  0.0192 -0.1251
14247W        W30508   9.274   3.879   6.091 -0.2473 -0.1013  0.1015
14248W        W30509  16.475  14.123   4.808 -0.1390 -0.0559 -0.0079
14249W        W30510   4.519   8.400   1.761  0.0614  0.1514  0.0275
14250W        W30511   0.258   0.222   4.085  0.0147  0.0766  0.0448
14251W        W30512   9.464   3.540   2.234 -0.1859 -0.0588  0.1723
14252W        W30513  10.987   0.392  14.101 -0.0573  0.0264  0.2278
14253W        W30514   9.779   1.441  15.641 -0.0002 -0.0959 -0.1156
14254W        W30515  10.501  10.407   4.456  0.2104  0.0544 -0.0287
14255W        W30516   2.741  13.027   1.160 -0.0458 -0.1403 -0.2281
14256W        W30517  10.726   0.025  16.803  0.3851  0.0703  0.2482
14257W        W30518   2.207   8.102  12.778 -0.0446 -0.3507 -0.0304
14258W        W30519  17.165   8.378   2.569  0.3384 -0.0422 -0.0239
14259W        W30520  10.267   6.373  11.870 -0.3199 -0.0948 -0.0290
14260W        W30521   7.474  13.631   2.974  0.0508  0.2017 -0.0741
14261W        W30522  10.515  14.957   2.642  0.0170  0.2648 -0.1237
14262W        W30523  15.631  12.369  14.557  0.2055 -0.0156 -0.1693
14263W        W30524  12.064  12.847   2.460  0.1687  0.1668  0.3309
14264W        W30525   6.171   6.172  12.608 -0.0123  0.0706 -0.3468
14265W        W30526   3.326   1.076   0.436  0.1956 -0.2950 -0.1491
14266W        W30527   5.543  17.683   1.677  0.3240 -0.1681  0.0413
14267W        W30528   4.141   1.266  16.231  0.1519 -0.2655 -0.2919
14268W        W30529  12.399  12.504   1.401 -0.1031  0.0863 -0.0957
14269W        W30530  12.236   2.870  13.028  0.0922 -0.1806  0.1553
14270W        W30531  12.884   8.547  15.599 -0.0443  0.1856 -0.1080
14271W        W30532   9.881  10.442  15.965  0.0482  0.1428 -0.3477
14272W        W30533  15.754   3.678  14.311 -0.2742  0.0911 -0.2605
14273W        W30534   8.592  11.791   1.896  0.1965  0.0797 -0.1790
14274W        W30535  17.117  16.209   3.801  0.3868 -0.0783 -0.0964
14275W        W30536   3.172  16.427  16.851 -0.1501  0.3717 -0.0640
14276W        W30537  14.404  16.367   4.101  0.0346 -0.1427 -0.1709
14277W        W30538   5.956  13.177  14.257 -0.0488 -0.0714  0.0705
14278W        W30539  12.668   8.457   0.123 -0.2241  0.0283  0.1356
14279W        W30540   1.901   2.440   1.925 -0.0767 -0.0589 -0.1094
14280W        W30541   4.324  11.035  15.654  0.0124  0.0873  0.2078
14281W        W30542   8.065  11.387   4.110 -0.0810 -0.0439 -0.0784
14282W        W30543   4.994   5.929  14.521  0.0906 -0.0645  0.3812
14283W        W30544   3.215  10.876   0.119  0.3490  0.1356  0.0018
14284W        W30545   3.836   1.239  16.632  0.2195 -0.0811 -0.0677
14285W        W30546  16.105  14.057   0.117 -0.0146 -0.2713  0.1030
14286W        W30547  14.770  12.023   0.298 -0.1071  0.0279 -0.0055
14287W        W30548   4.405   9.359   2.815  0.1554 -0.1857 -0.1182
14288W        W30549  11.258  14.539  16.877  0.2039 -0.0985 -0.0886
14289W        W30550  12.009  11.619   1.105 -0.2453  0.0951 -0.0473
14290W        W30551   0.508   6.200   1.330  0.0502  0.1796 -0.0235
14291W        W30552   1.265   4.039   3.204  0.0145  0.0059 -0.3501
14292W        W30553  14.848  12.748   0.472  0.1582 -0.0212  0.1680
14293W        W30554  17.632   4.039   4.523 -0.1000  0.1004  0.1370
14294W        W30555   1.236   5.366   0.490  0.1992 -0.1104 -0.1810
14295W        W30556   5.497   0.858  13.150  0.2121 -0.0427 -0.2080
14296W        W30557  14.497   9.065   2.104  0.0190  0.1057  0.0823
14297W        W30558   7.527   4.882   0.193 -0.2146  0.2149  0.0386
14298W        W30559   4.892   9.791   4.786  0.1913 -0.0838  0.3132
14299W        W30560   6.678  14.248   0.612 -0.0729  0.1773 -0.2916
14300W        W30561   3.225  12.233  13.785 -0.0917  0.1829 -0.1291
14301W        W30562  12.784   3.085   6.312 -0.1135 -0.0515 -0.0743
14302W        W30563   9.941   9.357   4.251  0.1806 -0.1401 -0.2129
14303W        W30564   8.027  11.851   3.166 -0.1698  0.0351 -0.1900
14304W        W30565   6.229   3.451  15.596 -0.0074 -0.0969  0.1337
14305W        W30566  12.024  16.298   5.252  0.1455 -0.2408  0.1646
14306W        W30567  15.055   3.984   0.703  0.3392  0.0116 -0.1090
14307W        W30568  14.244  15.371   2.750 -0.2179 -0.1745  0.4069
14308W        W30569   2.023  13.553   0.454  0.1525  0.0710  0.1153
14309W        W30570   9.322   3.907  16.522 -0.2042  0.1175 -0.1101
14310W        W30571  14.003   8.758  15.995 -0.0096 -0.3014  0.2339
14311W        W30572  10.124   4.110  15.167  0.1845  0.1591 -0.2299
14312W        W30573   7.965   7.429  12.671  0.0485 -0.0145  0.1060
14313W        W30574   4.351   4.516  15.278  0.2573 -0.0838 -0.3175
14314W        W30575  13.390  11.313  15.768  0.1998 -0.2424 -0.2673
14315W        W30576  13.110  15.620   2.287 -0.0647 -0.3353  0.0034
14316W        W30577   9.550   0.970   5.175 -0.0366  0.0686  0.1689
14317W        W30578  12.520   8.153   4.480  0.3743  0.0385  0.0780
14318W        W30579  10.087   8.598  12.406 -0.0480  0.0012  0.0517
14319W        W30580   1.104   2.907  12.335 -0.1661 -0.2333 -0.1830
14320W        W30581  10.136  17.577  12.052 -0.0632 -0.2594 -0.0804
14321W        W30582   9.534   8.434   0.966 -0.0464  0.0985 -0.1466
14322W        W30583   5.295   4.063  14.261 -0.1765  0.3244  0.1428
14323W        W30584   9.328   7.844  11.226 -0.0631 -0.1072  0.1499
14324W        W30585   4.127  10.205   3.211  0.0062  0.0510  0.0987
14325W        W30586  12.472   9.213   3.502  0.1582  0.2061  0.3901
14326W        W30587   1.168   6.462  12.539  0.1269 -0.3042  0.2656
14327W        W30588  11.849  10.172  12.212  0.2139  0.0289  0.3869
14328W        W30589  10.799   1.615  13.787  0.2829  0.0635  0.1436
14329W        W30590   9.098   0.433   0.597 -0.2740  0.5159  0.1823
14330W        W30591   0.573  15.314   0.377 -0.0608  0.0768  0.0434
14331W        W30592   9.875   4.744   4.562  0.2971 -0.0388 -0.1558
14332W        W30593  12.805  15.642   5.082  0.0487 -0.1541  0.2582
14333W        W30594   6.113   1.728   3.968 -0.0930  0.2261 -0.0570
14334W        W30595   7.636   0.281  15.604  0.0630  0.1778  0.2854
14335W        W30596   1.938   9.240   0.952 -0.1510  0.2729 -0.0243
14336W        W30597  16.869   7.774  14.558  0.0658 -0.0720  0.2938
14337W        W30598   1.554  16.979  14.740  0.2591  0.0573 -0.2121
14338W        W30599   8.462  14.870  16.418  0.2486 -0.1886 -0.1793
14339W        W30600   8.567   8.585   5.146 -0.0718 -0.1002 -0.1527
14340W        W30601  11.135  10.345  16.742  0.0901  0.1312  0.1570
14341W        W30602   6.229   0.908  11.611 -0.2795  0.0222  0.0694
14342W        W30603  11.039  15.894  15.394 -0.1791  0.2693  0.0909
14343W        W30604  15.648  16.274   2.433  0.0602 -0.2442 -0.0130
14344W        W30605   3.098   4.074  12.450 -0.0244 -0.2211  0.0209
14345W        W30606  10.903   5.372   1.215  0.0658 -0.0667  0.2158
14346W        W30607  12.464  10.785  15.794 -0.1164 -0.0138  0.2315
14347W        W30608  17.478  11.691   1.195  0.1406 -0.1786 -0.1356
14348W        W30609  11.125  13.356   1.304 -0.0771 -0.0207 -0.0108
14349W        W30610   9.022   2.498   5.556 -0.0176  0.0307 -0.3030
14350W        W30611  14.627   2.116  16.779  0.3318 -0.3633  0.1935
14351W        W30612   7.542   5.300  16.256  0.0122  0.0679  0.2004
14352W        W30613   9.506  10.351  13.135 -0.0514 -0.0596 -0.0446
14353W        W30614  10.049   4.950   4.983  0.2778 -0.2189 -0.0976
14354W        W30615   5.174   6.077   4.311 -0.0361  0.0491  0.1508
14355W        W30616  16.301   3.954  16.448 -0.0694 -0.0676 -0.0435
14356W        W30617   2.563  12.292   3.311 -0.0235  0.2973 -0.0633
14357W        W30618  11.888   6.870  12.945 -0.0245  0.0256  0.1918
14358W        W30619   5.441   9.042  14.395 -0.0177 -0.0973 -0.2946
14359W        W30620   4.843   3.601  15.313  0.1103  0.1108  0.1664
14360W        W30621   9.591   3.581   3.463 -0.0137 -0.0829 -0.2907
14361W        W30622  13.404   4.203   2.233 -0.0981  0.1950  0.1918
14362W        W30623   3.027  13.541  13.570 -0.1258  0.1939 -0.1856
14363W        W30624   4.042   1.767  11.467  0.0708 -0.2471 -0.4133
14364W        W30625  15.153   3.401   2.768 -0.1751  0.0911 -0.1904
14365W        W30626   7.937  15.310   4.890  0.0973 -0.1751 -0.1349
14366W        W30627  13.897   9.081  16.430  0.0651  0.1995  0.5336
14367W        W30628  13.564   8.815   5.643 -0.0476  0.2407  0.0857
14368W        W30629   8.788   5.705   6.191 -0.2315  0.1662  0.0677
14369W        W30630  11.057   2.043  14.966 -0.0999 -0.0453 -0.2812
14370W        W30631   2.013  15.698  14.164 -0.1120  0.0898 -0.1461
14371W        W30632   1.813   6.195   0.569  0.0311  0.2590  0.0659
14372W        W30633  15.968   0.793   1.161  0.0261 -0.1130  0.1871
14373W        W30634  16.562   5.139  14.310  0.0417  0.1013  0.0543
14374W        W30635  17.614  11.858   1.833  0.1447 -0.0955  0.2316
14375W        W30636   8.421  16.190   0.628  0.4657  0.0160 -0.1212
14376W        W30637   4.577   1.852   5.603  0.1213  0.1629  0.3044
14377W        W30638   5.024  16.486  12.124 -0.0828 -0.1353  0.0910
14378W        W30639  11.579   5.408  14.899  0.1114  0.0279  0.1676
14379W        W30640   5.898   0.745   1.365 -0.0377  0.1849 -0.4183
14380W        W30641   5.942   1.450  15.433  0.1307  0.1056 -0.2090
14381W        W30642   9.272   9.289  11.829 -0.1611 -0.0213 -0.0308
14382W        W30643   8.006  14.494   4.638  0.1164 -0.2175  0.1382
14383W        W30644  12.049  14.199  12.335  0.2050  0.3644 -0.2607
14384W        W30645  11.926  17.561   3.311 -0.2240  0.1000 -0.1145
14385W        W30646   1.600  10.473  13.844  0.3490  0.1565 -0.4995
14386W        W30647  11.310   0.720  16.686 -0.3422  0.2940 -0.0344
14387W        W30648  16.466  16.519   5.125  0.0308  0.1561  0.1483
14388W        W30649  10.390  17.455  14.600  0.0929 -0.0917 -0.1167
14389W        W30650   0.209  10.639   1.279 -0.1941  0.2914  0.1310
14390W        W30651  14.622   5.474   3.315  0.1136 -0.1067  0.2568
14391W        W30652   4.653   3.890   0.608 -0.2648  0.0197 -0.1175
14392W        W30653   6.792  16.582  11.780  0.2534 -0.1985 -0.2427
14393W        W30654   3.518  10.085   0.674 -0.2276 -0.1437  0.1089
14394W        W30655   5.297  10.081  15.016 -0.3861 -0.0365 -0.2553
14395W        W30656   8.990  10.387   6.004  0.1377 -0.0314 -0.0070
14396W        W30657   0.340  15.662   0.062  0.1255  0.0646 -0.3994
14397W        W30658   7.502  13.129  13.961  0.0529 -0.2473 -0.0290
14398W        W30659   4.799   6.660   2.341 -0.1424  0.1775  0.1765
14399W        W30660  16.798  11.287  15.768 -0.3491  0.2705  0.1688
14400W        W30661   0.372  11.285  12.939  0.0516  0.4070  0.0760
14401W        W30662  16.632   9.186   1.936 -0.1430 -0.1849  0.0828
14402W        W30663  16.659  15.284  14.221  0.2544 -0.3454  0.1141
14403W        W30664   7.183  11.289   1.862 -0.1040  0.1381  0.0872
14404W        W30665  16.047  14.531   1.275  0.2201 -0.0451  0.1680
14405W        W30666   5.572  16.616  13.962  0.1855 -0.2660 -0.1081
14406W        W30667  17.289  17.431   2.534  0.0771 -0.1460  0.2173
14407W        W30668  12.328  12.014  14.800 -0.0553 -0.4009  0.0490
14408W        W30669  12.115   0.074   0.330 -0.3665 -0.1415 -0.0676
14409W        W30670   9.532   7.212   1.493 -0.1363  0.3159 -0.1782
14410W        W30671   2.448   3.682  13.854  0.1660  0.1195  0.0652
14411W        W30672   2.540  12.419  14.071  0.0751 -0.2700  0.0312
14412W        W30673   2.810   3.986   1.058 -0.0324  0.1821  0.0576
14413W        W30674   1.959   3.013  13.963 -0.2217 -0.0603  0.0269
14414W        W30675   2.921   8.485   0.232  0.2904  0.1143  0.1041
14415W        W30676  16.220  13.863   0.520 -0.3886  0.1524 -0.0367
14416W        W30677   2.483   0.737  14.509  0.2741  0.0813  0.0071
14417W        W30678   6.954  10.896   0.048  0.1484 -0.0029  0.0260
14418W        W30679   6.201   6.599   0.778 -0.2246 -0.1148 -0.1068
14419W        W30680   5.307   1.628   1.349  0.0389  0.3391  0.2037
14420W        W30681   2.212   6.925  13.952 -0.2783  0.0062 -0.0183
14421W        W30682   7.683   1.137  12.564  0.0813  0.2393 -0.2757
14422W        W30683  17.247   8.967   5.287  0.3267 -0.3023  0.0023
14423W        W30684   0.876  17.256  14.161  0.2550  0.1379 -0.0188
14424W        W30685  15.959   1.725   5.868  0.3019 -0.3389 -0.2407
14425W        W30686   3.392  15.361   2.546 -0.3533 -0.3706 -0.1408
14426W        W30687   1.897   8.117  13.825  0.0158 -0.1123 -0.1925
14427W        W30688  13.348   3.789   5.418 -0.1137  0.0057 -0.4681
14428W        W30689   1.580   2.112   4.800 -0.1166  0.2516 -0.1699
14429W        W30690   9.443  10.257  14.131 -0.0451 -0.0822 -0.0764
14430W        W30691  16.746   0.450  11.968 -0.1192  0.3994  0.0283
14431W        W30692  17.669   1.892   1.481  0.2066 -0.0945  0.3481
14432W        W30693   5.140  11.549  15.517  0.0520 -0.1792  0.0234
14433W        W30694   9.815   8.355   5.304 -0.1594  0.1629  0.0637
14434W        W30695   8.626  16.561  13.788  0.2997  0.2355 -0.3335
14435W        W30696   7.959  14.564   3.326 -0.1235 -0.0801  0.2146
14436W        W30697   6.775  15.889  15.974  0.1688  0.0105 -0.0611
14437W        W30698  10.879   0.390   0.742 -0.0321  0.1805 -0.3676
14438W        W30699  11.228  11.639   4.056 -0.1375 -0.1729 -0.0436
14439W        W30700   2.381  13.377   5.088  0.2659  0.1268 -0.4221
14440W        W30701  13.709  11.195   1.044 -0.2022 -0.2382 -0.1112
14441W        W30702   2.746   3.367   4.868 -0.0483 -0.2256 -0.1958
14442W        W30703  15.391   0.158  12.939 -0.2230 -0.2420  0.0522
14443W        W30704   1.793  13.742  13.006  0.0541 -0.1266  0.0357
14444W        W30705  12.428  10.908  16.725 -0.0368 -0.0105 -0.1520
14445W        W30706   7.145  10.877   1.076  0.0899  0.0161 -0.0012
14446W        W30707   8.609   9.543  13.908 -0.0468 -0.2111  0.2712
14447W        W30708   2.712   4.572   5.092  0.0147 -0.2478  0.1363
14448W        W30709  10.114  12.368  10.532 -0.1495  0.0624  0.3546
14449W        W30710   6.071   8.218  12.047 -0.1540  0.1505  0.1386
14450W        W30711   3.261   9.215   0.806  0.1449 -0.1069 -0.0093
14451W        W30712  16.082   0.996   5.494  0.0492  0.0962  0.1217
14452W        W30713   3.348  12.027   3.911 -0.0142 -0.0180  0.0174
14453W        W30714  15.317  16.821  15.467  0.0340 -0.1831 -0.0791
14454W        W30715   7.540   6.566  13.097 -0.0826  0.2022 -0.1332
14455W        W30716   4.963   8.871   4.378  0.2270  0.2296  0.1246
14456W        W30717   1.699   4.384   4.173 -0.2423  0.2504  0.3277
14457W        W30718   5.931  12.741   1.735 -0.0339 -0.3089  0.1606
14458W        W30719   6.449  16.711  14.842 -0.3723 -0.0036  0.2005
14459W        W30720   8.061  13.898  13.543 -0.2933  0.1950 -0.0597
14460W        W30721   4.941  11.806  16.647  0.1073 -0.0482 -0.2551
14461W        W30722   7.521  15.389  12.779 -0.1726  0.2121  0.1622
14462W        W30723   6.537  16.621  14.326  0.2631 -0.1441 -0.1082
14463W        W30724   7.241   1.364   0.420 -0.3578  0.0690 -0.1704
14464W        W30725  11.064   7.254  13.184  0.3158  0.0109 -0.0217
14465W        W30726   1.998   5.428   1.871  0.1692  0.1927  0.2368
14466W        W30727  16.434   5.590   2.010  0.1312  0.0846  0.1466
14467W        W30728   4.397   1.983  13.120 -0.0186 -0.2283  0.0791
14468W        W30729  12.283   1.081   4.591 -0.2306  0.0984  0.0720
14469W        W30730   0.281  17.300   4.003  0.0553 -0.0891 -0.0685
14470W        W30731  11.804  13.427  12.922  0.0838 -0.1437 -0.0082
14471W        W30732  11.697   1.725   5.766 -0.1198  0.2651 -0.0082
14472W        W30733   3.738   0.648   4.850 -0.1223  0.2045  0.0307
14473W        W30734   7.731  13.314  14.834 -0.0706  0.1757 -0.0711
14474W        W30735  13.706   5.546  10.886 -0.1186  0.3095 -0.1945
14475W        W30736  10.983   8.285   6.357 -0.3196  0.1071 -0.0630
14476W        W30737   9.683  14.385   2.755  0.1087 -0.1452 -0.2277
14477W        W30738   4.104   0.660   4.508  0.0606  0.3097 -0.1757
14478W        W30739   8.342   9.396  15.267  0.2288 -0.0066 -0.3894
14479W        W30740  11.402  11.659   1.175  0.2362 -0.0285 -0.2769
14480W        W30741   4.987  11.938  13.126 -0.3353 -0.1368  0.1190
14481W        W30742   7.312   7.823  14.541 -0.1053  0.0752 -0.0262
14482W        W30743  15.663   6.614  13.922 -0.1722 -0.1467 -0.1596
14483W        W30744   2.105   6.953   3.390  0.2491 -0.0581 -0.3386
14484W        W30745  16.916  11.566   0.189  0.0843 -0.0714  0.1052
14485W        W30746  17.794   3.341   2.270 -0.2193  0.0615  0.0391
14486W        W30747   2.853  15.436   5.992  0.0692  0.2385  0.2153
14487W        W30748   1.772   2.490  15.800 -0.1668 -0.0143  0.0271
14488W        W30749   3.901   0.771   3.283  0.0053  0.1151 -0.0204
14489W        W30750   4.964   5.247   4.569  0.0788 -0.2206 -0.1502
14490W        W30751  15.301   0.482  16.275  0.1380 -0.0355 -0.4574
14491W        W30752   8.161   5.409   5.988 -0.2167 -0.1779 -0.1237
14492W        W30753   0.274   5.238   4.763  0.0315  0.0959 -0.0033
14493W        W30754   2.780  10.783   5.178 -0.0869 -0.2139 -0.2503
14494W        W30755  17.408  12.613   6.069 -0.0574 -0.1040 -0.1440
14495W        W30756   5.640   4.656   1.446  0.2136  0.0173  0.2282
14496W        W30757  13.962   9.603  16.394 -0.2729 -0.2688  0.3427
14497W        W30758  13.231  10.524  14.527 -0.2060  0.0966 -0.1301
14498W        W30759   2.356   8.482   5.247 -0.1028 -0.1328 -0.0166
14499W        W30760   9.887   9.164  14.039 -0.4206  0.1538  0.1893
14500W        W30761  10.005  10.765   2.486  0.3644  0.2866  0.1040
14501W        W30762   6.316  17.409  11.085 -0.0320 -0.1887  0.2777
14502W        W30763   8.751  14.219   4.807  0.0736  0.2227 -0.2222
14503W        W30764   9.654   5.311   1.964 -0.1489 -0.1232 -0.0468
14504W        W30765   2.469   6.982  12.721  0.1912  0.0006  0.0526
14505W        W30766  12.144   8.192   1.431 -0.0809 -0.0970  0.1648
14506W        W30767  13.020   7.765   1.283 -0.0637 -0.2221  0.2868
14507W        W30768  10.621   6.465  14.864  0.2782 -0.0239  0.2805
14508W        W30769  13.355  15.704  14.739 -0.0649 -0.0246 -0.4081
14509W        W30770  10.555   2.913  14.785  0.3146  0.2675  0.0061
14510W        W30771   4.801  14.640  13.789 -0.2288  0.4335  0.2128
14511W        W30772   9.223   5.076   5.613  0.2585 -0.2089  0.1978
14512W        W30773   2.336   0.760  13.375  0.1106 -0.4093  0.0426
14513W        W30774  12.570   6.286  11.458 -0.1856 -0.2039 -0.3568
14514W        W30775   4.506  13.660   0.191  0.0923 -0.2011 -0.4557
14515W        W30776  11.611   5.578   2.741  0.0731  0.1776  0.1355
14516W        W30777  16.178   3.543   0.494 -0.0190  0.1402  0.1504
14517W        W30778  12.505  16.224   0.932  0.2387 -0.2097  0.1957
14518W        W30779   7.249   6.949   3.989 -0.1910  0.2226  0.3193
14519W        W30780  17.740   2.240   4.611 -0.0688 -0.0364 -0.2792
14520W        W30781   5.947  11.865  14.152 -0.1356 -0.0122  0.2776
14521W        W30782   1.046   1.994   5.048 -0.1612 -0.1663 -0.0440
14522W        W30783  10.378   7.371  14.989  0.0928  0.1759  0.0525
14523W        W30784  11.099  14.148   2.300 -0.3621 -0.0509  0.0705
14524W        W30785   5.059  15.995   0.138 -0.0190 -0.0924  0.0450
14525W        W30786   1.539  15.614   4.803 -0.1288 -0.0151  0.0751
14526W        W30787   9.968   5.284   3.387  0.1131 -0.0758 -0.1981
14527W        W30788  17.372   4.442   5.971 -0.0715 -0.2284  0.0396
14528W        W30789  16.752  15.610  16.560  0.0460  0.4233 -0.4922
14529W        W30790   3.241   6.756  14.062  0.2059 -0.0606 -0.1143
14530W        W30791  14.158  11.926   0.999  0.2758  0.0133  0.0291
14531W        W30792  15.762   1.055   3.918 -0.0019  0.1042  0.1135
14532W        W30793   9.927  11.520   0.895  0.1669  0.0276  0.0609
14533W        W30794   3.514   0.726  14.293  0.2607  0.1539  0.0136
14534W        W30795   7.311  17.666  16.277 -0.0200  0.1024  0.0508
14535W        W30796   7.173  16.035   4.451  0.2194  0.2023  0.3160
14536W        W30797  15.475  15.411   3.845  0.1864 -0.1295  0.1413
14537W        W30798   7.446  12.580   0.691 -0.0864 -0.0656  0.0031
14538W        W30799   4.665   1.056   0.362 -0.0191  0.0613  0.1864
14539W        W30800  14.963  13.188   0.735  0.0483 -0.2037 -0.0058
14540W        W30801   6.710   4.918   3.421 -0.0658 -0.3265  0.0885
14541W        W30802  14.264  15.775  16.642 -0.2721  0.0400 -0.2497
14542W        W30803   4.732   6.489  13.525 -0.2041 -0.0323  0.0374
14543W        W30804   0.244   3.677   5.172  0.2279 -0.1493 -0.1782
14544W        W30805  11.523   8.796   0.579  0.0546  0.0251 -0.1201
14545W        W30806  15.223   2.733  16.653  0.0120 -0.0762 -0.2842
14546W        W30807  11.005  11.961  13.223  0.0896  0.1385 -0.1937
14547W        W30808   6.361   4.734  13.561  0.0949 -0.1493  0.1836
14548W        W30809   2.596   7.616   3.958 -0.0095  0.1245 -0.0980
14549W        W30810  13.954  11.658  16.761 -0.1747 -0.0104 -0.0512
14550W        W30811   1.460  17.472   5.146  0.3302 -0.1616  0.1257
14551W        W30812   0.035   0.382   5.189  0.0135 -0.1236  0.2516
14552W        W30813  17.465   7.371   4.895 -0.1156 -0.2670 -0.0719
14553W        W30814   0.271  10.663   3.020  0.1294  0.2930  0.0104
14554W        W30815  16.596  16.845  16.130  0.3604  0.2503 -0.1331
14555W        W30816  17.172  14.285   4.980  0.2385  0.0917  0.0925
14556W        W30817   0.275   1.449  12.143 -0.0322  0.2108  0.0545
14557W        W30818  11.837   8.951   0.977 -0.1420 -0.2629 -0.0087
14558W        W30819   4.494   2.126   1.455  0.1869  0.2758 -0.0974
14559W        W30820  13.928  13.433   1.442 -0.1190 -0.2635  0.0307
14560W        W30821   7.738  11.776  12.306  0.1201  0.2508  0.0665
14561W        W30822   4.206   8.536  13.967 -0.2111 -0.0799 -0.0483
14562W        W30823  16.309  17.662   4.087  0.2091  0.0106  0.1689
14563W        W30824  11.760  13.160   5.164  0.1503  0.1733 -0.2701
14564W        W30825   0.129  14.025   2.546 -0.0164 -0.0407 -0.2507
14565W        W30826   1.750   7.693   2.566  0.0273 -0.0270 -0.2020
14566W        W30827   5.430  10.474  12.281 -0.1973 -0.0594  0.0509
14567W        W30828   8.204  12.787  13.170 -0.3007 -0.2641  0.1744
14568W        W30829   2.800  17.604   2.465  0.2496  0.0991  0.0974
14569W        W30830   3.592   3.228   1.040 -0.2098 -0.0130 -0.1011
14570W        W30831   2.822   5.698   0.150 -0.1229  0.2872  0.2281
14571W        W30832  14.705   0.096   3.526 -0.0705 -0.0688  0.0816
14572W        W30833  16.410  14.045  12.466 -0.1934 -0.2604 -0.1397
14573W        W30834   0.079  16.062  13.862  0.0910  0.1674  0.0455
14574W        W30835   9.164   7.298  13.006 -0.1369 -0.1038 -0.0069
14575W        W30836   2.398   7.989   3.456  0.2154 -0.0756  0.2936
14576W        W30837   0.524  13.393   1.574 -0.1359  0.0068 -0.0196
14577W        W30838   7.676   2.431   6.305 -0.0955 -0.0793  0.0912
14578W        W30839  14.129  10.261  15.553 -0.1997  0.3122 -0.3130
14579W        W30840  16.165   1.363   0.277 -0.1833 -0.3737 -0.0484
14580W        W30841  17.015  17.567  13.873 -0.2107 -0.5679  0.1121
14581W        W30842   8.960   8.822   3.375 -0.3379  0.0769 -0.0102
14582W        W30843  11.176   6.925   0.281  0.1025  0.0166 -0.3793
14583W        W30844  11.842  10.911   3.266 -0.1064 -0.2321  0.2095
14584W        W30845   5.227   1.414  14.219  0.0379 -0.0202 -0.2092
14585W        W30846  15.125   6.233  15.574 -0.1500  0.0515  0.0626
14586W        W30847  14.052   1.888   6.948  0.0732  0.1089 -0.1024
14587W        W30848   8.313  13.209  15.185 -0.0441 -0.2240  0.0532
14588W        W30849   5.389   0.190   5.816 -0.0234  0.0006  0.0468
14589W        W30850   2.548  16.473  13.707 -0.0481  0.1129  0.0585
14590W        W30851  12.835  13.543   2.774  0.1028 -0.0315 -0.1578
14591W        W30852  17.456   5.477  12.372  0.3178 -0.0973  0.1249
14592W        W30853  17.321   4.009  14.286  0.1234 -0.1868 -0.0136
14593W        W30854   1.432  15.334   2.995  0.0276 -0.2502  0.2523
14594W        W30855   4.711   4.991  12.836  0.0202  0.0256 -0.4216
14595W        W30856  16.494  10.353  12.111 -0.1535  0.0938 -0.1496
14596W        W30857   8.618   9.863   0.601  0.1750 -0.0010  0.1116
14597W        W30858  10.593   6.306   5.261  0.0309  0.4194  0.0692
14598W        W30859   7.135   2.422   2.077 -0.0485  0.1146 -0.3039
14599W        W30860  16.804  14.723   3.460 -0.2799 -0.2114 -0.0918
14600W        W30861  14.323  13.829  14.832 -0.1062 -0.0679  0.5201
14601W        W30862   0.126   6.234   6.606 -0.0437 -0.4498  0.1828
14602W        W30863  16.309  12.226   4.880  0.0406  0.1163 -0.1418
14603W        W30864   5.523  15.614  14.221 -0.1266 -0.1596 -0.2207
14604W        W30865  14.936  16.312  15.273  0.0070  0.3835  0.1766
14605W        W30866  11.477  15.337  12.175  0.3195  0.1607  0.0805
14606W        W30867   5.374   1.026  12.676 -0.1250 -0.0448 -0.1286
14607W        W30868  15.612   8.211   3.457  0.0954  0.0820 -0.0554
14608W        W30869  10.048  11.858   3.690  0.0782  0.0194  0.2590
14609W        W30870   5.630  10.578  12.754 -0.0442 -0.2183  0.2246
14610W        W30871   3.554   4.891   5.444  0.0980  0.2833 -0.0311
14611W        W30872   1.917   1.693  16.241  0.2996  0.0061 -0.0559
14612W        W30873  10.486   5.682   1.407 -0.2064  0.0027  0.1186
14613W        W30874  16.048   3.860   4.849  0.1020  0.1890  0.0177
14614W        W30875  13.061  16.178  11.779  0.0184 -0.1058 -0.1120
14615W        W30876   1.854   9.214   4.357  0.0651  0.1925 -0.0254
14616W        W30877   1.100  10.465   0.897  0.1090 -0.0449  0.1860
14617W        W30878   0.718  10.652  12.302 -0.0860  0.0193  0.2768
14618W        W30879   5.450   3.531  14.087  0.1239  0.0010 -0.1905
14619W        W30880   8.373  13.964  16.336  0.0904  0.0805 -0.2304
14620W        W30881   5.958  12.970  16.948 -0.2221  0.0452  0.4207
14621W        W30882  12.852  16.509   1.244 -0.1264  0.1866  0.1201
14622W        W30883   8.768   0.878  12.083 -0.3125  0.1187  0.0645
14623W        W30884   9.949  12.709   0.321  0.3452 -0.0331  0.0749
14624W        W30885   2.132   9.951  12.726 -0.2574  0.0153 -0.0185
14625W        W30886   5.245  11.130  13.617  0.0252  0.1201 -0.1162
14626W        W30887   0.370  14.466  12.674 -0.2954  0.1511  0.0077
14627W        W30888   6.996  12.059   3.439  0.3717 -0.0547  0.1466
14628W        W30889   3.347   0.044   3.867 -0.0094 -0.2457  0.0423
14629W        W30890   3.792   1.917  13.171  0.1738 -0.0783 -0.3214
14630W        W30891  17.806  17.710  15.105  0.0746 -0.1326  0.1353
14631W        W30892   9.619   6.581   6.098 -0.0943  0.3187 -0.0628
14632W        W30893   4.265   7.131  16.528  0.2051  0.3787 -0.0707
14633W        W30894   5.155  15.277   3.200 -0.3408 -0.0828  0.0530
14634W        W30895   0.432  14.743  16.559 -0.2361 -0.1321  0.1573
14635W        W30896   9.498   4.803  16.069  0.0689  0.1335 -0.0380
14636W        W30897  10.257  16.539  13.594  0.0274  0.0060  0.1674
14637W        W30898  11.299   4.994  16.186 -0.1466  0.1917  0.1357
14638W        W30899   1.216   9.344  13.791 -0.0335  0.0065 -0.0189
14639W        W30900  12.715  17.180  11.868 -0.2296  0.1589  0.2952
14640W        W30901   6.722   1.251  12.232 -0.2237  0.1290  0.1127
14641W        W30902   9.857   9.459  12.655 -0.1670  0.0662  0.0918
14642W        W30903   2.254   7.478  14.033 -0.0738 -0.0538 -0.1406
14643W        W30904  15.280   6.812   2.419 -0.0625 -0.0229  0.0150
14644W        W30905   4.891   1.555   4.305  0.3156 -0.2044 -0.4235
14645W        W30906   2.250   3.896  13.402  0.0651 -0.0667 -0.2187
14646W        W30907   2.841   8.089   3.722 -0.2134 -0.0362  0.1468
14647W        W30908  14.718   3.737  14.873 -0.2289  0.1949 -0.1301
14648W        W30909  12.414  11.664   3.310  0.4716 -0.1399  0.1953
14649W        W30910  12.187   1.334  12.301 -0.1226  0.0021  0.0238
14650W        W30911   1.704  10.082  12.106 -0.3669  0.2051  0.1887
14651W        W30912   6.338   5.591  15.557 -0.1096 -0.0001  0.1544
14652W        W30913  16.856  11.947  12.148 -0.1731  0.0260  0.1472
14653W        W30914  10.506  12.763  12.846 -0.1421  0.0843 -0.1092
14654W        W30915  15.268   7.417  11.985 -0.0793 -0.1010 -0.0063
14655W        W30916   8.518  12.476   1.501 -0.0428 -0.2772  0.0244
14656W        W30917  15.843   6.738  12.962 -0.0204  0.3280 -0.1318
14657W        W30918  10.783  17.648   5.278 -0.0015  0.0588 -0.0318
14658W        W30919   5.201   4.797   3.684  0.1371 -0.0899 -0.1384
14659W        W30920   4.873   7.489   4.246 -0.0402 -0.0324 -0.3123
14660W        W30921   4.496   4.238  14.276  0.1410  0.0178  0.2748
14661W        W30922  17.376  15.495  11.949 -0.0011 -0.0136 -0.1323
14662W        W30923   7.764  14.585  16.774  0.1743  0.0680  0.0603
14663W        W30924   9.335   6.840  13.651 -0.2419 -0.2426  0.0445
14664W        W30925  12.451  13.493  16.501 -0.1552  0.0498 -0.0636
14665W        W30926   8.178   3.860  16.054 -0.1886  0.0064  0.0364
14666W        W30927   1.884   8.731   0.797  0.3123 -0.1800 -0.0460
14667W        W30928   6.561  11.415   2.944 -0.1551 -0.0209  0.2150
14668W        W30929  11.176   9.267   3.944  0.4763  0.1056  0.3454
14669W        W30930   6.582   5.381   2.568  0.0067 -0.3301  0.0708
14670W        W30931   4.334   5.063   2.715 -0.3384 -0.0115  0.1184
14671W        W30932  11.847  14.360  11.767  0.1861 -0.0584  0.2120
14672W        W30933   7.035   5.190  16.402 -0.0571 -0.0630 -0.1181
14673W        W30934  14.293   7.179  15.119 -0.1441 -0.0093 -0.1127
14674W        W30935   3.828   8.648  14.312  0.0929  0.1833  0.4648
14675W        W30936   3.134  17.814   2.084 -0.2141  0.2372 -0.0684
14676W        W30937   8.057   6.794  15.143  0.1906 -0.5472 -0.1520
14677W        W30938   9.778  12.747   4.682  0.0188  0.2964 -0.0297
14678W        W30939  16.177   1.867  16.485  0.4401 -0.0225  0.1748
14679W        W30940   8.731   9.600  14.429 -0.0976 -0.2601  0.2479
14680W        W30941  16.355   7.550   2.444  0.0052  0.0356  0.3173
14681W        W30942  15.309  14.720   5.662 -0.2139 -0.2553  0.1969
14682W        W30943   8.166   9.650   0.660 -0.2452 -0.1141  0.0725
14683W        W30944   4.945   2.358   1.100 -0.0885  0.0509  0.2985
14684W        W30945  13.062   5.520   4.516  0.1116  0.1515 -0.1157
14685W        W30946  15.653   3.556   3.649 -0.0636 -0.3082  0.0584
14686W        W30947  11.131  12.942   1.546  0.2017 -0.0314 -0.0612
14687W        W30948  12.671   5.306   4.943 -0.0739 -0.1599  0.2847
14688W        W30949   1.225  11.680  16.707  0.2586 -0.0858  0.0967
14689W        W30950   9.695   4.194   6.321 -0.0672 -0.0640  0.0124
14690W        W30951  14.241   2.028   4.566  0.1270  0.0543  0.0455
14691W        W30952  13.167  15.429  12.183  0.1253  0.0419 -0.1708
14692W        W30953  10.352   5.853  13.036 -0.0470  0.0613  0.0029
14693W        W30954   3.939   4.726   4.521 -0.2605  0.1137 -0.0717
14694W        W30955  11.630  15.930  13.818  0.1065 -0.2428 -0.2438
14695W        W30956   0.443  11.544   3.579 -0.1197  0.2532 -0.0516
14696W        W30957  16.195   2.453   2.863 -0.1803  0.0483  0.0647
14697W        W30958  10.873  11.837   3.143  0.1374  0.0221  0.4844
14698W        W30959  14.787  13.570  15.440  0.0775  0.3139  0.0996
14699W        W30960  12.253   5.246  13.966  0.0005  0.3471  0.1565
14700W        W30961   0.230  10.442  13.809 -0.0352  0.0817  0.0892
14701W        W30962  13.046  16.594   3.059 -0.1584 -0.1662 -0.0372
14702W        W30963   9.516  14.887  13.833  0.1472 -0.1311  0.2410
14703W        W30964   5.302   5.396   2.637 -0.0051 -0.0135  0.3257
14704W        W30965  16.471   1.732  11.953  0.0670 -0.0402  0.1828
14705W        W30966  12.719  17.499  13.305 -0.1421 -0.3217 -0.1311
14706W        W30967  16.735  12.498  16.342 -0.2846  0.0339 -0.1115
14707W        W30968   2.400   3.870   1.335 -0.0304 -0.0566 -0.0772
14708W        W30969  17.393  14.752   2.864 -0.1275  0.0613  0.1843
14709W        W30970   0.076   1.819  13.275  0.1145 -0.0500  0.1162
14710W        W30971  14.765   9.095  11.758  0.1004 -0.0120 -0.2449
14711W        W30972   3.844  12.579  12.068 -0.0008 -0.0173 -0.2276
14712W        W30973   0.609   6.182   5.406  0.0063  0.2268 -0.2291
14713W        W30974   6.933  13.228   4.317 -0.0284  0.0321  0.0268
14714W        W30975  14.881   2.677   0.917  0.3628 -0.1534 -0.2537
14715W        W30976  10.159   7.907   3.076  0.2163  0.0945  0.1203
14716W        W30977   3.228  15.145   1.485 -0.1010  0.1611 -0.2265
14717W        W30978   0.041   3.282   1.202 -0.0742 -0.0313 -0.1313
14718W        W30979  15.104   7.872   5.933  0.2951  0.3114  0.0002
14719W        W30980   5.543   9.248  12.895 -0.3584 -0.0829  0.1126
14720W        W30981   0.657   0.351   1.072 -0.1457 -0.1759 -0.3785
14721W        W30982   4.947  16.332   5.977  0.0006 -0.1059  0.1859
14722W        W30983   3.728   9.964   1.083  0.1710 -0.1210  0.0424
14723W        W30984  17.414  10.521   3.907 -0.0984  0.1839  0.1669
14724W        W30985  14.453   9.970   3.023  0.1208 -0.2107  0.0487
14725W        W30986   7.030   1.547  13.499  0.2438 -0.2734  0.0336
14726W        W30987   0.926  14.468  15.837  0.2307  0.0479  0.0262
14727W        W30988   1.933   9.043   4.881  0.0996 -0.0579 -0.1574
14728W        W30989  15.507   7.009  15.460 -0.1170  0.2227  0.2247
14729W        W30990   3.973   3.633  16.419 -0.1458 -0.0169  0.0844
14730W        W30991   7.935  13.193   4.428 -0.0266  0.2200 -0.0685
14731W        W30992   9.552  12.065  13.105  0.0316  0.1064  0.0470
14732W        W30993   3.186  15.026   3.809 -0.0968 -0.0263 -0.0489
14733W        W30994   4.224   2.619  14.441 -0.4309 -0.0716  0.0966
14734W        W30995  12.863   6.895  16.070  0.2190 -0.1673 -0.1938
14735W        W30996   1.388  10.755  12.230  0.2718 -0.1916 -0.1180
14736W        W30997   8.104  13.773   2.198  0.1061  0.0048  0.1110
14737W        W30998  13.716   0.976   0.416 -0.0562 -0.0227  0.2866
14738W        W30999  12.510   9.630   3.266  0.0491  0.2258  0.3347
14739W        W31000  10.849  16.209   2.540  0.0952  0.2758 -0.0128
14740W        W31001   5.292   3.120   6.195 -0.1186  0.2699  0.2871
14741W        W31002   6.315  16.955  16.368 -0.0098 -0.0077  0.1062
14742W        W31003   9.225   5.500   0.410  0.1402  0.3166  0.1807
14743W        W31004   3.894  11.769  15.692 -0.0630  0.1611 -0.2141
14744W        W31005   0.402  10.902   0.072 -0.1136  0.2458 -0.1671
14745W        W31006   2.631   8.140  11.530 -0.1681 -0.0086 -0.2337
14746W        W31007   6.321   4.563   5.026 -0.4335 -0.2426 -0.0055
14747W        W31008  10.503  15.109  15.945  0.0672 -0.0154  0.1565
14748W        W31009  11.348  14.670   3.374  0.2360 -0.1591  0.0273
14749W        W31010  14.873  14.181   2.151  0.0057  0.3201  0.0707
14750W        W31011   2.244   1.550   4.233  0.0174 -0.0179 -0.2732
14751W        W31012  13.839   4.192  12.739 -0.0613 -0.2196 -0.0901
14752W        W31013  16.471  12.357  16.815  0.1777  0.1897 -0.2453
14753W        W31014   0.506   3.140   4.477  0.1067 -0.0874 -0.0072
14754W        W31015  14.290  13.644  14.073  0.1831  0.0732  0.0058
14755W        W31016  13.328  14.029   0.598 -0.0029 -0.1748 -0.0960
14756W        W31017  14.643   2.426  14.948  0.0561  0.1474  0.4828
14757W        W31018   7.522  17.081  11.613  0.2129 -0.2067 -0.2459
14758W        W31019  15.036   1.657   5.730 -0.0862  0.0661  0.1912
14759W        W31020  10.673  15.880  15.817 -0.0724  0.0996  0.0920
14760W        W31021  13.043   1.091   0.134 -0.1356  0.1194 -0.2018
14761W        W31022  16.800  11.859   4.814  0.0013  0.5076 -0.1226
14762W        W31023   5.068   6.614  16.940  0.1375  0.2972  0.0621
14763W        W31024  12.281   8.293   3.119 -0.1021 -0.0214  0.0856
14764W        W31025   3.188   2.349   0.069 -0.0365  0.3142  0.0171
14765W        W31026  13.361   6.963   3.080 -0.0572  0.1117 -0.1061
14766W        W31027   6.625  17.342  16.878  0.1364  0.4219 -0.2807
14767W        W31028   6.806   7.453  16.755 -0.0484 -0.0653 -0.1432
14768W        W31029   0.995   6.170  11.820  0.1170  0.4553 -0.2085
14769W        W31030   2.992   2.142  16.060 -0.0375 -0.3240  0.0002
14770W        W31031   7.775  13.180   3.843 -0.2170 -0.1038 -0.0207
14771W        W31032  13.986  14.457   3.932  0.2047 -0.0357  0.1175
14772W        W31033  12.050  15.240  16.313 -0.3371 -0.0928  0.1105
14773W        W31034   3.613   8.090   1.594  0.3831 -0.1873 -0.0686
14774W        W31035  13.328  10.979  16.306  0.3756 -0.0822  0.1058
14775W        W31036   6.943   1.147   1.852  0.0290  0.0575  0.2462
14776W        W31037  11.679  16.337   5.618  0.1711  0.0953  0.1976
14777W        W31038   1.285  11.805  11.311 -0.1364 -0.1111 -0.3207
14778W        W31039   7.364   1.719  13.844  0.1104  0.0466 -0.2450
14779W        W31040   0.804   0.481   0.566  0.2598  0.1380 -0.0551
14780W        W31041  14.304  13.094  15.985 -0.2698  0.0471 -0.1788
14781W        W31042  16.924  12.339   2.875 -0.0197  0.0003 -0.1179
14782W        W31043  15.689  12.388   3.477  0.1078 -0.1463 -0.1491
14783W        W31044  13.661  13.799  13.772  0.0317  0.0114  0.2054
14784W        W31045  16.591   7.147   0.322 -0.0597 -0.0636  0.0353
14785W        W31046  17.412   6.016   0.331 -0.1641 -0.0658  0.4599
14786W        W31047   1.691   8.766  16.668  0.0896  0.0442  0.1593
14787W        W31048  15.158  15.374  14.416 -0.1632  0.0083 -0.0248
14788W        W31049   9.450   9.574   4.525 -0.0439  0.0421  0.2721
14789W        W31050   7.904   5.371   3.865 -0.3009  0.1450 -0.0019
14790W        W31051   8.643   2.453   0.119  0.1547 -0.1307  0.4408
14791W        W31052   7.963  10.861  13.857  0.2167  0.1842  0.0033
14792W        W31053   8.557   6.157   2.070 -0.1039  0.1276  0.1902
14793W        W31054  12.827  14.255  14.035  0.1551 -0.1341 -0.2247
14794W        W31055  10.773  10.630  15.927  0.1105  0.0683  0.2278
14795W        W31056  14.530  10.055   1.926 -0.1599 -0.1673 -0.3997
14796W        W31057   4.451   2.384  16.740 -0.1109 -0.0341  0.2420
14797W        W31058  16.137  15.490   4.638  0.1091 -0.0023 -0.1946
14798W        W31059   7.374   4.900  12.378 -0.2771  0.1465 -0.0750
14799W        W31060  17.142   6.142  13.152 -0.3489  0.0154 -0.1620
14800W        W31061   0.423   7.024   3.343 -0.0403 -0.0879  0.4209
14801W        W31062   8.157   3.907   2.889 -0.0470  0.2729 -0.1025
14802W        W31063   6.914  13.027   5.182  0.0935  0.2008 -0.1528
14803W        W31064   9.067   0.681   5.039 -0.2512  0.1995 -0.0070
14804W        W31065  11.923   0.165  14.161  0.0893  0.0621 -0.1194
14805W        W31066  10.708  15.526  15.171 -0.0766  0.0761 -0.0218
14806W        W31067  10.790  10.739  13.393 -0.0200 -0.0530 -0.0010
14807W        W31068   0.244  12.596  13.633 -0.1814 -0.0042 -0.1920
14808W        W31069   1.932   7.683   6.448 -0.3326 -0.0540 -0.0307
14809W        W31070  13.542   9.434  12.415  0.3720 -0.2419  0.0048
14810W        W31071   9.901   0.856   4.795 -0.1273 -0.0621 -0.0735
14811W        W31072  13.073   7.273  13.760  0.1277  0.2116 -0.0261
14812W        W31073   6.284  15.304  11.209  0.2297  0.1884 -0.1413
14813W        W31074   3.467   9.483   4.988  0.1618  0.0290  0.1628
14814W        W31075  10.091  16.367   4.558  0.1129  0.1157  0.0064
14815W        W31076   7.422  10.339   1.784 -0.0560 -0.0150 -0.0923
14816W        W31077   0.862  11.258   2.799 -0.1466 -0.2102 -0.0711
14817W        W31078   0.223   9.444   1.555 -0.0485  0.1452 -0.1703
14818W        W31079  15.456   5.241  15.042  0.1842 -0.1467  0.3076
14819W        W31080  17.032  16.997   6.308 -0.2696 -0.4230  0.0249
14820W        W31081  16.968  15.329   4.055 -0.0969  0.2864  0.1461
14821W        W31082   3.156   4.664   3.406  0.4561  0.1728  0.3124
14822W        W31083  15.283  10.693   2.090  0.0933 -0.1632 -0.1275
14823W        W31084   0.580   2.364   3.278 -0.1056 -0.0431  0.3358
14824W        W31085   5.760  10.913   3.199 -0.0340  0.1016 -0.0105
14825W        W31086   8.476  12.358  13.149 -0.1172  0.1295 -0.2841
14826W        W31087  11.492   8.044  13.109 -0.1687 -0.3203  0.0494
14827W        W31088   5.668  12.235  14.397  0.1348  0.1515  0.1424
14828W        W31089  10.120  12.293  16.025  0.1355 -0.1068 -0.0745
14829W        W31090   6.077   3.436   6.282  0.1600 -0.2486  0.4742
14830W        W31091   9.545  11.618  12.692  0.0221 -0.0789 -0.1391
14831W        W31092   1.661  11.309   3.973  0.0832 -0.1158  0.3509
14832W        W31093  13.795   3.548   2.975  0.0971 -0.3807  0.3057
14833W        W31094   5.589  10.294   2.306  0.4315  0.1888  0.3018
14834W        W31095  12.845   5.500   1.207  0.1542 -0.4291  0.1406
14835W        W31096   3.373  11.257  16.252  0.1229 -0.0281 -0.0361
14836W        W31097  15.629  13.203   4.106 -0.1329 -0.1306  0.2018
14837W        W31098   7.631   1.745  13.332 -0.0882  0.1784 -0.2089
14838W        W31099  10.328   3.220  12.980  0.1622  0.5999 -0.2607
14839W        W31100   9.108   3.110   2.265  0.1779 -0.0667 -0.0252
14840W        W31101   2.272   7.450  16.929  0.0281 -0.1734 -0.3354
14841W        W31102  16.927  15.196   4.671 -0.1270  0.0523 -0.2694
14842W        W31103   7.132  12.683   0.284 -0.1037  0.0547 -0.3555
14843W        W31104  12.956  13.600  12.867 -0.0120  0.0186 -0.1233
14844W        W31105   8.077   4.086   0.051  0.0367 -0.1796 -0.1739
14845W        W31106   6.607   6.248   4.969 -0.2581  0.0171  0.1121
14846W        W31107  14.762  11.014   4.344  0.1569 -0.2277 -0.1030
14847W        W31108   6.261   2.474   3.298  0.0922  0.0409 -0.0710
14848W        W31109  16.222   0.397  11.840 -0.0067  0.0392  0.0502
14849W        W31110  14.304  17.788  13.718  0.2333 -0.0000 -0.0298
14850W        W31111   8.763   8.012  16.165  0.0165 -0.0834  0.0756
14851W        W31112   3.859   4.285   2.517  0.3895 -0.1677  0.1133
14852W        W31113   8.646   4.209  15.368 -0.1379 -0.0506  0.0035
14853W        W31114   9.998  16.234   5.407 -0.0133  0.2642 -0.0191
14854W        W31115  12.493   2.219   4.702  0.0541  0.2126 -0.2982
14855W        W31116   3.454   8.781  15.041  0.4473 -0.2408  0.1083
14856W        W31117   9.031  17.795   1.444 -0.1891  0.0511 -0.1486
14857W        W31118   6.900  15.234  15.569  0.1153  0.1271  0.0582
14858W        W31119   0.920   0.880  15.759 -0.0369 -0.2142  0.2116
14859W        W31120   6.324   5.043  15.747 -0.1478  0.1707  0.0676
14860W        W31121   5.257  11.652   5.261 -0.4177  0.2364  0.0481
14861W        W31122   7.409   4.236   0.219  0.3502 -0.0394 -0.0426
14862W        W31123   7.043  14.045   3.780 -0.0577  0.3495 -0.1458
14863W        W31124   1.507  14.097  13.978  0.1102 -0.0957  0.0627
14864W        W31125  16.221  16.573   6.051 -0.1544  0.1643 -0.0017
14865W        W31126   5.186   8.339   1.783 -0.0371 -0.0466  0.1196
14866W        W31127   3.026   8.040   4.940 -0.1940  0.0005  0.0975
14867W        W31128   3.404  14.410   5.341 -0.1976  0.1920  0.2176
14868W        W31129   7.868   4.081   5.034 -0.2244 -0.2637  0.0230
14869W        W31130  14.670   8.185  11.697 -0.2620 -0.1103  0.2718
14870W        W31131  15.285  16.208   5.985  0.1240  0.2033  0.2317
14871W        W31132   9.202   1.434   3.692  0.0500  0.0778  0.1981
14872W        W31133   1.329  13.559  14.838  0.0033 -0.1504 -0.4068
14873W        W31134  12.176  14.295   1.318  0.2738  0.0813 -0.1227
14874W        W31135   3.348   5.783  13.966 -0.1838  0.1733  0.3018
14875W        W31136  11.214  13.102  12.276 -0.1989 -0.0995  0.1389
14876W        W31137   9.399   0.813  11.289  0.0729  0.1188 -0.0729
14877W        W31138   1.146  16.895  16.094  0.2796 -0.4464 -0.3208
14878W        W31139  13.411   4.987  12.668  0.1341 -0.0620 -0.0612
14879W        W31140  13.815   6.845  11.859 -0.0742  0.0263  0.0471
14880W        W31141  15.778   5.071  13.577 -0.0684 -0.0414  0.1382
14881W        W31142   2.443   9.707   4.396  0.1041 -0.0675 -0.1735
14882W        W31143  17.511  11.216   1.275 -0.3900  0.2326  0.3911
14883W        W31144  12.002   1.003  11.672 -0.1371  0.1408  0.1998
14884W        W31145  15.060   7.926   1.810 -0.0292 -0.0619  0.1068
14885W        W31146  13.336   1.888   0.446 -0.2598  0.0989 -0.0894
14886W        W31147  12.123  14.871   0.318 -0.2148  0.3872 -0.2455
14887W        W31148   4.767  11.732   4.611  0.3519  0.0250  0.2761
14888W        W31149  12.404   2.797   3.418 -0.0055  0.0510  0.1364
14889W        W31150  15.969  10.347  12.283 -0.1550 -0.1271  0.2625
14890W        W31151   0.895   1.067   2.434 -0.0921  0.2586  0.1889
14891W        W31152   1.513  16.859  13.161 -0.2253 -0.0147 -0.1049
14892W        W31153   4.138  12.197   3.305  0.1664  0.1242  0.1859
14893W        W31154  16.587  13.121  13.237 -0.0161 -0.2255 -0.0882
14894W        W31155   1.995   7.037   0.176 -0.0434 -0.3034 -0.0461
14895W        W31156   7.496   1.567   0.002 -0.1700  0.1397 -0.2573
14896W        W31157   6.531   1.314  15.502 -0.1956  0.0343 -0.3201
14897W        W31158   5.928  11.627   0.584 -0.2779  0.2895  0.2940
14898W        W31159  17.858  11.787  14.938 -0.0914 -0.0809 -0.4505
14899W        W31160  15.644  15.670  15.106 -0.1443 -0.0268  0.1587
14900W        W31161  11.436   6.486   0.042  0.0865 -0.0531 -0.4632
14901W        W31162  14.989  16.317  13.629 -0.0012 -0.4967  0.0380
14902W        W31163  16.022   6.836  15.334 -0.1361 -0.0451  0.2450
14903W        W31164  12.888  14.507  14.503 -0.0623 -0.1161  0.2325
14904W        W31165   8.000  15.546  12.608  0.0106  0.0659  0.0590
14905W        W31166  15.183   6.000  13.431 -0.2624 -0.0877 -0.0493
14906W        W31167   0.914   3.929  13.492 -0.2882  0.0956  0.1788
14907W        W31168   4.775   8.702   0.398  0.1658 -0.2285  0.0707
14908W        W31169  12.921   6.895   2.687  0.3076  0.0766 -0.0258
14909W        W31170  13.080  14.489   3.656  0.0778 -0.2832 -0.3163
14910W        W31171   4.898  14.172   3.807  0.0582 -0.3135 -0.1282
14911W        W31172  11.150  14.280   4.734 -0.2176  0.0260 -0.1022
14912W        W31173   3.991   7.624   5.987 -0.1842  0.2469 -0.0191
14913W        W31174  12.290   7.627  15.236 -0.0569 -0.2083  0.0185
14914W        W31175   7.571   6.513   2.044  0.0793 -0.0361 -0.1841
14915W        W31176  13.698  11.560   4.341  0.2483  0.0342  0.0610
14916W        W31177   3.145   7.224  14.257  0.1653 -0.4132  0.2366
14917W        W31178  17.470   0.711  14.158 -0.0881  0.0431  0.0765
14918W        W31179   8.380  12.628  13.957 -0.0850 -0.2800 -0.4105
14919W        W31180   1.917   2.474   3.375  0.0904 -0.2963  0.0035
14920W        W31181  16.850  17.652  14.343  0.0322 -0.3152 -0.1947
14921W        W31182  17.280   7.820   4.683  0.0767  0.1297 -0.1118
14922W        W31183  14.665  16.840  14.030  0.0907 -0.2887  0.0359
14923W        W31184  11.768   6.127  16.195 -0.0200  0.2845 -0.1712
14924W        W31185   6.449  17.479   0.824  0.2343  0.1647 -0.0429
14925W        W31186   3.012   3.847  15.798  0.1609  0.0827  0.0171
14926W        W31187  17.795   4.876  15.515  0.0532  0.0158 -0.1530
14927W        W31188  15.061   6.548  16.807 -0.0280 -0.1343 -0.1145
14928W        W31189   0.401  15.047  16.952 -0.0316  0.3248 -0.0220
14929W        W31190  13.916   6.774   3.914  0.0723 -0.0622  0.2360
14930W        W31191   1.879   3.579   6.165 -0.0769 -0.0878  0.2589
14931W        W31192   4.763  16.765   0.949 -0.2268  0.1291  0.2648
14932W        W31193   5.833   7.420   3.764 -0.1574  0.0903 -0.1038
14933W        W31194  10.900  11.181  14.724 -0.0992  0.0455  0.3990
14934W        W31195   0.387  13.181   5.399 -0.2846 -0.1825  0.0535
14935W        W31196   3.168  17.609  16.231  0.1299 -0.1241  0.1582
14936W        W31197   2.016   7.124   5.137 -0.0206 -0.2257 -0.0981
14937W        W31198   2.422   6.308  15.552 -0.1899 -0.0603  0.0430
14938W        W31199  13.666  12.006   0.852 -0.1531  0.1272 -0.1605
14939W        W31200   9.740  11.035   2.131 -0.3521  0.0421 -0.2044
14940W        W31201  10.483   0.702  14.379  0.0269 -0.0165  0.0270
14941W        W31202   2.182   6.397   0.863  0.0925  0.3496 -0.1121
14942W        W31203   1.047   0.880  16.228  0.1567 -0.0362  0.3121
14943W        W31204   3.216  16.701  12.024 -0.2828  0.2007 -0.1083
14944W        W31205   2.414   2.715   4.084 -0.1381  0.0865 -0.1359
14945W        W31206  17.329   3.110  14.241  0.1064 -0.0064  0.2096
14946W        W31207  16.039  12.864  15.598 -0.3423 -0.2187 -0.0460
14947W        W31208   7.502  16.300   0.453  0.0983 -0.2391 -0.2516
14948W        W31209  13.974   1.790   3.734  0.1687 -0.0941 -0.0800
14949W        W31210   0.828   7.204   0.105 -0.0076 -0.1924 -0.0978
14950W        W31211   4.556  11.947  14.718  0.0084  0.0948  0.1932
14951W        W31212  15.996   7.418   5.594 -0.2159  0.0068  0.1911
14952W        W31213   7.651   8.918   5.893  0.1812  0.1103 -0.0242
14953W        W31214   7.165  10.884  13.165  0.1835 -0.2550  0.0257
14954W        W31215  15.689  16.567  14.248 -0.0455  0.1500 -0.2346
14955W        W31216  16.010   2.125   4.289 -0.0863  0.0949  0.0146
14956W        W31217  17.358  15.257   4.943  0.2204  0.0237  0.2100
14957W        W31218  16.232  13.752   2.609  0.3371 -0.2574  0.0926
14958W        W31219  12.234  17.125  16.038 -0.2214  0.1516  0.3937
14959W        W31220   8.346  11.367  11.219 -0.0446 -0.1937 -0.0482
14960W        W31221  12.759   6.406   2.983 -0.0326 -0.0203 -0.1645
14961W        W31222  11.189   7.114  12.663 -0.1691  0.0941  0.1922
14962W        W31223  15.938   1.241  13.446 -0.3626 -0.1642  0.1037
14963W        W31224  13.361   6.267  15.776 -0.0615 -0.0462  0.0541
14964W        W31225  11.629   6.599   3.596 -0.0797  0.0058  0.0357
14965W        W31226  14.071   7.896  12.799  0.0865 -0.0129  0.2803
14966W        W31227  12.493   6.859   6.736 -0.4327 -0.2269  0.0033
14967W        W31228   3.208   1.712  14.756  0.3408  0.0359 -0.0164
14968W        W31229   2.386  16.920  13.133 -0.2397  0.1813 -0.0472
14969W        W31230  12.157   2.923  11.647 -0.1204 -0.1064 -0.0217
14970W        W31231   4.399  12.918   3.525  0.2538  0.3961  0.2181
14971W        W31232   2.956  16.133  13.883  0.1408 -0.4845 -0.2756
14972W        W31233  12.337   8.337   4.031  0.0779 -0.0214  0.3949
14973W        W31234  16.699   9.921  12.238 -0.0159 -0.1367 -0.3378
14974W        W31235   1.922   1.225  12.162 -0.0688  0.1007  0.0837
14975W        W31236   7.272  16.265   1.404  0.0240 -0.2610 -0.0890
14976W        W31237  17.601  10.392   6.405 -0.0415  0.0216  0.2010
14977W        W31238  16.572   2.536  11.491  0.2655 -0.0550  0.0903
14978W        W31239  15.319  15.252  13.289 -0.1985 -0.3128  0.1287
14979W        W31240   8.216   4.861  15.219 -0.1069 -0.0657  0.0931
14980W        W31241  12.335   7.690  16.163  0.2716  0.1136 -0.2403
14981W        W31242   8.860  14.528  12.851  0.4042  0.1606 -0.2854
14982W        W31243   8.613   2.080  15.436 -0.0052  0.1489  0.1411
14983W        W31244  12.462  16.281   1.462 -0.2786 -0.0292  0.1267
14984W        W31245   3.010   1.350   6.159  0.0462  0.0863 -0.2977
14985W        W31246   4.658  13.698   5.508 -0.1067  0.0807  0.0633
14986W        W31247  14.709   2.151   5.896 -0.0151  0.0268  0.0609
14987W        W31248  10.256  10.724  13.091 -0.1476 -0.0877 -0.3297
14988W        W31249   9.195  16.859  16.361  0.2816  0.0695  0.0194
14989W        W31250   4.543  12.834   0.640 -0.0460  0.2458 -0.0944
14990W        W31251   4.177   6.994   4.065  0.3132  0.3409  0.0687
14991W        W31252   5.563  16.476  15.856 -0.0419  0.2018 -0.0521
14992W        W31253  17.500   4.127  12.474 -0.1227 -0.0228  0.1507
14993W        W31254   0.111  11.756  15.940 -0.1163 -0.0117 -0.0340
14994W        W31255   9.813  13.607   2.984 -0.0298 -0.2038  0.0395
14995W        W31256  10.669  12.795   1.345 -0.1084  0.2995  0.1049
14996W        W31257  14.753   8.852   1.680  0.2099 -0.0516  0.0116
14997W        W31258   2.850  17.434   3.185 -0.0163 -0.1019  0.1293
14998W        W31259   6.176  13.633  13.396  0.0481 -0.3966  0.1312
14999W        W31260   7.369  16.534   4.939 -0.1461 -0.0123  0.1566
15000W        W31261   2.575   0.609   0.635  0.0768 -0.1888  0.0253
15001W        W31262   0.645  11.264  13.364  0.0261  0.2936  0.1495
15002W        W31263  16.840   9.927  12.774 -0.0061  0.1572  0.3483
15003W        W31264  14.286  12.193   0.098 -0.0135 -0.0814 -0.1049
15004W        W31265  15.729   5.466  12.715 -0.1734 -0.2512 -0.1982
15005W        W31266  13.798   8.919  16.962  0.2434 -0.1107  0.2848
15006W        W31267  10.719  12.522   0.263 -0.2859  0.0356 -0.1658
15007W        W31268   1.929  14.413   4.386  0.2428  0.0141  0.1543
15008W        W31269   5.415  16.538   0.509  0.1260 -0.1740 -0.0536
15009W        W31270  15.278   1.448   5.274  0.1605 -0.1760 -0.3682
15010W        W31271   8.780   4.364   2.290 -0.2149  0.1224  0.0770
15011W        W31272  15.080   8.521  11.896  0.2558  0.0165  0.0494
15012W        W31273   6.301   5.793   1.263  0.0367  0.1550 -0.1527
15013W        W31274  12.156  14.940  13.743  0.1112 -0.0863 -0.1214
15014W        W31275  16.868  14.498   5.652 -0.1442 -0.1688  0.1288
15015W        W31276  10.280   8.578  15.559  0.0962  0.2787 -0.2561
15016W        W31277   7.497  10.902  11.572 -0.0978  0.1261 -0.3611
15017W        W31278  12.230   6.924   4.836  0.2310 -0.2113 -0.0049
15018W        W31279  12.072  16.385  12.706 -0.0361 -0.0989  0.2323
15019W        W31280   8.901   6.879  15.369  0.2018 -0.1185  0.0273
15020W        W31281  16.403   9.708   3.588  0.1567  0.0309 -0.0333
15021W        W31282   2.735  16.579  11.978  0.1943 -0.2274  0.1889
15022W        W31283   0.213   8.816   3.179 -0.2961 -0.0281  0.0942
15023W        W31284   0.299   8.223  11.992 -0.4281  0.1643  0.0432
15024W        W31285  13.079  13.939   5.458  0.2450  0.0120 -0.0350
15025W        W31286  10.353   2.156  16.713  0.0813 -0.0256  0.0170
15026W        W31287  16.285   8.961  15.250  0.0154 -0.1303  0.0180
15027W        W31288  12.303   5.668  14.323  0.0168  0.1856 -0.1889
15028W        W31289   9.142   9.308  12.352 -0.1064 -0.0872 -0.1854
15029W        W31290   6.130   0.525   4.649  0.1888 -0.1161  0.0736
15030W        W31291   0.934  10.349  14.264 -0.0758  0.2285  0.1614
15031W        W31292   9.250  10.657  12.751 -0.2226 -0.1529  0.0949
15032W        W31293  16.339  16.223  15.531  0.0703  0.1200  0.0463
15033W        W31294   2.084   6.545  13.627 -0.1489  0.2646 -0.0405
15034W        W31295   9.541  15.707  12.199  0.0142  0.0661  0.0892
15035W        W31296  16.227  11.452  15.803  0.1719  0.1012  0.1063
15036W        W31297  15.920  17.353   0.145  0.0606 -0.1987 -0.2142
15037W        W31298   0.904  14.667  14.165 -0.4139 -0.1748 -0.0502
15038W        W31299  10.125  14.655   3.758 -0.2967 -0.2044 -0.3267
15039W        W31300  13.557   1.321  12.440 -0.1964 -0.0273  0.2782
15040W        W31301  14.810  17.114   4.698 -0.1896 -0.1681  0.0920
15041W        W31302   2.482   5.728   5.903 -0.2346 -0.4300 -0.2124
15042W        W31303  11.048  10.413   0.833  0.1308  0.1405  0.1914
15043W        W31304   7.488  11.567  12.822  0.1033 -0.1473 -0.2321
15044W        W31305  12.405  17.556  15.375  0.0467  0.2082  0.1693
15045W        W31306   4.070   6.146   0.635  0.0115  0.0529  0.1511
15046W        W31307   0.363  17.805  15.384 -0.0438 -0.1357  0.1543
15047W        W31308   6.750   4.215  13.809  0.1639  0.0173  0.0411
15048W        W31309   6.366   7.194  14.572  0.0193  0.0067  0.2878
15049W        W31310   9.299   2.303  16.518 -0.0723 -0.0292  0.0098
15050W        W31311  13.220   9.401   0.004 -0.0667 -0.0892 -0.1047
15051W        W31312   6.161   3.829  15.947 -0.2127 -0.1094 -0.0264
15052W        W31313  17.860   1.284   4.927 -0.3782 -0.0299 -0.0078
15053W        W31314  10.766   0.227   0.300  0.0853 -0.1665  0.3420
15054W        W31315   7.667   3.916  15.341  0.0705  0.2504  0.1215
15055W        W31316   6.023   7.454   0.225  0.0204  0.2884  0.2214
15056W        W31317   7.964   9.127   0.747  0.2444  0.0285  0.0903
15057W        W31318   2.186  13.063   3.322  0.3557 -0.0434  0.2736
15058W        W31319   5.856   7.941   2.858 -0.1105 -0.0315 -0.0411
15059W        W31320  16.846   3.103  14.223  0.1192  0.0196  0.0310
15060W        W31321   3.055   2.156   2.729  0.0473 -0.0770 -0.1123
15061W        W31322  12.988  15.418  15.409 -0.1883  0.2104  0.3445
15062W        W31323  12.093   7.554   0.696 -0.0843 -0.0149  0.1137
15063W        W31324  15.808   1.228  14.843  0.1028  0.1220 -0.1242
15064W        W31325  13.188   4.714   3.062 -0.1354 -0.0815  0.0473
15065W        W31326  17.582   6.782  10.702 -0.0526  0.1169 -0.1587
15066W        W31327  16.923  13.868   1.564  0.0765 -0.0281  0.1241
15067W        W31328  16.600   2.707  13.803  0.1739  0.0895  0.1965
15068W        W31329   8.457  15.186   0.487  0.1244  0.1848 -0.1496
15069W        W31330   8.574   0.069  16.896 -0.0016 -0.0113  0.3365
15070W        W31331   2.162  14.930  16.590 -0.1852  0.0402 -0.0407
15071W        W31332   1.441   1.253  16.222  0.0918 -0.0754  0.1192
15072W        W31333   8.272  11.260   2.617  0.0723 -0.2410  0.0399
15073W        W31334  14.457  11.137   3.894  0.0487  0.2452 -0.0647
15074W        W31335   5.537   4.089  13.177 -0.0515  0.0844  0.1027
15075W        W31336   8.439  10.126  12.678 -0.1733 -0.0528 -0.0053
15076W        W31337   7.594   6.043  11.968 -0.1131 -0.1516  0.1531
15077W        W31338  15.597   0.730   4.265 -0.1442 -0.3931  0.2095
15078W        W31339  16.627   0.814  15.963 -0.1457 -0.3315 -0.2027
15079W        W31340   2.009  16.515   2.754 -0.1855  0.2361 -0.1352
15080W        W31341  13.247   1.185   0.594 -0.0863  0.1390  0.1978
15081W        W31342  13.739   7.195  16.456  0.0984 -0.0657  0.1803
15082W        W31343   4.539   3.376  16.360 -0.0935 -0.3109 -0.1075
15083W        W31344  14.312   1.240  13.534 -0.1408 -0.2297 -0.0619
15084W        W31345   5.425  12.092   0.935 -0.1832 -0.1233 -0.1018
15085W        W31346   7.748   2.769  11.759  0.1295  0.0800  0.2540
15086W        W31347   9.500  10.163  15.187  0.0371  0.0320 -0.1174
15087W        W31348   7.111   3.709  12.759 -0.1605 -0.0070  0.0788
15088W        W31349   3.253   5.902  12.885 -0.1080  0.0106  0.2963
15089W        W31350   6.576   4.853   5.380 -0.1511  0.2156  0.1712
15090W        W31351   0.502   4.833   2.808  0.0522  0.0412  0.0567
15091W        W31352   8.845  10.327   0.631 -0.0032 -0.4377  0.1074
15092W        W31353  14.482   5.009   0.083  0.0596  0.1573  0.0993
15093W        W31354   6.617  12.148   1.610 -0.0119 -0.1987  0.2976
15094W        W31355  14.213  10.983  12.524 -0.3128  0.0751  0.2000
15095W        W31356  11.258   7.381   4.090  0.0094  0.1833 -0.3107
15096W        W31357   5.934  13.752   4.526  0.3299 -0.1260  0.0486
15097W        W31358   7.476   9.730  11.964  0.0913 -0.2614  0.3610
15098W        W31359   0.226  17.680  16.902 -0.0666  0.1732 -0.0203
15099W        W31360   7.303  13.162   2.126 -0.0039  0.3048 -0.3762
15100W        W31361   8.622   8.652   2.954  0.1225  0.1787 -0.2462
15101W        W31362  10.102   0.908  12.801 -0.0137  0.0152 -0.0589
15102W        W31363  17.819   6.790  14.821  0.1290 -0.1752 -0.3271
15103W        W31364   8.234   9.271   0.334 -0.2432 -0.1447 -0.3253
15104W        W31365  14.408  15.841  15.813 -0.0998 -0.1598 -0.0176
15105W        W31366  10.994  17.763  15.433 -0.0586 -0.0226  0.0629
15106W        W31367   3.844  14.542  13.504 -0.0055  0.0304  0.3858
15107W        W31368  10.119  10.344   0.653 -0.1998  0.1028 -0.3473
15108W        W31369   5.795  13.088   1.074 -0.0071  0.2516  0.4951
15109W        W31370   4.767  11.641   6.218  0.4054  0.1616  0.1158
15110W        W31371  13.135   2.923   4.338 -0.0207 -0.0725  0.4147
15111W        W31372  11.191   3.018   5.556  0.0443 -0.0219  0.2697
15112W        W31373   5.244  10.197   4.725  0.1533 -0.1055 -0.2338
15113W        W31374  13.165  17.077  14.540  0.1314 -0.0977  0.1793
15114W        W31375  15.573  17.491   1.455  0.2114 -0.1178 -0.1026
15115W        W31376  12.388  15.675  12.618  0.0967  0.0237  0.3935
15116W        W31377  15.982   5.172   1.354  0.1852  0.0038 -0.1659
15117W        W31378  13.092  17.487   0.555 -0.0842 -0.0978  0.2663
15118W        W31379   3.536  16.096  16.514  0.0540 -0.1767 -0.1773
15119W        W31380   6.195  15.127  12.463  0.0743 -0.0985  0.1168
15120W        W31381   7.684   4.923  13.340 -0.3675 -0.1494  0.0539
15121W        W31382   9.899   4.625   1.706 -0.1179  0.1162 -0.0692
15122W        W31383   0.662  10.673   0.583 -0.2288  0.1098  0.1470
15123W        W31384   1.110  13.082   1.918  0.0889 -0.0165  0.2520
15124W        W31385   7.212  14.819   1.221 -0.1697  0.1031 -0.3477
15125W        W31386   0.489   2.484   3.715 -0.0980 -0.1551  0.1811
15126W        W31387   1.122  14.785  14.608  0.2179  0.2923  0.2698
15127W        W31388  11.753   4.788   4.922  0.3319  0.0696 -0.0099
15128W        W31389  11.897  11.837   0.310 -0.2153  0.1027  0.3596
15129W        W31390  15.532  10.827  12.958  0.0926 -0.0798  0.2141
15130W        W31391   4.034  16.482  15.680 -0.2902  0.1038  0.2034
15131W        W31392   5.734  11.177   1.810  0.0034  0.4789  0.0460
15132W        W31393   5.727  11.033  10.524  0.2110  0.1801 -0.1201
15133W        W31394  17.503  10.567   2.268 -0.2846 -0.0297 -0.1313
15134W        W31395   9.547  11.178   5.143 -0.2031 -0.1509  0.0210
15135W        W31396   8.674  15.356  14.407 -0.1638 -0.0101 -0.0802
15136W        W31397   7.844  15.750   2.124  0.1084 -0.1114  0.1952
15137W        W31398   1.361  17.450   5.726 -0.0609  0.1164 -0.4859
15138W        W31399   9.347   0.916   3.586 -0.0095 -0.0386 -0.0731
15139W        W31400   1.118  16.484   2.127 -0.1049  0.0351 -0.0537
15140W        W31401  12.034   4.789   1.446  0.3357  0.1008 -0.1183
15141W        W31402   1.444   7.445   0.210  0.0497  0.1669  0.1052
15142W        W31403   2.588   5.288  14.413 -0.1400  0.0923  0.1165
15143W        W31404  14.671   9.095  13.124  0.1675 -0.1243  0.2676
15144W        W31405   0.241  13.292   6.734 -0.0365 -0.0463  0.0192
15145W        W31406   8.817  10.502   4.683  0.2340 -0.2007 -0.2410
15146W        W31407  10.266   8.162  13.329 -0.0254 -0.1905 -0.0340
15147W        W31408   2.790   1.057  16.052  0.2247  0.0672  0.2433
15148W        W31409   2.861   6.484   1.478 -0.4522 -0.0120  0.0812
15149W        W31410   8.621   1.042  13.633  0.0171 -0.3090 -0.1268
15150W        W31411   3.626   0.234  14.378 -0.0640 -0.1262  0.0504
15151W        W31412   4.553  15.950   0.283  0.0110  0.1801  0.0206
15152W        W31413   8.218   2.725   3.881 -0.3792 -0.1214  0.2576
15153W        W31414   7.197   3.014  14.104 -0.0867  0.0548  0.1880
15154W        W31415   1.729   6.682  15.170 -0.4813  0.2789 -0.1965
15155W        W31416   9.830   0.470  12.990  0.1032  0.0718 -0.0724
15156W        W31417  14.558   6.940  14.249  0.2559  0.0692  0.1975
15157W        W31418  15.376   6.894   1.665 -0.0554 -0.2020  0.0604
15158W        W31419   4.279   3.775  13.169  0.1383  0.2755  0.1994
15159W        W31420   1.248   0.327  12.655  0.0831 -0.0317  0.1691
15160W        W31421  10.410  16.345   1.900  0.1497 -0.0138  0.1869
15161W        W31422   4.368   7.901  12.192  0.1863 -0.0045 -0.2030
15162W        W31423   6.199   4.575   2.775 -0.3514  0.1820 -0.0642
15163W        W31424   9.396   4.367  14.275 -0.0624 -0.0518 -0.1220
15164W        W31425  10.768  13.947  14.288 -0.1959  0.2304 -0.1852
15165W        W31426   3.865  14.536   5.614  0.1460  0.1032  0.0029
15166W        W31427  12.679  14.558   5.848  0.1913 -0.1602 -0.0976
15167W        W31428   1.081   5.950  13.287 -0.0451  0.0291 -0.0713
15168W        W31429   7.983   3.219   0.503 -0.0070 -0.0048  0.0867
15169W        W31430  14.629  11.881  13.390 -0.3946  0.0201  0.3786
15170W        W31431   6.439  13.331  14.145 -0.2746 -0.2866 -0.3626
15171W        W31432   5.462  17.440   0.775  0.1857  0.0123  0.2429
15172W        W31433  16.319  11.292  13.126 -0.0793 -0.0639  0.0419
15173W        W31434   7.878   3.610  16.496 -0.0297  0.1825  0.2240
15174W        W31435   8.475   0.300  16.061 -0.0667 -0.1155  0.0483
15175W        W31436   6.041   0.678   0.221 -0.0287  0.1789  0.0182
15176W        W31437  10.518  15.472   4.747 -0.0939  0.3535  0.0845
15177W        W31438   0.177  13.129  16.235 -0.0057 -0.1419  0.1177
15178W        W31439  15.821  10.598   1.768 -0.0265 -0.0323  0.2345
15179W        W31440  15.800   1.537  13.891  0.0418 -0.1643 -0.3654
15180W        W31441  15.976   2.229   5.861  0.0444 -0.0106  0.0549
15181W        W31442   3.671   1.839  15.699  0.1465 -0.2557  0.2827
15182W        W31443  17.734  12.414  15.654  0.0687 -0.2517  0.1443
15183W        W31444  17.530   3.991  16.512  0.2208 -0.1906  0.0027
15184W        W31445  15.939   0.941   4.583 -0.1859  0.0742 -0.0543
15185W        W31446   4.959   2.791  16.825  0.1423 -0.1533  0.1578
15186W        W31447  15.853   0.013  15.401 -0.2936 -0.1859  0.3082
15187W        W31448   9.378  14.019  14.432  0.0458 -0.0353  0.0139
15188W        W31449   8.049   0.677   3.546  0.3381 -0.0403  0.1358
15189W        W31450   8.947  12.153   2.058 -0.0875  0.3042  0.0873
15190W        W31451  13.069  15.642  11.764  0.0788 -0.0101  0.1144
15191W        W31452   6.416   7.588  10.925 -0.1086 -0.2737 -0.2044
15192W        W31453  17.012  13.462   0.387  0.1577 -0.1898  0.2424
15193W        W31454   8.182   4.994   5.067 -0.2286 -0.0424 -0.1567
15194W        W31455  12.692   4.106  15.372  0.2150  0.0351 -0.1606
15195W        W31456  17.318  15.210  16.828  0.2085 -0.2025 -0.2235
15196W        W31457  11.352   5.078  12.764  0.0090  0.1319  0.0238
15197W        W31458   8.654   0.225  14.603 -0.1312  0.0591  0.0406
15198W        W31459   7.578   0.254   3.311  0.0324 -0.3726  0.0566
15199W        W31460  17.731   8.089  11.840 -0.0831  0.0347  0.3034
15200W        W31461   8.032   7.148  13.775 -0.0159  0.2532  0.1666
15201W        W31462  11.622  10.460  11.846  0.1648 -0.0592 -0.1692
15202W        W31463  14.596   6.745   1.034  0.3214 -0.3017 -0.0569
15203W        W31464  11.872   5.127  13.651  0.0448 -0.2325  0.2640
15204W        W31465   7.613  14.173  13.569  0.1145  0.1103  0.2977
15205W        W31466  16.050  13.299  15.728 -0.1887 -0.1125 -0.2266
15206W        W31467  17.236   0.193   4.344  0.0510 -0.3012  0.2436
15207W        W31468  15.421   2.165   3.437 -0.2564  0.0726  0.2136
15208W        W31469  16.984   8.531  16.380 -0.2327 -0.0230  0.0370
15209W        W31470   6.993   7.000   1.559 -0.2258 -0.3763  0.3259
15210W        W31471  15.975   3.128  14.924  0.1079  0.2130  0.2169
15211W        W31472   3.403  16.379   2.807  0.2202 -0.0773  0.0168
15212W        W31473   5.228  16.753   5.320  0.0902  0.1107 -0.0751
15213W        W31474   4.143  16.478  13.669  0.1886 -0.3136  0.1669
15214W        W31475  13.359   8.796   3.111 -0.0658 -0.0298  0.1682
15215W        W31476   0.256   2.008   5.974  0.0415 -0.0906  0.4102
15216W        W31477   2.697  12.124   1.258 -0.2779  0.2202 -0.0868
15217W        W31478   2.856  11.699   1.384 -0.1074 -0.1253  0.0219
15218W        W31479  17.675   9.715  14.937  0.2640 -0.1971 -0.0419
15219W        W31480   3.612  10.705  16.767 -0.3875 -0.1860  0.1081
15220W        W31481  15.505   2.327   4.314 -0.0027  0.1394  0.0817
15221W        W31482  14.318   8.595  13.952  0.1646 -0.0695  0.0172
15222W        W31483  13.696   0.873  16.001  0.1237  0.0212 -0.1900
15223W        W31484  12.539  11.111  12.447 -0.3412  0.0201  0.1408
15224W        W31485   5.457  17.618  14.792  0.0747  0.1678  0.2800
15225W        W31486  13.446  17.333  12.876 -0.1936  0.3018 -0.1395
15226W        W31487   9.568   8.875  13.157  0.4232 -0.3841 -0.0030
15227W        W31488   1.212   7.251   1.848 -0.2100  0.2750  0.5051
15228W        W31489  13.446   2.199  14.006  0.2337 -0.1556 -0.0635
15229W        W31490  10.277   3.749  12.875 -0.1180  0.0905  0.3007
15230W        W31491  17.654  13.481  14.714 -0.2667  0.2792 -0.1767
15231W        W31492  12.935  12.992   4.174 -0.0312 -0.1225 -0.0347
15232W        W31493  17.770  16.557   5.512  0.0606 -0.4795  0.0281
15233W        W31494  16.267   7.264  14.967 -0.0857 -0.0008 -0.0079
15234W        W31495  14.950   7.189   4.574  0.1227 -0.2202  0.0887
15235W        W31496   7.125   7.858   2.778  0.0454 -0.0069 -0.2758
15236W        W31497   7.842   7.648  13.697  0.1359 -0.2663 -0.0015
15237W        W31498  14.659   6.348  14.590 -0.1217 -0.1849 -0.2386
15238W        W31499  10.084   1.430   5.766 -0.1804  0.3237 -0.0213
15239W        W31500  16.545  16.400   0.060  0.1970 -0.0037 -0.0264
15240W        W31501  14.140   4.467  15.375  0.0860  0.2244 -0.0318
15241W        W31502  16.397   5.221   0.252  0.0494  0.2034  0.1319
15242W        W31503   8.891  15.873   3.076  0.0934 -0.0756 -0.0722
15243W        W31504   1.177   1.276  12.862 -0.3368  0.3656 -0.0741
15244W        W31505   1.409   8.687   4.107  0.1076 -0.2678 -0.0341
15245W        W31506  15.901  16.290  13.501  0.0468 -0.2246  0.1615
15246W        W31507   1.541   9.360  15.942  0.0619  0.0738  0.0439
15247W        W31508   9.091   0.155   0.150 -0.1722  0.3601 -0.1058
15248W        W31509  12.067   4.794  12.651  0.1047 -0.0600 -0.0970
15249W        W31510  15.409   9.876   1.886  0.0305  0.2685 -0.1091
15250W        W31511   4.951   9.766  14.510 -0.0604 -0.2855  0.0678
15251W        W31512  14.156  10.307  13.065  0.1039 -0.0815  0.1760
15252W        W31513   9.912  13.834   2.255  0.1788 -0.1220  0.0033
15253W        W31514  10.201   3.632   6.002  0.2129 -0.0275  0.1354
15254W        W31515   3.390  12.438   2.538 -0.0104  0.1377  0.1788
15255W        W31516   9.907  13.793  14.562  0.0150  0.1257  0.3632
15256W        W31517  10.780   8.428  15.728 -0.1529 -0.3039  0.0213
15257W        W31518  17.047   1.329  16.881 -0.0074 -0.1559 -0.0440
15258W        W31519  15.650  12.278   2.954  0.0291 -0.0478 -0.0116
15259W        W31520  10.266   4.383  12.640 -0.0703  0.0200  0.1365
15260W        W31521   2.272  13.772  14.225 -0.2789 -0.0804 -0.1710
15261W        W31522  12.478  17.181  15.040  0.3540 -0.0435  0.1300
15262W        W31523  17.419   2.439  16.616  0.0823  0.3932 -0.0741
15263W        W31524  12.158   1.076   1.037 -0.4359 -0.1240 -0.1854
15264W        W31525   5.974   1.498  13.801  0.0722  0.0844  0.1132
15265W        W31526   5.151  14.741  14.427 -0.2255 -0.1297  0.4995
15266W        W31527  11.178   1.306   1.002  0.1938  0.0675 -0.1807
15267W        W31528   4.464   3.568   3.524  0.2238  0.1645  0.1968
15268W        W31529   9.412   3.180  12.670  0.1396  0.0660  0.1129
15269W        W31530   6.512   3.789   6.214 -0.0178 -0.1383 -0.1914
15270W        W31531   8.483   4.261  16.865 -0.1775 -0.0712  0.2137
15271W        W31532  12.433   9.589   4.202 -0.1425  0.4603 -0.1601
15272W        W31533   6.954   9.682  13.639 -0.1561  0.2825  0.0094
15273W        W31534   8.975  17.759   4.045  0.4021 -0.0243 -0.4834
15274W        W31535  16.283   6.617   2.499 -0.2850  0.1047  0.0658
15275W        W31536  15.719   3.411   0.154 -0.0566  0.1525  0.0379
15276W        W31537   5.392   5.276  15.730 -0.1546  0.1162 -0.2946
15277W        W31538   7.551   0.025  14.955 -0.1756 -0.0752 -0.1553
15278W        W31539  13.155  12.856  16.268 -0.2371  0.2719  0.2092
15279W        W31540  12.553  10.351  12.774  0.2316 -0.0835 -0.2462
15280W        W31541  17.574  14.305   4.152  0.0021  0.0080 -0.0682
15281W        W31542   0.404  12.514   0.862 -0.1238  0.1868  0.1633
15282W        W31543   7.479   7.952   0.252  0.0979 -0.0210 -0.0141
15283W        W31544  12.271   5.259  16.963 -0.1191  0.1156  0.1575
15284W        W31545  17.660   2.038   5.143  0.0653  0.3528  0.4901
15285W        W31546  15.590   7.183  14.676  0.0376 -0.2751  0.0728
15286W        W31547  11.965   4.951   6.408 -0.1057  0.2471  0.1808
15287W        W31548  17.257  16.640   3.515 -0.1470 -0.3646 -0.0208
15288W        W31549   1.867  14.749  13.227  0.2021 -0.0343 -0.0066
15289W        W31550   5.498  16.196   3.642  0.0067  0.1947  0.0158
15290W        W31551   2.889   2.057   5.429  0.2113 -0.0701  0.1319
15291W        W31552   1.857   9.506  13.836  0.2786 -0.1512  0.4180
15292W        W31553   0.580  17.733   1.298 -0.1658 -0.2162 -0.1387
15293W        W31554  13.706  16.557   1.419  0.1151  0.1021  0.2330
15294W        W31555  15.638  11.881  13.347  0.1740  0.2606  0.1210
15295W        W31556  17.072  10.451  15.882 -0.1594  0.0351 -0.0482
15296W        W31557   3.360  13.350  11.133  0.0016  0.1845 -0.0779
15297W        W31558  17.702   7.876  12.912  0.3657 -0.3259 -0.0074
15298W        W31559   3.387   2.458  12.753  0.0284  0.0677  0.2354
15299W        W31560  15.406   8.785  16.031 -0.0708  0.2669 -0.1516
15300W        W31561  12.743  17.027   0.985 -0.0085  0.1406 -0.2572
15301W        W31562   1.501  17.799   1.424  0.1036 -0.2582  0.2715
15302W        W31563   4.090  14.789   1.185 -0.0209  0.1062 -0.0802
15303W        W31564   0.485   5.887   1.719  0.1432 -0.0194  0.2252
15304W        W31565   0.158   3.773   1.287 -0.1051 -0.0733 -0.3361
15305W        W31566  13.161   6.194  12.053  0.0577 -0.3721 -0.4209
15306W        W31567   0.783   1.033  13.092 -0.1509 -0.0669 -0.1110
15307W        W31568   5.620  15.718   3.423  0.1569 -0.0245  0.0310
15308W        W31569   4.573   1.373  15.946 -0.1758  0.0005  0.0746
15309W        W31570  15.179  12.400  15.343  0.1232 -0.3981  0.0836
15310W        W31571   7.494   4.003  11.988  0.0558  0.0976 -0.0691
15311W        W31572  16.957  12.917  12.950 -0.4385 -0.1935  0.2890
15312W        W31573   7.441  13.115   5.284  0.0754 -0.1703 -0.1431
15313W        W31574   8.535   7.797  11.947  0.3719  0.1402 -0.1271
15314W        W31575   9.150   3.299  15.244  0.1853 -0.1766  0.0510
15315W        W31576   8.210   5.337   1.881 -0.0648  0.0526  0.1257
15316W        W31577  16.508   0.896   4.446 -0.0474  0.1330 -0.1379
15317W        W31578   9.294  16.374   3.919  0.1012 -0.2620  0.1543
15318W        W31579   6.254   9.867  15.646 -0.1425  0.0730 -0.1628
15319W        W31580  17.006  14.493   3.884 -0.0547  0.0401 -0.0497
15320W        W31581   9.783  10.712  13.464 -0.0572  0.2745 -0.2642
15321W        W31582  13.437   4.592  11.975  0.0596 -0.0716 -0.1021
15322W        W31583   0.948  12.577  13.295  0.0303  0.1639 -0.1890
15323W        W31584   2.582   2.465  15.919 -0.0713 -0.0943  0.0380
15324W        W31585   7.368  14.497  16.471  0.1997  0.0406 -0.1288
15325W        W31586  10.538  14.768  14.864 -0.0405  0.1984  0.1346
15326W        W31587  12.552  12.658   2.386  0.0527 -0.3084 -0.0969
15327W        W31588  12.352   3.053   4.558 -0.0317 -0.0446  0.1996
15328W        W31589   6.439   2.727  15.111 -0.1016 -0.1598  0.1279
15329W        W31590   7.993  13.007   5.346 -0.0356 -0.1781 -0.0110
15330W        W31591   7.693  15.695  14.128 -0.0837 -0.2706  0.1667
15331W        W31592   8.098  13.167  12.774 -0.0509 -0.3382  0.0896
15332W        W31593   3.424   9.533   1.221 -0.0490  0.2514  0.0443
15333W        W31594  17.258  12.059  12.580 -0.4293  0.0590  0.2256
15334W        W31595   0.962  15.356   2.731  0.1164  0.0300 -0.0103
15335W        W31596  15.975   7.808  12.502 -0.0636 -0.1126 -0.1982
15336W        W31597  11.651   2.439  16.766 -0.0961  0.4749  0.0456
15337W        W31598   5.588   0.842  13.742 -0.3525  0.1144  0.0148
15338W        W31599  12.693   8.624   1.650 -0.0758 -0.0737 -0.0540
15339W        W31600   4.617   9.994   1.647 -0.0941 -0.1654  0.0148
15340W        W31601   0.896  12.224   4.907 -0.0467 -0.2061 -0.0805
15341W        W31602  10.870  13.876  11.102  0.0553 -0.2026  0.1037
15342W        W31603  12.896   4.777  16.578  0.1779 -0.1381 -0.1801
15343W        W31604  14.273   0.697  14.937  0.0650 -0.1325 -0.2673
15344W        W31605   5.797  10.305  14.490 -0.4826 -0.1171  0.0026
15345W        W31606   0.386  12.673  16.085  0.0435 -0.1886 -0.0297
15346W        W31607   0.611   5.757  14.112  0.0679 -0.0170  0.0362
15347W        W31608   1.629  15.917   4.363 -0.0081  0.1693  0.0353
15348W        W31609   2.696   7.783   0.757  0.0573 -0.2449 -0.0867
15349W        W31610   4.358   0.404  16.667 -0.0439  0.2374  0.1969
15350W        W31611   8.172   8.669   4.731 -0.0774 -0.3060  0.0639
15351W        W31612  10.040   5.728   0.636 -0.1150 -0.2962 -0.2547
15352W        W31613   5.873   7.040  13.288 -0.2131  0.1964  0.2013
15353W        W31614   0.792  14.114   0.785 -0.1400  0.2273  0.0512
15354W        W31615   9.506   5.431  12.919 -0.4331 -0.1907 -0.0352
15355W        W31616   9.209   5.634  15.662 -0.1841  0.2464  0.2799
15356W        W31617   7.324  14.414   5.196 -0.0975  0.0407 -0.1271
15357W        W31618   2.607  15.386   2.923  0.2006 -0.0977 -0.0785
15358W        W31619  11.132  17.584  16.869  0.0374 -0.0937  0.0459
15359W        W31620   0.157  15.423   5.904  0.0073 -0.1522  0.1368
15360W        W31621   0.306  12.461   3.716 -0.2496 -0.0943  0.0822
15361W        W31622  12.099  12.313   6.114  0.0695 -0.0641 -0.0846
15362W        W31623   2.700   3.474   2.354 -0.4143  0.1814 -0.1015
15363W        W31624  15.997   6.213   4.524 -0.0446 -0.2655  0.3288
15364W        W31625   6.468   6.197   2.747 -0.2273 -0.1975 -0.1052
15365W        W31626   7.066   4.774   3.056 -0.0375 -0.1166  0.1126
15366W        W31627   2.467   3.927   5.570 -0.0389 -0.1656  0.1812
15367W        W31628   0.140  16.772   4.980  0.0331  0.0472  0.1723
15368W        W31629   3.041  11.663   2.647 -0.1702 -0.0426 -0.0288
15369W        W31630   1.159   5.623   3.081 -0.0761 -0.1140 -0.0375
15370W        W31631  15.865  14.764  12.123  0.1348  0.1626  0.2464
15371W        W31632   0.184  13.871  13.898 -0.0662  0.0536 -0.1985
15372W        W31633   8.237  16.509  15.240 -0.4049 -0.0934 -0.2404
15373W        W31634  16.539   0.766  15.430 -0.0470 -0.1588 -0.1789
15374W        W31635   8.133   5.053  12.016 -0.0054  0.2541 -0.0898
15375W        W31636   3.398  13.705  12.044  0.0144 -0.1656 -0.2065
15376W        W31637   0.137   4.321  11.786 -0.1184  0.0680  0.1029
15377W        W31638  14.923   6.816   3.175  0.0140  0.0253  0.1015
15378W        W31639   6.212  12.513  12.547  0.2419 -0.3110  0.2779
15379W        W31640   1.628  14.407   0.464 -0.2677  0.2002 -0.2982
15380W        W31641   5.008   1.396  14.721  0.3443  0.1789 -0.0696
15381W        W31642   2.098  14.309   3.035  0.0725  0.1539  0.2158
15382W        W31643   4.575   6.269   0.802 -0.1184  0.1231  0.4648
15383W        W31644  12.861  12.182  12.230  0.3958  0.0101  0.1433
15384W        W31645  15.526   1.257   4.389  0.2332 -0.0607  0.0775
15385W        W31646   2.634  16.862  14.727  0.0426 -0.1998 -0.2285
15386W        W31647   3.209   4.038  12.983 -0.0645 -0.1758 -0.1709
15387W        W31648   1.436   7.805   4.322 -0.2005 -0.3745 -0.0942
15388W        W31649  17.847   7.544   0.374 -0.1769  0.0030  0.3972
15389W        W31650   5.445   4.774  13.469  0.0542  0.0261  0.0444
15390W        W31651   8.479   5.799  11.610  0.2833  0.3400  0.0080
15391W        W31652   6.762  13.319  14.515  0.0181  0.0407 -0.1088
15392W        W31653   5.784  16.389   2.775 -0.3022 -0.1586 -0.1725
15393W        W31654   3.335   7.909   3.314  0.1338  0.0323  0.0313
15394W        W31655   9.616  17.811   2.137  0.0345 -0.1156  0.1890
15395W        W31656  16.688   8.703  12.782  0.1099 -0.1907 -0.2345
15396W        W31657  11.860  14.844  16.570 -0.3077 -0.1172 -0.0125
15397W        W31658   7.879  16.194   0.774  0.1242 -0.0425 -0.1493
15398W        W31659   8.984  13.011   1.404  0.2871 -0.3829 -0.0447
15399W        W31660   0.694   5.095  16.696  0.2123 -0.3105 -0.1264
15400W        W31661   5.483  17.332   3.032  0.1704  0.1931  0.0077
15401W        W31662   2.007  13.632   2.761  0.0465 -0.1227 -0.1002
15402W        W31663   2.594   3.450  15.901 -0.2690 -0.2290 -0.3134
15403W        W31664  14.040  15.890   4.419 -0.0038 -0.2634  0.2015
15404W        W31665   9.033   9.295  14.194  0.5784  0.1135  0.2701
15405W        W31666  10.588   7.702  14.124 -0.3111  0.1019  0.1577
15406W        W31667   4.157   0.768   1.569  0.1123  0.1379  0.0718
15407W        W31668  11.934  10.204  16.803 -0.0978 -0.0305  0.0030
15408W        W31669  14.441   9.818  15.709 -0.1764  0.2352  0.0327
15409W        W31670   7.527   0.746  16.159 -0.1381 -0.2826  0.1936
15410W        W31671  15.202  16.945   2.457  0.1498 -0.3208 -0.0569
15411W        W31672   3.377   4.000   1.195  0.0848  0.2732 -0.0824
15412W        W31673  12.242  15.864   5.702  0.0559 -0.1152 -0.0809
15413W        W31674   5.501   0.696  14.543  0.1776 -0.1961  0.1721
15414W        W31675  10.368   7.862   5.983  0.1225 -0.0857  0.0162
15415W        W31676   6.591   9.085  13.419  0.1037 -0.3148 -0.1922
15416W        W31677   6.230  14.398   0.291  0.3017  0.3186  0.0009
15417W        W31678   1.976   0.182   1.228 -0.0963 -0.0129  0.1726
15418W        W31679   3.781   9.119  15.646  0.2513  0.0488  0.0141
15419W        W31680   3.549   0.836   4.325 -0.0154 -0.3978  0.3205
15420W        W31681   1.524   7.829  12.062  0.0428  0.1203 -0.4991
15421W        W31682  14.795  10.452  14.916 -0.0341  0.3377  0.0233
15422W        W31683   5.219   6.907   2.228  0.1901 -0.0589  0.2122
15423W        W31684   2.636   0.384   4.702  0.0405  0.2221 -0.1179
15424W        W31685  16.018   4.340   1.725 -0.0228  0.1579  0.0427
15425W        W31686  14.403   2.829   0.841  0.1785 -0.0131 -0.1218
15426W        W31687  15.625  14.338   1.297  0.2287  0.0919  0.0239
15427W        W31688  11.241   4.634   5.775 -0.0444  0.1220  0.0914
15428W        W31689  11.719  12.306   0.271  0.0374 -0.1790 -0.1766
15429W        W31690   4.776   4.502  11.491 -0.2662 -0.0074  0.0987
15430W        W31691  11.219  16.836   4.022 -0.1786  0.0447 -0.0220
15431W        W31692   1.218   4.920  15.335 -0.3017 -0.2433  0.0619
15432W        W31693   4.058  10.585   3.744 -0.2015 -0.1972  0.0102
15433W        W31694  17.722  14.738   1.514  0.0201  0.1200 -0.0261
15434W        W31695  10.701  10.996   0.174 -0.0488  0.0021 -0.0650
15435W        W31696  17.165  16.516   2.661 -0.1781  0.2123  0.0293
15436W        W31697   5.048   8.234  13.734 -0.1675 -0.0599  0.0958
15437W        W31698   3.310  13.055   4.220 -0.0953  0.2720 -0.0142
15438W        W31699   9.138   1.074  15.797 -0.0948  0.2387  0.1368
15439W        W31700   1.261  11.820   0.264  0.0281  0.0070  0.3942
15440W        W31701   0.155   7.388   4.357  0.1891 -0.2587 -0.1258
15441W        W31702   7.442   1.444   5.546  0.0167  0.0983 -0.0755
15442W        W31703  17.301  15.637   2.525  0.1327  0.0059  0.1779
15443W        W31704   0.523   2.261  11.408  0.3212 -0.2550  0.2224
15444W        W31705  14.173  14.329  16.199  0.0602 -0.1207 -0.0623
15445W        W31706   8.207  11.249   3.691 -0.1044 -0.2001 -0.0399
15446W        W31707  16.183   9.727  16.893  0.5112 -0.1223 -0.3022
15447W        W31708   3.839  11.371  14.811  0.0052 -0.0006 -0.0121
15448W        W31709  15.668  17.289  13.112 -0.0890  0.0376 -0.0661
15449W        W31710   5.766  11.645   1.057 -0.0571  0.2086 -0.2180
15450W        W31711   8.507   2.484   0.744 -0.1744  0.1973 -0.1468
15451W        W31712   7.771  17.460  12.495 -0.1810 -0.1209  0.2562
15452W        W31713  15.281  14.217   6.096 -0.0059  0.4264 -0.2599
15453W        W31714  12.961   3.796  16.691  0.1143 -0.0860  0.0764
15454W        W31715   2.623   0.179   5.502  0.1746 -0.0018  0.1606
15455W        W31716   4.914   8.448   0.008  0.1026  0.1913  0.0074
15456W        W31717  12.559  10.610  14.044  0.1927 -0.0028 -0.4941
15457W        W31718  13.165  15.302  16.496  0.2444  0.1561  0.0696
15458W        W31719   9.661   4.145   1.702 -0.1891 -0.0747 -0.0720
15459W        W31720   2.389   8.867   5.708 -0.1013 -0.0888 -0.2703
15460W        W31721   9.464   0.345   4.695 -0.0287 -0.0363  0.0826
15461W        W31722  15.167   0.065  13.812 -0.0052 -0.2746 -0.1318
15462W        W31723   3.420   2.069   5.095  0.0148  0.1313  0.1000
15463W        W31724  10.373   6.134  11.432  0.1609  0.0483 -0.0216
15464W        W31725  13.867   2.541  16.709 -0.0683 -0.0343  0.3885
15465W        W31726  14.201  16.592  13.846 -0.2006  0.1211  0.1319
15466W        W31727   3.761   8.143   1.015 -0.3932 -0.0579  0.1170
15467W        W31728   6.033   3.889  16.711  0.0485  0.0748  0.0681
15468W        W31729   4.211  12.067   5.732 -0.1069 -0.2189 -0.3508
15469W        W31730  15.645  11.145  11.765  0.2036  0.0623  0.0166
15470W        W31731   7.404  15.756  11.892 -0.0130  0.0636 -0.0911
15471W        W31732  10.771   5.466  14.898  0.0605 -0.3024  0.2658
15472W        W31733  17.222  16.375  14.898 -0.3632  0.1232  0.1757
15473W        W31734  17.421  11.568  12.832  0.3267 -0.1569 -0.1386
15474W        W31735   1.751   1.526  13.563 -0.1385 -0.1399 -0.0718
15475W        W31736   5.454  15.501  13.650 -0.4271 -0.1147  0.0053
15476W        W31737   6.582  10.949   3.633 -0.2261 -0.2851  0.0394
15477W        W31738   0.608   7.385   6.437  0.1713  0.0104 -0.2744
15478W        W31739   9.311   5.289   3.995 -0.0726  0.3381  0.1665
15479W        W31740  17.757  15.035   4.570 -0.0562 -0.1537  0.4092
15480W        W31741  15.470  17.135  16.906  0.1739  0.2958  0.0159
15481W        W31742   8.850   1.999   4.694 -0.2117  0.1706 -0.0858
15482W        W31743   2.206   9.686   3.244 -0.2652 -0.2428 -0.1226
15483W        W31744  17.792   7.546  13.309 -0.0162  0.1413  0.1004
15484W        W31745   1.400   5.193   3.209  0.3211 -0.0362 -0.1464
15485W        W31746  17.126  17.388   0.958 -0.0049  0.3332 -0.1910
15486W        W31747   1.290   8.073   2.117 -0.2965  0.2781  0.0352
15487W        W31748  17.477   2.518  13.801 -0.0884 -0.1480 -0.1330
15488W        W31749   2.225   5.914   0.542  0.0623  0.0055 -0.1624
15489W        W31750   6.195   4.559   4.085  0.2467 -0.0530 -0.2891
15490W        W31751  11.699  16.206  15.763 -0.0107 -0.0638 -0.0428
15491W        W31752  12.436  15.879  13.273  0.4752  0.0916  0.0968
15492W        W31753  11.981   4.485  15.494 -0.1853  0.2127 -0.1525
15493W        W31754  11.664  15.696   0.012 -0.1638 -0.1541  0.0282
15494W        W31755   0.041  14.074  15.282  0.1028 -0.0205  0.2028
15495W        W31756  16.126   1.530   2.645  0.1236 -0.1018 -0.2089
15496W        W31757  12.224  13.158  12.710 -0.0759  0.0873 -0.1588
15497W        W31758  11.332   0.613   4.655  0.1964  0.2841 -0.0605
15498W        W31759  10.654  17.523   2.839  0.1725  0.2693 -0.1675
15499W        W31760   9.576  12.251   1.226 -0.2171  0.0878  0.3376
15500W        W31761   7.566   7.121  15.998  0.2419 -0.0966  0.0636
15501W        W31762   6.800  16.111   1.368 -0.0111 -0.2519  0.0731
15502W        W31763  10.100   8.100   5.622  0.0036  0.1440  0.4198
15503W        W31764  13.853   4.126  15.143  0.2078 -0.0399 -0.1685
15504W        W31765   3.039   9.730   5.280  0.1275 -0.0543  0.0296
15505W        W31766   4.815  12.708   1.558 -0.0438  0.0714  0.1188
15506W        W31767  14.846   0.854  16.847  0.0559  0.0667 -0.2073
15507W        W31768   6.622   4.755  14.106 -0.1586  0.1475  0.0744
15508W        W31769   6.426   0.977  13.192  0.2709  0.0488 -0.1090
15509W        W31770   0.271   0.416   2.678 -0.1245 -0.0852 -0.0368
15510W        W31771   2.761   5.485  12.298  0.0885 -0.1120 -0.1252
15511W        W31772  16.112  17.440  12.330  0.1530 -0.1193  0.0052
15512W        W31773   7.484  14.813  11.427  0.3295 -0.2461  0.0357
15513W        W31774  10.195  15.298   5.066  0.0045  0.0646  0.2939
15514W        W31775   2.343   9.940  14.164 -0.1803 -0.1377 -0.2649
15515W        W31776  11.408   4.952  15.711 -0.3397  0.0367 -0.2106
15516W        W31777  16.775   7.860   1.763  0.0110  0.1170 -0.1046
15517W        W31778   2.349   6.740  13.143 -0.2079  0.1813  0.0930
15518W        W31779   6.924  11.266  14.106 -0.0166 -0.0640 -0.1160
15519W        W31780   8.404  14.248  12.891  0.0893  0.0746  0.1773
15520W        W31781   7.096   0.217  16.498  0.1194  0.1311  0.2694
15521W        W31782   7.404  16.863  12.934  0.0632  0.2949 -0.3413
15522W        W31783   2.260  13.586   4.029 -0.1195 -0.1647  0.0412
15523W        W31784  16.432   0.992   0.516  0.1809  0.1370  0.2314
15524W        W31785  16.144   7.262  16.454  0.0048  0.2259 -0.1288
15525W        W31786  10.934  12.197   2.817  0.2577  0.2240 -0.0681
15526W        W31787  13.361  13.430   2.667  0.5306  0.2869  0.5388
15527W        W31788  10.434  11.237  14.607  0.0765  0.3070 -0.1775
15528W        W31789   3.439  10.187  14.847 -0.0208  0.0600 -0.2177
15529W        W31790  17.176   4.338   6.484  0.2494 -0.1960 -0.0716
15530W        W31791   7.412   9.633  15.308 -0.4793 -0.2844  0.1094
15531W        W31792  13.147  10.395   5.910  0.0643  0.2867  0.2745
15532W        W31793   2.853   5.636   4.480 -0.1281  0.0418  0.0809
15533W        W31794  11.044  16.537  11.749 -0.0746  0.0679  0.2745
15534W        W31795  10.484   5.150   3.340 -0.3668  0.1444 -0.1664
15535W        W31796   6.952   8.673   3.298 -0.1754  0.4041  0.2122
15536W        W31797  12.266  15.359   0.258  0.1365  0.2229  0.1408
15537W        W31798  14.355   2.847   1.735 -0.0443  0.3003  0.0986
15538W        W31799   3.674   0.054  13.499 -0.1569  0.4704  0.0129
15539W        W31800  14.259   5.694   5.382  0.0475 -0.0987 -0.0474
15540W        W31801   7.712  11.938  14.773  0.1061  0.1315 -0.0411
15541W        W31802   8.344  15.851  12.754  0.0287  0.0348 -0.2274
15542W        W31803   7.354   6.180   2.775 -0.1631  0.2383 -0.0280
15543W        W31804  10.558   5.510   4.987  0.0254  0.3277  0.1301
15544W        W31805   2.398   9.638   2.444 -0.1040 -0.1231 -0.0982
15545W        W31806   0.271  15.121  16.211  0.2252 -0.1535  0.0544
15546W        W31807  13.936   3.534  13.860  0.3688  0.2417 -0.0929
15547W        W31808  17.818  12.371  16.935  0.2685 -0.2448  0.4657
15548W        W31809   4.327   4.086   0.286 -0.2216  0.1476  0.1787
15549W        W31810   9.373   6.869  13.064  0.2508  0.0093 -0.1504
15550W        W31811   9.167  16.584   5.042 -0.2325  0.1771 -0.0771
15551W        W31812  10.530   7.830   0.263  0.3030  0.0907 -0.1736
15552W        W31813   5.313  16.762  15.425 -0.0997  0.0869 -0.2648
15553W        W31814  11.575  13.618   5.395 -0.0240  0.3106  0.1893
15554W        W31815   2.647  16.444   4.246 -0.1868  0.2019 -0.0321
15555W        W31816  12.758   5.347  15.955  0.0615  0.0089 -0.1478
15556W        W31817   2.603  11.767  14.806  0.0067 -0.0009  0.2627
15557W        W31818   6.130   8.967  16.428 -0.2236  0.3182  0.2082
15558W        W31819   5.985  13.479  15.929 -0.0769  0.0902  0.0841
15559W        W31820   4.744   5.067   2.380  0.2445 -0.0070  0.0220
15560W        W31821  17.593  10.586   5.899  0.0267 -0.1067  0.0813
15561W        W31822   6.057   0.173  13.640 -0.0371 -0.0694 -0.4348
15562W        W31823  12.108   7.062   2.975 -0.1638 -0.1352 -0.0111
15563W        W31824   1.605   6.762  12.911 -0.0473  0.1060  0.0285
15564W        W31825   4.396  13.354  16.288 -0.1346  0.0355 -0.0136
15565W        W31826  11.263   7.286   2.977 -0.4705  0.2749  0.3756
15566W        W31827  12.143   4.227   2.787 -0.0090 -0.2985 -0.1275
15567W        W31828  17.041   8.034   0.242 -0.0548  0.3316  0.1520
15568W        W31829   9.085   2.893   1.388  0.2781  0.0251  0.1752
15569W        W31830  17.398   3.543   1.479 -0.0997 -0.0937 -0.3456
15570W        W31831   8.053   6.099   4.481  0.1069 -0.4269  0.2315
15571W        W31832   2.776   6.677   5.207 -0.1931 -0.1339 -0.0140
15572W        W31833  14.292   6.060   5.901  0.0464  0.1537  0.4691
15573W        W31834   2.337   6.186   2.038 -0.0110  0.0150  0.0034
15574W        W31835  16.079   4.993  12.543 -0.0004  0.0790 -0.1543
15575W        W31836   4.511   3.815  15.848  0.2214  0.2141 -0.1564
15576W        W31837  13.367   3.329   4.826 -0.0534 -0.0426  0.1055
15577W        W31838  11.116  13.870   3.988 -0.3664  0.0529  0.0645
15578W        W31839  12.463  14.450   3.631  0.0830 -0.1437  0.1218
15579W        W31840   0.303   8.900   0.269 -0.0420  0.1215  0.2116
15580W        W31841  12.747  13.339  16.871  0.0495  0.1026  0.0995
15581W        W31842  16.076  12.986  13.197  0.0378 -0.0319 -0.2685
15582W        W31843   7.106  13.829  16.843  0.0923  0.1166  0.1311
15583W        W31844   6.764  15.903  13.715  0.0589  0.1539 -0.2171
15584W        W31845  11.481   3.132   5.971  0.3072 -0.0216  0.1154
15585W        W31846  11.452   8.820  12.786 -0.0987  0.1044  0.1350
15586W        W31847  14.212  15.647  15.297 -0.2258  0.3120  0.2162
15587W        W31848   7.035   2.694  11.877  0.2432 -0.0764 -0.0162
15588W        W31849  16.996   3.227  13.111 -0.1864  0.3002 -0.1277
15589W        W31850  12.236  14.079  14.890 -0.0393  0.2331 -0.1594
15590W        W31851   1.855   5.266  14.078 -0.2708 -0.0052 -0.0316
15591W        W31852   8.389  13.625   0.961  0.0078 -0.0654  0.0248
15592W        W31853  11.007  11.760  15.115  0.0820 -0.2987  0.3968
15593W        W31854  10.280  14.115  14.459 -0.1867  0.0588 -0.1776
15594W        W31855   1.645   8.445  12.219 -0.0392 -0.1011  0.2008
15595W        W31856  14.433  17.714   2.813  0.0164  0.1001  0.1179
15596W        W31857   0.461   2.426  16.726  0.0439 -0.0050 -0.0559
15597W        W31858  11.542   2.104  15.330  0.0508  0.0512 -0.1145
15598W        W31859  11.433   8.980  16.294  0.0304 -0.2706  0.3351
15599W        W31860   0.102   1.041  15.306  0.1921 -0.2163  0.0135
15600W        W31861   7.402   3.725   5.778  0.2250 -0.1302 -0.0605
15601W        W31862   8.733  10.980   4.783 -0.2917 -0.4272 -0.2629
15602W        W31863  17.429   5.946   5.286 -0.1825  0.3280 -0.2037
15603W        W31864   1.497  12.777   1.854 -0.0039 -0.1819  0.0715
15604W        W31865   2.492   2.249  15.158 -0.1637  0.2282  0.0457
15605W        W31866   4.934   5.163   3.877  0.1618 -0.0301  0.0800
15606W        W31867   3.485   1.763  14.282  0.0208  0.3330 -0.2369
15607W        W31868   0.369  11.083   6.331  0.0569 -0.0253 -0.1525
15608W        W31869  16.354  16.760   3.718 -0.1830  0.0900 -0.2538
15609W        W31870   1.510   3.282   4.331  0.2069 -0.1449  0.0491
15610W        W31871   6.354  16.485   0.701  0.0610 -0.0981  0.0049
15611W        W31872   8.940  14.288   1.256  0.1233  0.1349 -0.1331
15612W        W31873   1.874   0.595  16.813 -0.2743 -0.0845  0.2814
15613W        W31874  12.060   7.547  12.309  0.0369 -0.1054 -0.2160
15614W        W31875  17.835   3.212  13.958  0.1771 -0.2885  0.1482
15615W        W31876   6.350   9.578   3.262 -0.1353 -0.1449 -0.0410
15616W        W31877  13.477   2.736  14.832 -0.1426  0.1393 -0.0456
15617W        W31878   0.452   9.190   0.609 -0.0928  0.1265 -0.0379
15618W        W31879   1.601   5.419  13.382 -0.0588 -0.0489 -0.0670
15619W        W31880   0.549  13.538   2.508  0.4685 -0.0036  0.2823
15620W        W31881   6.170  12.629  16.663  0.0693  0.0297 -0.0620
15621W        W31882  13.677  14.872   2.636  0.2911 -0.1738  0.1182
15622W        W31883   1.363  14.535  16.032 -0.2855  0.0740 -0.0616
15623W        W31884   6.723  12.926  15.850  0.2744 -0.1178  0.0914
15624W        W31885  13.298   1.242   3.149 -0.0356 -0.0716 -0.1571
15625W        W31886   7.497   0.718  13.474  0.0642 -0.0076 -0.0001
15626W        W31887  12.749   8.132   3.073 -0.2763 -0.1970 -0.0535
15627W        W31888   7.482  11.616  15.508 -0.1833 -0.0584 -0.1452
15628W        W31889  12.943  13.270  12.407 -0.1518 -0.0655  0.0461
15629W        W31890   9.623  13.947  10.484 -0.0581 -0.0313  0.1147
15630W        W31891  11.413   1.091   3.248 -0.2299  0.2085 -0.4862
15631W        W31892   3.857   8.578  16.942 -0.0801 -0.0115 -0.2247
15632W        W31893   6.318  16.127  13.632 -0.3388  0.0637  0.1369
15633W        W31894  17.731  16.964  16.282  0.2390  0.1087  0.1847
15634W        W31895  15.541   2.006   1.946 -0.1277  0.0476 -0.1075
15635W        W31896   3.271   3.944  11.912 -0.2344  0.0694 -0.1927
15636W        W31897   4.253  13.851   4.391  0.0246  0.2139 -0.0833
15637W        W31898  10.375  16.131  13.987  0.2768  0.1628 -0.1376
15638W        W31899  15.045  15.498  13.618 -0.2322 -0.1186  0.0496
15639W        W31900  14.336   0.661   2.370  0.0817 -0.0867 -0.0925
15640W        W31901  15.180  16.091   3.811  0.1721  0.1444 -0.0400
15641W        W31902   7.683   3.627   4.298  0.0978 -0.0000  0.0682
15642W        W31903   1.494   3.326   5.075 -0.3192 -0.0410  0.0786
15643W        W31904   2.284   5.052   1.135 -0.1914 -0.0275  0.1316
15644W        W31905   4.025   5.846   0.012 -0.0648 -0.0750  0.3137
15645W        W31906  11.056  14.407  10.561  0.0777 -0.1157 -0.0162
15646W        W31907   4.823   1.263  13.800 -0.0843 -0.0554  0.0002
15647W        W31908   3.565   3.144  16.036  0.2593  0.1417  0.0818
15648W        W31909  11.212   5.845   3.911 -0.0156  0.1754 -0.0896
15649W        W31910   8.611  10.683   5.619 -0.1477  0.1857  0.2178
15650W        W31911  14.862   8.428  13.378  0.1919 -0.0993 -0.0781
15651W        W31912  10.805  10.061  15.236 -0.2119 -0.1070  0.0201
15652W        W31913   5.737   1.916  15.406 -0.1993  0.0382 -0.4345
15653W        W31914   5.865   3.210   0.646 -0.1294 -0.0414 -0.1707
15654W        W31915  10.671  11.579   0.108 -0.0045 -0.2364 -0.1640
15655W        W31916  10.491  12.782   2.368  0.0114 -0.0349 -0.2783
15656W        W31917   6.105   6.454  13.683 -0.2120  0.3003  0.0169
15657W        W31918   2.576  10.573  15.463  0.1294 -0.2270 -0.0858
15658W        W31919  13.419  13.813   5.060  0.4224  0.0706  0.0947
15659W        W31920   7.620   1.424   1.067  0.0034  0.2931  0.1849
15660W        W31921   7.042   8.191   1.979  0.0587  0.1375 -0.0099
15661W        W31922  14.809  11.411   5.911  0.1803 -0.0792 -0.3414
15662W        W31923   2.701   7.534  15.676 -0.0935 -0.2798  0.4002
15663W        W31924  10.315  10.988   3.741 -0.0091 -0.2172  0.0789
15664W        W31925   1.388  16.947   3.957 -0.0080  0.0196  0.0523
15665W        W31926  14.531   3.805   3.166  0.0267  0.0389  0.2872
15666W        W31927  13.347  15.873  13.058  0.0359  0.2548 -0.0764
15667W        W31928  12.899   1.295   1.321  0.0655  0.1491 -0.0486
15668W        W31929   1.583   1.071   0.222 -0.1339  0.0521 -0.3649
15669W        W31930   3.457  11.260   4.983 -0.2226  0.0449 -0.1886
15670W        W31931   3.732   7.776  13.213 -0.0779  0.1462 -0.0328
15671W        W31932   6.052   4.370   0.734  0.0772  0.1320 -0.0689
15672W        W31933   8.732   6.226   3.416 -0.0454 -0.0379  0.1926
15673W        W31934  11.529  17.533   1.686  0.1347 -0.0409 -0.0910
15674W        W31935   3.983  11.914  14.756 -0.0168  0.0767  0.1046
15675W        W31936  10.319  14.396  16.115 -0.3846  0.2036 -0.2619
15676W        W31937  12.111   0.122  12.759  0.3683  0.2202  0.0677
15677W        W31938  12.991   8.649  16.515  0.0463  0.0141 -0.1814
15678W        W31939  14.809   3.030   5.518  0.2995 -0.1376  0.1212
15679W        W31940  12.036  11.132  12.292 -0.2086 -0.0092 -0.3993
15680W        W31941   9.451   3.176  15.653 -0.4645  0.1601  0.0911
15681W        W31942  15.484   7.765   6.330 -0.0503  0.0338 -0.2174
15682W        W31943  10.905   9.187  12.866  0.2906  0.0523 -0.1566
15683W        W31944   5.121  12.123  13.570  0.1745 -0.0227 -0.2394
15684W        W31945  15.898  15.494  12.594 -0.3872 -0.1942 -0.0924
15685W        W31946   3.706  11.653   0.969 -0.2832 -0.1855 -0.0431
15686W        W31947   4.881  10.407   6.054  0.4587  0.0332 -0.0457
15687W        W31948   1.871   9.698   1.182 -0.2558  0.0773 -0.1051
15688W        W31949   7.642   1.126   0.359 -0.0117  0.2154 -0.1757
15689W        W31950   3.587   3.410   4.099 -0.1003  0.1239 -0.2582
15690W        W31951  16.383  16.441   6.537  0.0994 -0.0099  0.0663
15691W        W31952   2.110  17.718  13.633 -0.0733 -0.0172  0.0454
15692W        W31953   3.926   0.597  16.376 -0.1582  0.0039  0.2692
15693W        W31954   0.020  15.383   4.895  0.0729 -0.0956  0.0058
15694W        W31955  11.427   9.359  12.363 -0.1458 -0.1060 -0.0093
15695W        W31956  15.179   0.231   2.746  0.1985 -0.0426 -0.1076
15696W        W31957  15.620  16.756   2.740  0.1095 -0.0993 -0.2939
15697W        W31958  17.378   0.977  15.671  0.1195  0.1516 -0.0536
15698W        W31959  16.025  15.038   1.042  0.0579  0.0281 -0.0288
15699W        W31960   4.373   5.031  15.346 -0.2352 -0.2058 -0.0070
15700W        W31961  15.264  16.855   3.062  0.0364 -0.2092  0.1824
15701W        W31962  15.306   1.570   2.670  0.2596  0.0368  0.2113
15702W        W31963   7.162   1.766  14.403 -0.0232  0.2966  0.0830
15703W        W31964  12.801   1.336   3.487 -0.1560 -0.0619 -0.1646
15704W        W31965   6.604  14.458   2.546 -0.0294 -0.2977 -0.0313
15705W        W31966  12.776   7.871   4.999  0.0498  0.0981  0.0456
15706W        W31967  13.413   8.935  12.281  0.1212  0.0989 -0.0348
15707W        W31968   1.464   2.785   2.539  0.0541 -0.2537  0.0063
15708W        W31969  12.515  13.093  13.459  0.2188 -0.0074  0.0243
15709W        W31970   4.317   8.850  13.511 -0.4167  0.0604  0.0985
15710W        W31971  12.702  12.335   1.092  0.1836  0.3357  0.0439
15711W        W31972   3.431  12.821  13.232  0.3688 -0.1831  0.0551
15712W        W31973  14.685  16.852  16.478 -0.2993 -0.3530  0.1915
15713W        W31974   0.916   8.558   2.442 -0.2377 -0.1706  0.1120
15714W        W31975  14.107   1.973   1.857  0.2127 -0.1462 -0.1523
15715W        W31976   3.448  15.425  14.252  0.0948  0.1425  0.0222
15716W        W31977  16.643   6.324   4.416 -0.0508 -0.2578 -0.5124
15717W        W31978  14.304   4.366   3.119  0.1831 -0.0590 -0.1368
15718W        W31979  17.201   5.333   4.640 -0.1628 -0.0353 -0.1012
15719W        W31980  16.026  16.069   3.274 -0.0050  0.0657  0.0605
15720W        W31981   3.577  14.443   2.296  0.3723  0.0633  0.4344
15721W        W31982   1.132  14.866   1.948 -0.1609 -0.0542 -0.0108
15722W        W31983  14.143  15.768  13.739  0.1945  0.1460  0.0808
15723W        W31984   2.654   7.145   0.108  0.1518  0.1407  0.2806
15724W        W31985   6.143   6.334  13.078 -0.1151 -0.2940 -0.1943
15725W        W31986   0.675   1.967  14.446 -0.0192  0.2009  0.0546
15726W        W31987   5.382  11.021  14.116  0.3183 -0.0156 -0.1145
15727W        W31988  13.644  16.688   1.912 -0.0826  0.0799 -0.0116
15728W        W31989   6.669  10.634   3.245 -0.3792 -0.3352 -0.0896
15729W        W31990  11.492   9.100   4.625  0.0687  0.0123  0.3383
15730W        W31991  15.651  12.256   4.402  0.0997  0.2786  0.0443
15731W        W31992   1.030  16.869  12.974 -0.1624 -0.1679 -0.3295
15732W        W31993  10.526  12.017   4.434 -0.0625  0.2192  0.0230
15733W        W31994  15.705  14.074   0.398 -0.0582 -0.1456 -0.4034
15734W        W31995   3.242   0.755  12.826  0.0530  0.0470 -0.0295
15735W        W31996   6.390   0.461   5.963 -0.3143  0.0371 -0.3012
15736W        W31997   0.836  15.706   2.385 -0.0759  0.1559  0.1142
15737W        W31998  17.668  16.430  14.718 -0.2802 -0.2325 -0.1962
15738W        W31999  11.391  12.154  15.123  0.0361 -0.0932  0.0364
15739W        W32000  11.812  17.653  12.031 -0.1353  0.0418  0.0269
15740W        W32001   4.110   5.048  12.213  0.0469  0.1115 -0.0009
15741W        W32002  14.624  17.728   4.121  0.1046 -0.1892 -0.3264
15742W        W32003   9.575  17.414   6.091  0.0386 -0.0411  0.0731
15743W        W32004   8.628  14.877   2.710 -0.3086  0.0414  0.1820
15744W        W32005  11.246   7.021   4.497  0.0287  0.1618 -0.0225
15745W        W32006  13.653   5.614  15.676  0.0355 -0.0738  0.1093
15746W        W32007   0.522   1.500   5.585 -0.0289  0.0827 -0.5051
15747W        W32008  10.913   2.946   0.038 -0.1329  0.0430  0.0380
15748W        W32009  12.811   0.637   2.686 -0.0152 -0.3333 -0.0556
15749W        W32010  12.811   0.890   0.531  0.4079  0.1540  0.2281
15750W        W32011   5.972  15.802  14.470 -0.0725  0.0065  0.1514
15751W        W32012  12.648  11.041  15.402  0.0959 -0.1760 -0.2911
15752W        W32013  12.557   5.961  13.592 -0.1684  0.0624  0.0845
15753W        W32014   6.917  10.074   4.010  0.0727  0.1410  0.0499
15754W        W32015  13.764   7.138   2.830  0.0303  0.2117  0.1464
15755W        W32016  12.215  12.427   4.651 -0.0394  0.2430 -0.0915
15756W        W32017  10.497   3.903   1.778 -0.0063  0.1684 -0.0328
15757W        W32018   0.848  12.074   2.498  0.1893 -0.1740 -0.1298
15758W        W32019   9.664   0.436   5.169 -0.2735 -0.0952 -0.1096
15759W        W32020   4.638   4.153  13.200 -0.1460  0.0548  0.2618
15760W        W32021   2.388   4.667   0.553 -0.0860 -0.1537 -0.1857
15761W        W32022   6.013  10.006   3.150 -0.1021  0.2671 -0.0302
15762W        W32023   1.321   5.266  16.016 -0.0455 -0.1439  0.0964
15763W        W32024   2.044   5.144  15.777 -0.0211  0.0914  0.0112
15764W        W32025   4.284   8.484  12.658  0.2221 -0.1129  0.0482
15765W        W32026  12.110   4.526  14.659 -0.1912  0.1618 -0.2414
15766W        W32027   8.842   7.427   2.604  0.1582  0.1532  0.2191
15767W        W32028  10.966  16.661   4.493  0.1453  0.2100 -0.0594
15768W        W32029   9.475   8.799   0.004 -0.0012 -0.0747 -0.0655
15769W        W32030  15.515   6.215   3.173 -0.0071  0.0060 -0.1742
15770W        W32031  10.332   4.862   4.211  0.0395  0.3430 -0.0704
15771W        W32032  13.291   7.272  16.130  0.1599 -0.1331 -0.0059
15772W        W32033  11.747   1.460  14.713  0.2036 -0.1599  0.4720
15773W        W32034  16.549  12.630   5.101  0.1099  0.0863 -0.1957
15774W        W32035   2.750   3.340  13.639 -0.1451  0.4036  0.2029
15775W        W32036   4.891  14.323   1.355  0.2113  0.1520  0.2547
15776W        W32037  10.018   9.802   3.352 -0.1027 -0.0185 -0.2884
15777W        W32038  17.142   0.662  15.316  0.0599  0.0414  0.1520
15778W        W32039   2.859  16.797   0.254 -0.4313  0.0446 -0.2292
15779W        W32040   8.278  13.839  11.958  0.3010 -0.1829  0.1646
15780W        W32041  12.444  11.250  16.238  0.0320 -0.1176 -0.0522
15781W        W32042  15.463  11.792   0.854 -0.0300 -0.1318 -0.1811
15782W        W32043  17.184  10.585  14.618 -0.3264  0.0411  0.3220
15783W        W32044  12.208   0.790  15.831  0.1315  0.1086  0.0011
15784W        W32045   1.556  17.597  16.576 -0.1976  0.2323 -0.3627
15785W        W32046   7.175  11.419  13.196 -0.2337  0.0104  0.0141
15786W        W32047   4.148  17.500   5.444  0.1760 -0.0692 -0.0601
15787W        W32048   9.307   4.546   4.676  0.2146 -0.1122 -0.2828
15788W        W32049   5.058   7.725  14.634  0.1101  0.3201 -0.0105
15789W        W32050  16.398  12.068   4.001  0.0463 -0.1839 -0.2364
15790W        W32051   4.767  13.569  13.390  0.0645 -0.0449 -0.2475
15791W        W32052  15.547  15.233   0.973 -0.2759 -0.1344 -0.1889
15792W        W32053   6.953   9.535  16.720 -0.0559 -0.1567 -0.1409
15793W        W32054  16.945  10.964   4.742 -0.1775 -0.0368 -0.1073
15794W        W32055   5.661   0.629   0.649 -0.1610 -0.1346  0.1474
15795W        W32056   1.806  10.030   1.627 -0.0467  0.1903  0.1009
15796W        W32057  12.823   8.543  13.443  0.1645 -0.0044  0.3583
15797W        W32058  13.041  13.054   2.946 -0.0845 -0.1239 -0.3001
15798W        W32059   5.419  10.328  13.174  0.3080 -0.2354 -0.2500
15799W        W32060  14.318  14.089  11.911  0.1252  0.0937  0.0200
15800W        W32061   0.045   8.949  15.629 -0.1531 -0.1519  0.0342
15801W        W32062  15.008   4.682  15.841  0.0700  0.0703 -0.1077
15802W        W32063   5.735   6.079  13.290  0.0742  0.3489  0.2293
15803W        W32064  16.370  14.774   2.851  0.2842  0.5353  0.0806
15804W        W32065   0.650  15.140  11.791  0.2200  0.0573  0.0422
15805W        W32066  15.252   5.682  16.976 -0.2456 -0.0540 -0.0880
15806W        W32067   6.610  13.699  16.941 -0.0295 -0.1907 -0.1989
15807W        W32068  12.754  11.958  16.209  0.0861  0.3887 -0.2146
15808W        W32069  13.292  10.273  12.957  0.1704 -0.3641 -0.1864
15809W        W32070  10.099   9.517  14.715 -0.2872  0.1677 -0.2116
15810W        W32071   8.556  11.258   4.141 -0.0685 -0.2320  0.0555
15811W        W32072  12.612  13.723   0.637 -0.3806  0.1715 -0.1663
15812W        W32073  12.079   7.265  11.916  0.0299  0.1412 -0.1110
15813W        W32074  10.534  10.455   2.782  0.1300 -0.0615  0.3028
15814W        W32075   1.650  15.617  15.024  0.0741  0.1651 -0.0129
15815W        W32076  11.121  14.549   1.996  0.2263 -0.0060 -0.2149
15816W        W32077  12.149   9.115  14.957  0.0266 -0.0205 -0.1763
15817W        W32078  12.406   6.762  15.814  0.1912  0.2106 -0.1498
15818W        W32079   7.937  13.593   3.105 -0.0062 -0.1367 -0.0895
15819W        W32080  12.761  16.184  15.983 -0.2297  0.2085  0.2056
15820W        W32081  11.812   7.496  15.208  0.0804 -0.1903 -0.1126
15821W        W32082  10.581   4.519   3.379 -0.0403  0.4115 -0.0599
15822W        W32083   3.407   1.041   2.578  0.1121 -0.0513 -0.1919
15823W        W32084  14.590   7.656   3.228  0.1440 -0.0546  0.3189
15824W        W32085  15.267   3.652  16.750  0.1085 -0.1783  0.2553
15825W        W32086   8.170   9.800  16.386  0.0256  0.1551  0.1099
15826W        W32087   1.856  11.008  16.505  0.0326 -0.1246 -0.3507
15827W        W32088   4.567  15.983   4.614 -0.2524 -0.1803  0.0300
15828W        W32089  16.529   5.322  12.365  0.1926 -0.1718  0.0516
15829W        W32090  15.684  17.801   2.974 -0.2562 -0.1563  0.0852
15830W        W32091  11.572  13.762   2.419 -0.1603 -0.0049 -0.1837
15831W        W32092  16.557   5.202   3.037 -0.2550 -0.1185 -0.1219
15832W        W32093   6.557   5.434  13.093  0.1337 -0.2127 -0.4084
15833W        W32094  14.091   9.536   1.424 -0.2441  0.1060 -0.2957
15834W        W32095   7.939   8.812   4.016  0.1434  0.0344  0.0377
15835W        W32096   1.569   4.215   1.714  0.0623  0.0979  0.2261
15836W        W32097   4.262  15.009   1.735 -0.1715 -0.0174 -0.0210
15837W        W32098   4.237   1.466   1.089  0.0944 -0.2024  0.0189
15838W        W32099  14.529  12.818   0.854 -0.2061 -0.0807  0.2915
15839W        W32100   0.333   4.230  16.258  0.1651  0.0590  0.3383
15840W        W32101  15.645  13.564  13.056  0.2939 -0.2167 -0.0798
15841W        W32102  17.487   2.422   1.491 -0.0762  0.1206 -0.3702
15842W        W32103  17.486  15.638   5.260  0.1593  0.0669  0.0859
15843W        W32104   6.030   0.804   1.851 -0.0816  0.1229 -0.0582
15844W        W32105  15.393   8.708   2.605 -0.1291 -0.2789  0.0251
15845W        W32106  11.421   5.689   1.383 -0.0638 -0.1868 -0.0933
15846W        W32107   4.498  15.412   3.526  0.0857  0.5025  0.0329
15847W        W32108  13.736   6.544   0.179 -0.0044 -0.2177  0.4224
15848W        W32109   3.864  16.710   4.651 -0.0631 -0.0822 -0.1452
15849W        W32110  11.593  13.183   2.360 -0.1391  0.0674  0.2559
15850W        W32111  12.165   9.438  12.525 -0.4543  0.1933 -0.0926
15851W        W32112   4.192   3.143   1.855  0.0589 -0.0525  0.0108
15852W        W32113  17.622   2.712   2.481  0.1504  0.2485  0.1670
15853W        W32114   0.968  12.070  14.651 -0.1987  0.1453 -0.1050
15854W        W32115   7.511   1.571   5.077 -0.1520 -0.0405 -0.3810
15855W        W32116   8.591   8.793   0.971  0.0325 -0.1445  0.0616
15856W        W32117  12.067  16.970  14.191  0.0585 -0.0284 -0.1844
15857W        W32118  16.329  11.925  12.239 -0.3169  0.0843  0.0153
15858W        W32119  14.743  12.292   2.873 -0.1413  0.1273  0.2707
15859W        W32120   3.339  11.904  14.314 -0.0938  0.2853  0.1200
15860W        W32121  11.754   2.076   1.458  0.2032 -0.0986 -0.0360
15861W        W32122  11.507  10.001  14.233  0.0138 -0.0421  0.2239
15862W        W32123  17.062  10.886   3.207  0.0516  0.1143 -0.1163
15863W        W32124   8.087   8.995  16.128 -0.0200 -0.2463  0.1135
15864W        W32125  15.134   7.829   3.743 -0.0776  0.1690  0.3215
15865W        W32126  16.040  13.454  16.199 -0.0434  0.0358 -0.3378
15866W        W32127  11.896  12.331   2.726  0.0450  0.1905  0.1247
15867W        W32128   8.252   5.577  12.632  0.2244  0.0249 -0.1665
15868W        W32129   1.701   5.187  12.690  0.0473  0.0763  0.3070
15869W        W32130  17.714  15.719  12.884 -0.0882  0.1428 -0.2920
15870W        W32131   3.377  13.183   0.537 -0.1444 -0.2477 -0.2629
15871W        W32132   2.796  10.594  14.146 -0.1056 -0.1709  0.3929
15872W        W32133  17.523   6.665   5.831 -0.3092  0.2720 -0.4519
15873W        W32134   3.128   8.206   2.844 -0.1816  0.1078  0.2491
15874W        W32135   0.018   4.357  16.728  0.3268  0.0278  0.4270
15875W        W32136  17.837   8.868   1.515  0.0293  0.0875 -0.1875
15876W        W32137   0.925   8.764   1.782 -0.0882 -0.1375  0.0668
15877W        W32138   9.552   5.245  14.615  0.1445  0.0998 -0.0512
15878W        W32139   2.381  13.898   4.936 -0.1375 -0.0997 -0.2876
15879W        W32140   6.434  16.094   0.374  0.2692  0.4213 -0.2198
15880W        W32141   6.152  14.534  12.487 -0.1087  0.0724  0.1210
15881W        W32142   6.853  15.333  16.111  0.2391 -0.1301 -0.3955
15882W        W32143   0.146   8.813  12.771 -0.2313 -0.0496 -0.0479
15883W        W32144  13.213  10.889  13.227  0.0165  0.4744  0.0063
15884W        W32145   0.755   9.889   0.098  0.2000 -0.0054 -0.0776
15885W        W32146   7.069   7.876  13.760 -0.2478 -0.1013  0.0586
15886W        W32147  10.565  16.523   3.296 -0.0816 -0.4205  0.3190
15887W        W32148  16.538   6.923  13.500 -0.1064  0.1780 -0.1996
15888W        W32149   8.558  11.604  13.913 -0.2534  0.2765  0.1872
15889W        W32150  10.004   6.915  11.399  0.2008  0.3076 -0.1017
15890W        W32151  17.353  11.795  13.927  0.1541  0.1424 -0.0070
15891W        W32152  15.896   0.865   2.582  0.3427  0.0247  0.2065
15892W        W32153  10.886   2.406  12.002  0.2685 -0.1651 -0.1671
15893W        W32154  14.238   3.771   1.713 -0.0933 -0.0561 -0.2868
15894W        W32155   8.854   6.363   4.297  0.0972  0.0464  0.0486
15895W        W32156  14.567  12.318  13.593 -0.2255  0.0257  0.1362
15896W        W32157  12.043   9.316   4.479 -0.0066 -0.2409 -0.3819
15897W        W32158  15.150   6.405   5.371  0.0871  0.3464 -0.4159
15898W        W32159  17.680  16.720  11.960  0.1869 -0.2114  0.2037
15899W        W32160  14.025  12.678   2.876  0.2498  0.0464  0.1408
15900W        W32161   0.203  12.455  16.522 -0.2266 -0.3858 -0.2719
15901W        W32162   2.969  13.626  16.361  0.1887 -0.2245  0.1447
15902W        W32163   1.496  12.405   2.283 -0.0193  0.1605  0.0948
15903W        W32164   1.114  10.463  15.580 -0.0330  0.3033 -0.0272
15904W        W32165  12.397   9.035   1.272  0.3031  0.0705 -0.4974
15905W        W32166  14.892  10.395  13.597 -0.1846  0.0895  0.2142
15906W        W32167   7.273  10.420   0.974  0.0515  0.1216  0.0421
15907W        W32168   6.352   5.923  16.894  0.0583  0.1910  0.2481
15908W        W32169  13.461   0.973  16.860 -0.1128 -0.0957  0.0634
15909W        W32170  11.473   2.619   5.846  0.1031 -0.1623 -0.0191
15910W        W32171   2.524  13.753   0.520  0.1785 -0.1928 -0.0648
15911W        W32172  17.446   8.717  13.906 -0.1924 -0.1962  0.1164
15912W        W32173   8.670   3.789   0.211 -0.1370 -0.0017 -0.1056
15913W        W32174   5.902   9.089  14.190  0.2783 -0.0612 -0.0108
15914W        W32175   9.711  11.791  15.748  0.0976 -0.1248  0.0853
15915W        W32176   5.080   2.296   0.550  0.0787  0.0430 -0.1061
15916W        W32177  16.997  11.971   1.014  0.0738  0.0421  0.1286
15917W        W32178   7.438  10.577  14.575  0.0663 -0.2127 -0.0825
15918W        W32179  14.065  17.044   0.264 -0.0536 -0.0497 -0.0671
15919W        W32180   4.846  10.375   2.316 -0.0311 -0.0187  0.2453
15920W        W32181   6.105   6.879  12.307 -0.0828 -0.3004  0.0263
15921W        W32182  11.747   5.194  16.038 -0.3745  0.0979 -0.0479
15922W        W32183  12.056  13.153   2.882 -0.0691 -0.1238 -0.0042
15923W        W32184  14.017  13.074   3.202 -0.0845  0.0795  0.2855
15924W        W32185   9.440   4.303  12.848  0.0673  0.1217 -0.1529
15925W        W32186  13.910  12.910   1.272 -0.0990 -0.4815  0.0998
15926W        W32187  17.196   7.751  16.832 -0.2723  0.4368  0.0869
15927W        W32188  15.061   2.184  13.246  0.1798 -0.3094 -0.1807
15928W        W32189   2.837   8.502   4.298  0.1572 -0.0511 -0.1428
15929W        W32190   3.788   3.991   4.177 -0.0442  0.1698  0.1633
15930W        W32191   2.705   6.352  12.325  0.2291  0.0519 -0.1867
15931W        W32192  17.626   4.455   2.703 -0.1488 -0.0055 -0.0011
15932W        W32193  14.967   0.174  13.365  0.0957 -0.1689  0.2902
15933W        W32194   9.500  17.064  12.421  0.2581 -0.1830 -0.0566
15934W        W32195  13.789   2.434   3.700  0.0249  0.1704 -0.0423
15935W        W32196   2.380   4.947   3.334 -0.3160  0.1170 -0.1557
15936W        W32197  10.277   6.569  12.329  0.0129  0.0882  0.0966
15937W        W32198   6.503   8.451  16.435 -0.2680 -0.0672  0.0831
15938W        W32199  17.366   9.078   3.911 -0.2411 -0.2244  0.0402
15939W        W32200   6.193  17.635   5.307  0.0064  0.3456 -0.1429
15940W        W32201   5.432   9.147   1.911  0.1370 -0.0396  0.0069
15941W        W32202   5.234   0.089  15.204  0.1221  0.1443 -0.1835
15942W        W32203   5.571   2.333   0.309  0.0608 -0.3742 -0.2743
15943W        W32204  15.039   0.971   0.779  0.4641 -0.0037  0.2535
15944W        W32205  12.067   5.025   5.882  0.1972  0.0312  0.0454
15945W        W32206  15.294   1.771   3.746  0.1749  0.1884 -0.0641
15946W        W32207   1.697  10.430   4.473 -0.1414  0.1621 -0.2807
15947W        W32208  15.788  17.682  12.602  0.1964  0.0890  0.0210
15948W        W32209  10.086  12.738  16.280  0.0827  0.0471  0.0215
15949W        W32210   3.100  11.264  16.631  0.0845  0.1325  0.0735
15950W        W32211   8.254  16.392   1.041  0.2332 -0.1579  0.1766
15951W        W32212   3.436  12.855  12.358 -0.0141 -0.0104  0.1286
15952W        W32213  12.083   6.542   6.662  0.0054 -0.3452  0.0832
15953W        W32214  14.438  12.474  12.544 -0.0422 -0.2619 -0.1437
15954W        W32215   3.570  10.313   5.554 -0.2432 -0.2039 -0.2180
15955W        W32216  14.493  14.760  13.305 -0.0890 -0.3994 -0.0882
15956W        W32217   7.463   7.904  11.808  0.0568 -0.0803 -0.0121
15957W        W32218   8.247   3.814   3.414  0.4265  0.0877 -0.3840
15958W        W32219   2.346   3.660  14.349 -0.1753  0.0498 -0.0129
15959W        W32220   9.617  15.411   0.869  0.4224 -0.0913  0.0943
15960W        W32221   9.046   4.715  15.430 -0.1425  0.1409  0.2180
15961W        W32222   4.029  10.367  16.926  0.1665  0.1694  0.0012
15962W        W32223   4.921  12.753  14.806  0.3330 -0.0534  0.0476
15963W        W32224  11.949  15.748  14.177 -0.3133 -0.2710  0.0311
15964W        W32225   0.544  14.012   5.414  0.0243 -0.1090 -0.1718
15965W        W32226   1.908   2.737  14.847  0.2044 -0.2659 -0.1871
15966W        W32227  10.216   6.920  16.427  0.1348  0.1610  0.0625
15967W        W32228   4.145   0.027   1.842  0.2498  0.0990  0.1897
15968W        W32229   4.458   9.342  12.386  0.0854  0.1294 -0.2920
15969W        W32230  11.635  13.636   1.053 -0.1880  0.1970 -0.0816
15970W        W32231  13.550   4.929   3.407 -0.1334  0.1112 -0.1414
15971W        W32232   7.006   2.953   2.111 -0.2891  0.0408  0.1020
15972W        W32233   7.431  13.516  11.689 -0.2031  0.1960 -0.2109
15973W        W32234  17.240  16.650   4.031 -0.0674 -0.0119 -0.0443
15974W        W32235  13.565   3.320   3.448  0.3483 -0.0538 -0.1029
15975W        W32236  13.216  13.219   0.113  0.0173 -0.3201  0.0212
15976W        W32237  16.314   4.847   2.687  0.1079  0.0309 -0.0965
15977W        W32238   1.733  15.989  13.730  0.2054 -0.4167 -0.3891
15978W        W32239   3.812   7.934  12.684 -0.0988  0.1218 -0.0744
15979W        W32240   4.960  14.265   2.731 -0.3800  0.0522 -0.1231
15980W        W32241  12.051  10.624  14.028  0.2930 -0.1109 -0.0962
15981W        W32242   6.236   9.475  13.219 -0.1062  0.0635 -0.2854
15982W        W32243  13.663   6.429  16.154  0.0884  0.3190  0.3403
15983W        W32244  11.850  17.700  14.534 -0.1795 -0.3729 -0.0709
15984W        W32245   3.072   0.249  15.544 -0.4030 -0.2028  0.1497
15985W        W32246   3.084  11.489   4.522 -0.1483 -0.1098 -0.1486
15986W        W32247  10.799  15.636  11.731 -0.0138  0.0091 -0.0972
15987W        W32248   6.613  10.043   1.560  0.1604 -0.0703 -0.2516
15988W        W32249  17.229  13.947   4.091 -0.1079 -0.0323  0.3441
15989W        W32250  16.260   3.421  16.512  0.0318 -0.0895 -0.4254
15990W        W32251   2.163  13.740   2.107 -0.1663  0.2640  0.0759
15991W        W32252   4.910  11.882  12.619  0.1286  0.1319  0.2405
15992W        W32253   2.779   7.502   5.283  0.0861 -0.1819  0.4076
15993W        W32254  11.014  10.304   4.204  0.5435 -0.3616  0.3583
15994W        W32255   9.650  12.113  15.050 -0.2982  0.1757 -0.3902
15995W        W32256   6.842   9.333  14.027  0.0293  0.0836 -0.1848
15996W        W32257  11.389  16.070   1.351  0.2495  0.0562 -0.1647
15997W        W32258   2.347   2.611  14.769  0.0101 -0.0320 -0.0891
15998W        W32259  14.637  10.159  12.845 -0.1585 -0.1143 -0.0641
15999W        W32260   4.314  12.629   1.697  0.2477 -0.1965  0.0593
16000W        W32261  15.983   7.099  13.773  0.0683  0.0866  0.0992
16001W        W32262  13.234   7.808  15.950  0.0974  0.1517 -0.0936
16002W        W32263  10.483   8.514   3.359 -0.0870  0.1485 -0.0578
16003W        W32264   9.352  13.068   5.597 -0.2549  0.1478  0.0163
16004W        W32265   5.808  11.621   2.360  0.1974 -0.0391 -0.0195
16005W        W32266  11.655   1.552  13.710 -0.3569  0.2056  0.1523
16006W        W32267  15.520  12.251   0.206 -0.2880 -0.3252  0.3280
16007W        W32268   8.785   8.631   3.897 -0.2513 -0.2044  0.0107
16008W        W32269  13.008   8.957   2.249 -0.1644  0.2505 -0.0326
16009W        W32270  10.901   2.583   1.531  0.1619 -0.0766 -0.0847
16010W        W32271  17.560   0.738   3.153 -0.1661 -0.2164  0.1040
16011W        W32272   4.005  16.783   0.072 -0.0172  0.0645  0.3028
16012W        W32273   5.908   6.908   3.164 -0.0863 -0.2342  0.1467
16013W        W32274   5.388   8.837  15.795 -0.0510 -0.0436 -0.0957
16014W        W32275  15.904   0.567  12.174  0.2996 -0.0106 -0.2537
16015W        W32276   4.096   1.881   3.188  0.1086 -0.1989 -0.0657
16016W        W32277   3.036  14.383   3.885  0.0840 -0.0235  0.0848
16017W        W32278  11.214   4.323  16.162  0.2121  0.0460 -0.2245
16018W        W32279   0.703  12.146  11.892 -0.0612 -0.0369  0.0137
16019W        W32280   1.515  12.617   1.350  0.4203 -0.1622  0.2948
16020W        W32281  16.291   1.583   2.175  0.1139  0.0118 -0.0702
16021W        W32282  15.537   9.818   2.958  0.2119 -0.2006 -0.1288
16022W        W32283  17.804  15.633   2.640 -0.0100 -0.0065 -0.0219
16023W        W32284   1.244   7.531  15.880 -0.2713  0.1965  0.1856
16024W        W32285  14.324  15.365  14.876  0.2195 -0.1681 -0.3075
16025W        W32286   8.328   3.755  16.796  0.0048  0.4325 -0.0695
16026W        W32287   2.193  14.151   3.871 -0.1478  0.1208  0.0520
16027W        W32288   9.324   1.667  11.778  0.2753  0.1265 -0.0157
16028W        W32289   3.500  10.365  16.383  0.0555 -0.0828 -0.0488
16029W        W32290   3.596   8.756   4.869  0.0336  0.0271 -0.4316
16030W        W32291  16.037   6.860  14.725 -0.1002  0.2184  0.0870
16031W        W32292   8.318  12.968  13.648  0.0725 -0.1060  0.0414
16032W        W32293  14.908   7.183  11.736  0.3178  0.1393 -0.3007
16033W        W32294  16.146   7.691   3.340 -0.0462  0.1925  0.0908
16034W        W32295   2.916  11.242   0.857 -0.1023 -0.2162  0.0804
16035W        W32296  10.686   7.897  15.770 -0.1471 -0.2475  0.0268
16036W        W32297   5.858   8.355   0.121  0.2434  0.2315 -0.0152
16037W        W32298   6.776   2.151   4.563  0.6073  0.2201  0.0063
16038W        W32299   0.883  14.549  12.561  0.2366  0.5583 -0.0596
16039W        W32300   0.572   0.299   4.421 -0.1216  0.0320 -0.1315
16040W        W32301   7.758  11.218   2.522  0.1110  0.3107  0.1191
16041W        W32302   3.516   3.163   4.571 -0.2247 -0.1997  0.2562
16042W        W32303  10.586   2.984   4.659  0.2164 -0.0796  0.1816
16043W        W32304   5.682   6.671   2.403  0.2132  0.0941  0.3393
16044W        W32305  10.283  12.876   5.517 -0.2099  0.0775  0.1933
16045W        W32306   8.446   6.387   4.702 -0.1814  0.3285  0.2333
16046W        W32307   4.427  11.297   0.307 -0.0384  0.4119 -0.1868
16047W        W32308  17.081  17.401  14.760  0.0419 -0.0357  0.0981
16048W        W32309   9.800   5.472   3.913  0.0972 -0.2130  0.1034
16049W        W32310  14.500  12.869   4.633 -0.1680 -0.1617 -0.4472
16050W        W32311  11.142  11.332  11.826  0.1866  0.1734 -0.2323
16051W        W32312  13.132   2.169  13.614  0.0804 -0.4849  0.1303
16052W        W32313  14.209   0.132  15.859 -0.0871 -0.0833  0.0895
16053W        W32314  16.675   4.559   2.460 -0.0859 -0.2350  0.1848
16054W        W32315  12.056   5.941   4.384 -0.0104  0.0587 -0.0322
16055W        W32316   6.455  15.205   3.105 -0.0589 -0.5055  0.0125
16056W        W32317   5.444   9.720  15.827  0.1683  0.1040  0.0558
16057W        W32318   3.792   8.004   5.648  0.0619  0.2319 -0.1062
16058W        W32319  17.681  13.020   1.694  0.1467 -0.1183  0.1137
16059W        W32320  13.427   9.218  14.928 -0.1983  0.3760  0.0344
16060W        W32321   6.949   8.689   2.702 -0.0998  0.0468 -0.0643
16061W        W32322  10.168  16.118  14.532 -0.3272 -0.4552  0.0856
16062W        W32323  15.040  16.121  16.104  0.3775 -0.2935 -0.0908
16063W        W32324  14.655   0.750  15.721 -0.0614  0.1801  0.0925
16064W        W32325  10.764   6.741  16.186 -0.2110 -0.1739 -0.1609
16065W        W32326  14.585   4.440  15.708 -0.2146  0.1225  0.3920
16066W        W32327  12.654  11.957  11.713 -0.0331 -0.1719 -0.1766
16067W        W32328   7.965   3.031   2.275  0.2311 -0.0496 -0.0103
16068W        W32329  14.579  13.836  14.398  0.0926  0.3859 -0.0220
16069W        W32330   5.817   5.824   0.329  0.1443 -0.1056 -0.0387
16070W        W32331   3.441  16.597   1.074 -0.1347  0.2349  0.1159
16071W        W32332  15.905  10.930  14.331 -0.3914  0.0731 -0.0617
16072W        W32333  13.616  16.535  16.392  0.2730 -0.1645 -0.0743
16073W        W32334   3.449  10.233  12.869  0.0090  0.0088  0.0196
16074W        W32335   2.493   0.052  16.895 -0.0408  0.0430  0.0479
16075W        W32336   5.601  11.704   5.647  0.0775 -0.2279 -0.0356
16076W        W32337   2.864   1.213   2.632  0.1175 -0.1068  0.3714
16077W        W32338  14.021   7.412   0.816  0.0003  0.2063  0.0154
16078W        W32339   1.735   0.188  15.632 -0.0098  0.1604  0.0752
16079W        W32340   4.464  12.682   1.214 -0.1122 -0.1113  0.2650
16080W        W32341  15.122  14.100   0.407 -0.0340 -0.0610 -0.1681
16081W        W32342   2.592  17.253   5.917 -0.0747  0.1197 -0.1416
16082W        W32343  14.754  14.779   2.199 -0.1650 -0.1969 -0.2200
16083W        W32344   4.412  10.988   2.832 -0.0897  0.4334 -0.1733
16084W        W32345   7.888   6.006   2.841  0.1764 -0.1805 -0.1078
16085W        W32346   1.116   6.478   4.124 -0.0383 -0.0138  0.2642
16086W        W32347   5.531   0.476  14.052  0.1002 -0.1518 -0.0419
16087W        W32348   9.324   0.327  16.234 -0.0421  0.0996 -0.2495
16088W        W32349  16.729  13.438  15.389 -0.2984 -0.1555 -0.0547
16089W        W32350  10.957   0.066  11.643 -0.1161 -0.0547 -0.4071
16090W        W32351  10.606   9.440   4.977  0.1958 -0.0252  0.1885
16091W        W32352   3.860   4.387  15.013  0.0856  0.1225  0.0700
16092W        W32353   2.482  14.942  15.430  0.3358  0.0275 -0.1108
16093W        W32354  15.323  11.850  14.702 -0.1839 -0.4043 -0.0210
16094W        W32355   8.877  16.960  12.198  0.1811 -0.1259  0.3733
16095W        W32356   9.742  10.606   1.532  0.2936  0.1637 -0.0858
16096W        W32357  14.671  10.999  15.767  0.2093 -0.0151 -0.1408
16097W        W32358   7.474   2.618  13.864 -0.0935  0.2298 -0.2678
16098W        W32359   3.827   5.846   1.955  0.3692 -0.4335  0.2505
16099W        W32360   6.822   0.402   2.881  0.1475  0.2075 -0.2679
16100W        W32361  12.856  14.279   3.235  0.3245 -0.0201  0.0069
16101W        W32362   4.410  14.222   2.084  0.1639 -0.0888  0.0579
16102W        W32363   5.139  16.729   4.124 -0.3340 -0.1193  0.2363
16103W        W32364   8.382   3.452  11.972  0.2446 -0.0172 -0.2563
16104W        W32365   8.978   6.371  16.958  0.0817  0.2797  0.0169
16105W        W32366   8.674  11.878  13.074 -0.0541 -0.0725  0.0435
16106W        W32367   0.830  15.025  11.239 -0.2468 -0.0486 -0.0862
16107W        W32368  16.686   8.488   0.209  0.2465  0.1391  0.1124
16108W        W32369  16.520   1.896   3.575  0.0136  0.0577  0.2289
16109W        W32370  13.751   8.336   4.274  0.0569 -0.2669 -0.0002
16110W        W32371  13.154   5.639   2.420  0.1050  0.4125  0.1288
16111W        W32372  17.021  11.418   5.001 -0.1325 -0.3201  0.1905
16112W        W32373   6.667   2.476   1.950 -0.2676 -0.3413 -0.2009
16113W        W32374   0.146   9.620  15.823  0.0086 -0.0611  0.2389
16114W        W32375  13.549   9.884   2.981  0.0410 -0.0569  0.0663
16115W        W32376  15.655   5.340  15.514  0.1395 -0.2265 -0.0750
16116W        W32377   4.713  16.928  13.569  0.0289  0.4169  0.0488
16117W        W32378  12.954   1.274  16.106 -0.0527 -0.0902  0.0025
16118W        W32379  11.497  13.583  12.497 -0.3001  0.1142 -0.0842
16119W        W32380  13.163  12.759  14.741 -0.2398  0.0336  0.3047
16120W        W32381   2.474   8.333   0.400 -0.0430  0.0813 -0.0581
16121W        W32382  11.536   3.446  16.703  0.0536  0.0257 -0.0573
16122W        W32383   1.857   7.198   1.293 -0.0331 -0.0181 -0.1690
16123W        W32384  16.486  16.035   2.969 -0.1298  0.1484  0.0855
16124W        W32385   2.379  14.860  11.928 -0.1334  0.0431  0.2396
16125W        W32386  12.335  14.702  16.378 -0.0650 -0.2871  0.1965
16126W        W32387   0.117   2.036  15.919  0.3502 -0.0228  0.3581
16127W        W32388   8.965   4.225  16.656 -0.1792 -0.0798 -0.0650
16128W        W32389  12.835  10.461  14.910  0.2576 -0.2398  0.0639
16129W        W32390  14.565   7.820  16.574 -0.3193 -0.4029 -0.0690
16130W        W32391  14.713   6.739  16.114  0.2299 -0.0052  0.0188
16131W        W32392   6.612   4.177   3.491 -0.2814  0.3251  0.1636
16132W        W32393   1.079   2.453  12.518  0.1683 -0.1109 -0.0536
16133W        W32394   6.346  11.268  12.176  0.4886 -0.1289 -0.1211
16134W        W32395   6.667   0.162  11.558 -0.1013 -0.3446 -0.1770
16135W        W32396   7.304  14.459   3.920 -0.1583 -0.0763 -0.2617
16136W        W32397   4.198   4.388  13.338  0.1708  0.2226  0.2140
16137W        W32398   8.122  13.660  15.179  0.0119 -0.1018  0.2977
16138W        W32399  11.903  13.907   1.630  0.2753 -0.0776  0.0280
16139W        W32400  12.946  11.387  15.213  0.0561  0.2511  0.1319
16140W        W32401  15.650   7.425   3.080 -0.1220 -0.0715 -0.2676
16141W        W32402   4.691   3.140   1.048  0.3504 -0.4798 -0.1794
16142W        W32403   0.364  11.018   2.524 -0.3124 -0.0934 -0.1700
16143W        W32404   0.500   2.594   2.135 -0.0283  0.0016 -0.0912
16144W        W32405   8.902   8.424   2.571  0.0540 -0.0253  0.1101
16145W        W32406  11.099  13.923  12.466  0.0144 -0.1385  0.1443
16146W        W32407  16.868  10.977  14.666  0.0579 -0.0516  0.3201
16147W        W32408   7.074   4.585   4.527  0.1212  0.0358  0.3593
16148W        W32409  13.011  17.049   0.172 -0.0128 -0.0142  0.1688
16149W        W32410  12.413  16.408   2.083  0.1394  0.1274 -0.2109
16150W        W32411   9.293   9.413  15.209 -0.2094  0.1648  0.0691
16151W        W32412  15.994  17.184   2.904  0.1843 -0.3895  0.2393
16152W        W32413  16.149  13.156   3.493 -0.0110  0.0170 -0.0958
16153W        W32414   3.121  16.508   3.381 -0.0774  0.3440 -0.0939
16154W        W32415   2.298  12.495   0.714 -0.1095 -0.4038  0.0494
16155W        W32416  15.524  12.094  14.091  0.0670  0.0764  0.1278
16156W        W32417  11.329  10.355   1.398 -0.0390  0.1110 -0.0795
16157W        W32418   0.780  13.427   2.931 -0.0947  0.0742 -0.1641
16158W        W32419  14.816  12.624  16.513  0.0464  0.0694  0.0365
16159W        W32420  14.358   3.179   5.824  0.1863  0.1118 -0.1999
16160W        W32421   9.102   9.061  12.953 -0.0354  0.0854 -0.1300
16161W        W32422  11.928  10.791  16.588 -0.3376  0.0282  0.0825
16162W        W32423   8.366  15.542   3.829  0.0760  0.0425 -0.0223
16163W        W32424  16.772   9.118  15.128  0.3320 -0.1639  0.1302
16164W        W32425   8.741  11.460   0.008  0.2109  0.2831 -0.0841
16165W        W32426  16.542  15.731  14.396 -0.0768 -0.0521  0.0965
16166W        W32427   1.618   8.455  15.501 -0.0214 -0.0871  0.1096
16167W        W32428   7.888  11.830  16.360  0.2845 -0.0527  0.0624
16168W        W32429   3.837   8.867   4.352  0.1258 -0.1285 -0.0218
16169W        W32430  11.710  17.308  16.120 -0.1595  0.0918  0.1445
16170W        W32431   1.251   6.512   0.867  0.0302 -0.4385  0.0208
16171W        W32432   4.584  12.118  12.360 -0.2117  0.2054  0.1003
16172W        W32433   1.416  15.945  15.811  0.0104 -0.0241  0.2628
16173W        W32434  12.640  17.787   0.364  0.3932 -0.1156  0.0053
16174W        W32435   4.280   0.746  15.058 -0.0325 -0.1990 -0.0702
16175W        W32436  13.878   2.268   4.167 -0.0616  0.0845 -0.0591
16176W        W32437   1.768   7.396  16.677 -0.0810 -0.2121  0.2794
16177W        W32438  10.471   5.498   0.915  0.1050 -0.1458 -0.1566
16178W        W32439  17.638   8.748   5.113 -0.0341  0.2921 -0.0701
16179W        W32440  16.412  12.127  12.955  0.0313 -0.1799 -0.1528
16180W        W32441   3.279   4.663   1.755 -0.0963 -0.0681 -0.1173
16181W        W32442   7.986  11.822  13.923 -0.1932 -0.4035 -0.1069
16182W        W32443   5.820  16.878   2.923 -0.0174 -0.0593 -0.0930
16183W        W32444  15.137   8.064  14.312  0.0166 -0.0303 -0.0868
16184W        W32445  10.583   3.442   6.251  0.0269 -0.2910 -0.0024
16185W        W32446   8.191  12.837   4.910 -0.0745  0.1058  0.0227
16186W        W32447   9.318   6.824   3.057  0.3080  0.3832 -0.1119
16187W        W32448   0.733   2.644   4.518 -0.2016 -0.1900 -0.1973
16188W        W32449  15.915   7.537  13.497 -0.0208  0.1142 -0.1289
16189W        W32450   9.803   9.187  13.516 -0.0271 -0.0293  0.0058
16190W        W32451  17.057  14.976  15.348 -0.0737 -0.0574  0.2293
16191W        W32452   0.166   5.028  15.095  0.0050 -0.1208  0.0249
16192W        W32453  12.167   9.121  16.823  0.0064 -0.1540  0.0447
16193W        W32454   3.002   0.887   2.957 -0.0898 -0.0690  0.3278
16194W        W32455  17.194   3.923  15.284 -0.0753 -0.2081  0.0755
16195W        W32456  16.901   5.446  16.255 -0.0399 -0.2457 -0.1473
16196W        W32457   8.922  15.947  13.037 -0.0215 -0.0163  0.2850
16197W        W32458   2.950  10.760   4.368 -0.2114 -0.0593  0.0323
16198W        W32459  10.216   4.599   2.588  0.0262  0.1039  0.1707
16199W        W32460   6.884  10.000   1.112 -0.0465 -0.1051  0.2809
16200W        W32461   5.889  14.267   1.615 -0.0483 -0.0473  0.1384
16201W        W32462   6.406  15.420   0.533 -0.2812  0.0513 -0.1270
16202W        W32463  16.888  10.091  11.790  0.0974 -0.0770 -0.1519
16203W        W32464   3.999  14.551   1.966 -0.2152  0.0731 -0.0668
16204W        W32465   1.981   9.478   3.644 -0.2638  0.0470  0.0996
16205W        W32466   0.487   3.458  16.784 -0.0866 -0.2030  0.0106
16206W        W32467  17.474   7.378   4.338 -0.0511  0.1876  0.0710
16207W        W32468  16.228  10.286   2.878 -0.2928 -0.0180 -0.0454
16208W        W32469   0.709   3.541   0.650  0.0582  0.0050 -0.2716
16209W        W32470   5.861  13.282  12.185  0.0418 -0.1040  0.4267
16210W        W32471   8.842   3.350   4.564 -0.1138 -0.3293 -0.0946
16211W        W32472   3.969  14.462  11.735 -0.0773 -0.0111  0.2981
16212W        W32473   9.094   4.891  13.370  0.2140 -0.2503 -0.0719
16213W        W32474   6.014  16.566   4.480  0.1204 -0.0915  0.0104
16214W        W32475   6.828  13.595  12.563 -0.1692  0.2306  0.2446
16215W        W32476   5.390   8.846  13.185 -0.0764 -0.0977 -0.2603
16216W        W32477   7.866   5.421   5.548  0.0405  0.0599  0.1686
16217W        W32478  14.681  10.080   0.193 -0.0698  0.2856 -0.0927
16218W        W32479  12.790  12.430   2.801  0.3088 -0.0105  0.1397
16219W        W32480   9.007   5.954  13.282  0.0980 -0.1797  0.0356
16220W        W32481  14.349  17.263  13.890 -0.2523  0.3298  0.0361
16221W        W32482   3.423  16.043  13.796  0.0207  0.1959 -0.3318
16222W        W32483  11.327  15.470   2.323  0.2752 -0.0189 -0.2462
16223W        W32484   6.467   9.964  15.068 -0.1576  0.0648  0.0911
16224W        W32485   1.067   4.807   3.028 -0.2916 -0.0699  0.0612
16225W        W32486   1.544   2.142  16.183 -0.4686  0.3668 -0.0268
16226W        W32487  16.424   5.472  16.105 -0.2191  0.2139  0.0473
16227W        W32488   2.577   2.041  13.110 -0.0248  0.3971 -0.1905
16228W        W32489  12.004   2.447   0.530  0.1257 -0.1829 -0.2503
16229W        W32490  10.242  11.820  15.855  0.1088 -0.1303 -0.1200
16230W        W32491   3.928  15.776   1.310  0.0706  0.0405 -0.2420
16231W        W32492   9.258  17.737   3.636 -0.0453 -0.2294 -0.0095
16232W        W32493   8.441   4.192   0.390 -0.3609  0.3470  0.1626
16233W        W32494   1.095   7.801   1.737 -0.0495  0.0145  0.1335
16234W        W32495   8.686   1.680   3.889 -0.1040 -0.2370 -0.0960
16235W        W32496   9.165   3.968   0.104  0.0602 -0.1488  0.0515
16236W        W32497   5.504  14.593  13.092  0.0868  0.1729 -0.3443
16237W        W32498   7.486  17.804  12.210  0.0987 -0.0046  0.0690
16238W        W32499   4.437   7.458   4.062  0.0018 -0.0539  0.1225
16239W        W32500  15.072  12.200  13.443 -0.0314  0.0553 -0.0748
16240W        W32501   6.058  13.738  16.607 -0.2738 -0.0653 -0.0102
16241W        W32502  12.114   2.482   4.323  0.3557  0.0984 -0.2057
16242W        W32503   4.593  13.728  16.709  0.1810  0.0302  0.0270
16243W        W32504  13.769   9.573  14.955  0.0637  0.3395  0.0760
16244W        W32505   3.714   0.889   0.715 -0.1646 -0.1645  0.2091
16245W        W32506  12.826  11.680   5.618 -0.0595  0.0008 -0.0924
16246W        W32507   8.690   5.233  12.224  0.0202  0.1529  0.2368
16247W        W32508  16.580  13.916   1.975  0.0724 -0.3310  0.2335
16248W        W32509   6.469   3.534   5.815  0.3419 -0.3688  0.4008
16249W        W32510   4.892   5.769   1.539 -0.0480  0.3296  0.1291
16250W        W32511   9.510  12.852   2.478 -0.0156  0.0495 -0.3711
16251W        W32512  13.638  17.858  16.793 -0.0905 -0.3519 -0.2502
16252W        W32513  15.953  17.153   4.174  0.0528 -0.1447 -0.4088
16253W        W32514  12.151  17.367  11.785  0.1743 -0.1779  0.2482
16254W        W32515   1.692   2.726   5.062 -0.2890 -0.0644  0.0031
16255W        W32516  10.657   2.459   0.163 -0.1088 -0.0562 -0.1181
16256W        W32517   6.547   8.432   3.385 -0.1041 -0.0568  0.1723
16257W        W32518  13.838   4.898  15.264 -0.0300 -0.1392  0.5068
16258W        W32519  10.443   9.074   0.931 -0.2386 -0.1095  0.0052
16259W        W32520  11.503   4.470  14.153 -0.3075  0.0615 -0.1044
16260W        W32521   2.066   4.431   1.336 -0.1353  0.3864  0.1588
16261W        W32522   2.406   5.096  12.079 -0.0739 -0.2058  0.0996
16262W        W32523   6.317  10.320  13.227  0.1471 -0.3174 -0.2882
16263W        W32524  16.390   6.000  16.359 -0.0432  0.2136 -0.0743
16264W        W32525   3.375   6.131  15.300 -0.2688  0.0128 -0.1239
16265W        W32526   3.942  10.915   1.584  0.0099 -0.0048 -0.3115
16266W        W32527  16.042   3.761   1.592 -0.2305  0.2640 -0.0199
16267W        W32528   3.652  12.327  14.785  0.4327  0.0278  0.1612
16268W        W32529   4.515   1.082   1.475  0.3188  0.0271  0.1811
16269W        W32530  17.039  13.296   3.496 -0.2461 -0.4159  0.2843
16270W        W32531   2.731   1.326  15.526  0.1111  0.0834 -0.0372
16271W        W32532   3.919   7.170   0.703 -0.0297 -0.3357  0.0826
16272W        W32533  13.387   9.420  15.653  0.0331  0.1309 -0.0767
16273W        W32534   4.922  15.082   4.160 -0.0679 -0.0626  0.2503
16274W        W32535  10.938   1.121   6.208  0.0881 -0.0043  0.0694
16275W        W32536   6.562   3.331   5.349 -0.0271 -0.0193 -0.3840
16276W        W32537  15.870  13.231   0.995 -0.0711 -0.1706 -0.2409
16277W        W32538  13.393  10.388  12.458 -0.1410  0.0006  0.3244
16278W        W32539  15.734   3.372  15.269  0.0681  0.1666 -0.1109
16279W        W32540   8.586   8.946  14.986  0.0641  0.0267  0.0066
16280W        W32541   5.169   5.548  14.711 -0.4889  0.0913 -0.1487
16281W        W32542  17.380  10.272   2.666 -0.1192 -0.0082 -0.1348
16282W        W32543   9.129   3.818   4.449  0.0244  0.1754  0.1644
16283W        W32544   9.636   4.478  15.071  0.2063  0.0419 -0.0409
16284W        W32545   4.547  11.181  13.492 -0.2130  0.1252  0.0181
16285W        W32546  12.901   0.558  14.811  0.1975  0.0125 -0.1296
16286W        W32547   4.449   1.357   2.411  0.3962  0.0901  0.1186
16287W        W32548   8.633   0.473   0.927 -0.0186  0.0712 -0.1689
16288W        W32549   3.405   2.727   0.975 -0.2878  0.0776  0.0026
16289W        W32550  11.807   7.003  15.440  0.1245  0.0688 -0.1470
16290W        W32551   6.571  12.802   1.054  0.0473  0.1339 -0.0763
16291W        W32552  10.540  12.060   3.798 -0.0437  0.1190 -0.4714
16292W        W32553  12.968  12.512  16.635  0.0846  0.2657 -0.0600
16293W        W32554   9.400   0.786  16.406  0.3150  0.3533  0.0907
16294W        W32555   7.144   1.273   4.740 -0.1660 -0.0085  0.0126
16295W        W32556   9.296   2.147  15.927  0.0370  0.0502 -0.1061
16296W        W32557  14.825   0.767   0.363 -0.2098 -0.0673 -0.1876
16297W        W32558   6.994   5.520  13.344  0.1483  0.1692 -0.3310
16298W        W32559   9.983  16.289   1.388 -0.2119  0.0145 -0.2139
16299W        W32560   2.096   6.676   4.913 -0.3481 -0.4673 -0.1260
16300W        W32561   5.122   6.275  15.679 -0.1681  0.0871  0.2416
16301W        W32562  17.725   7.734   0.824  0.0597 -0.2538 -0.0352
16302W        W32563  16.236   7.412   1.899  0.1162  0.1774 -0.0959
16303W        W32564  10.516   2.886   1.243 -0.3449 -0.1507  0.0599
16304W        W32565   5.378  13.011   0.808 -0.1782  0.0266 -0.0309
16305W        W32566  14.666   3.582   4.699  0.1208  0.2087  0.1087
16306W        W32567   1.089  13.706   0.677  0.0919  0.2479  0.2302
16307W        W32568   0.727  11.145   3.706 -0.1612 -0.0458 -0.1846
16308W        W32569   6.604   2.266  13.712 -0.0880 -0.0006 -0.1044
16309W        W32570   6.954   9.469  13.189  0.2235 -0.0512  0.0244
16310W        W32571   5.158   1.277   2.086  0.0643  0.2534 -0.2217
16311W        W32572  11.790  12.745   6.078  0.3404  0.1654 -0.1208
16312W        W32573   0.523   4.950   0.287  0.0737  0.0481 -0.2578
16313W        W32574  15.590   3.551  15.719 -0.1693 -0.1842 -0.2096
16314W        W32575   1.123   3.117  16.784  0.1022 -0.0164 -0.1900
16315W        W32576   0.047  14.392  13.850  0.1363 -0.0514  0.1366
16316W        W32577   1.908  11.747  15.915  0.1372 -0.0679  0.1441
16317W        W32578  12.023   4.485  14.085  0.0037 -0.0608  0.1994
16318W        W32579  12.836   6.044  13.055  0.0483 -0.2096  0.1477
16319W        W32580  12.435  11.638  14.478 -0.0109 -0.2534 -0.1042
16320W        W32581  11.893  14.062   3.689 -0.0869 -0.1880  0.2127
16321W        W32582  14.419  15.186  13.100 -0.2363 -0.3431 -0.2362
16322W        W32583   2.575  17.259  12.327  0.0385  0.0033  0.1389
16323W        W32584   9.964   0.313   1.079 -0.1217 -0.0858  0.0080
16324W        W32585  15.307  13.314  14.394  0.1334  0.0108  0.1380
16325W        W32586  14.009   7.280  11.625  0.1511  0.1019 -0.0174
16326W        W32587  15.593   8.249   2.596 -0.0375 -0.3282 -0.1057
16327W        W32588   2.046   4.758  11.764 -0.1517 -0.1837 -0.2375
16328W        W32589   6.440   8.359  12.401 -0.2484 -0.1488 -0.0812
16329W        W32590  16.616   7.704  16.145 -0.1924 -0.2280  0.0990
16330W        W32591  11.083   2.649  14.687  0.0414  0.0388 -0.1072
16331W        W32592  15.967  13.457   1.440 -0.0312 -0.0233  0.2412
16332W        W32593   9.374   7.385  14.560  0.1084 -0.2524 -0.0303
16333W        W32594  11.138  11.184   4.271 -0.0191  0.2753 -0.4149
16334W        W32595   0.434   7.501   0.167 -0.3225 -0.0868  0.0152
16335W        W32596  10.191   6.751   0.435  0.0688  0.0900 -0.1584
16336W        W32597   2.833   6.916   0.564 -0.3193 -0.1297 -0.0852
16337W        W32598   1.885  10.016  14.835 -0.2307  0.2245  0.0128
16338W        W32599  10.181   8.121   0.052 -0.2239 -0.1081 -0.2400
16339W        W32600   0.005   7.374   5.170 -0.0817 -0.0883 -0.2888
16340W        W32601  12.525  14.772  15.916 -0.0412  0.1670 -0.0790
16341W        W32602  15.488   2.052  15.636 -0.1286 -0.0867  0.0081
16342W        W32603  11.291   0.569   5.588  0.0426  0.0849 -0.1090
16343W        W32604   4.193   5.003  12.701 -0.0218  0.3844  0.1864
16344W        W32605   7.006   9.260   0.775  0.0318 -0.1771 -0.0528
16345W        W32606   7.193   3.622  15.425 -0.0678 -0.0845  0.1567
16346W        W32607   1.837  14.332  12.266 -0.1489  0.0003  0.2244
16347W        W32608  13.448  15.732  15.358 -0.0135 -0.4418  0.0464
16348W        W32609   9.437   1.949  13.458 -0.0227  0.0563 -0.0040
16349W        W32610   5.074   7.396   5.087 -0.0271  0.1344 -0.2112
16350W        W32611   8.028   4.109  16.530 -0.2001 -0.2094  0.2727
16351W        W32612  16.167  15.996  16.793 -0.2375 -0.0483 -0.0740
16352W        W32613  11.291   7.828   3.306 -0.0346  0.0165  0.3612
16353W        W32614   4.807   7.268  14.637 -0.1327 -0.0146 -0.0535
16354W        W32615  13.023   6.487  15.066  0.0552  0.0021  0.4248
16355W        W32616   4.551   2.399  14.852 -0.1615  0.0169 -0.5869
16356W        W32617  12.991   7.324  15.726  0.3244  0.5581 -0.0272
16357W        W32618  12.834  13.818  16.712  0.1861  0.0052 -0.1262
16358W        W32619  13.344   6.125   0.540  0.1476 -0.0095 -0.2715
16359W        W32620   7.307  16.778  13.470 -0.1858 -0.3999  0.0824
16360W        W32621   7.912   4.759  12.421 -0.1118 -0.0069 -0.3051
16361W        W32622   0.878  12.759  12.252  0.0157 -0.0170 -0.2981
16362W        W32623   4.369   4.108   1.486  0.2650 -0.1783 -0.3447
16363W        W32624  14.625  14.299  13.477 -0.0186 -0.2088  0.0274
16364W        W32625   8.350   1.030  14.236 -0.0351  0.0827 -0.0720
16365W        W32626  17.672   8.814   0.212 -0.1226  0.0373 -0.2294
16366W        W32627   5.178   6.318   6.185  0.1570 -0.0733 -0.0166
16367W        W32628  16.298  12.875  16.562 -0.0588 -0.0653  0.0280
16368W        W32629   8.752   8.863  15.513  0.0525 -0.1277  0.1960
16369W        W32630  16.104   3.696   0.015  0.1420 -0.0961 -0.2900
16370W        W32631  17.190  13.224   4.032  0.0438  0.1263  0.1675
16371W        W32632  17.049  11.167  11.967 -0.0370 -0.3087  0.0617
16372W        W32633  12.268  13.025   5.195 -0.1550 -0.0912 -0.1858
16373W        W32634   6.129   0.898  16.317 -0.1550  0.1771 -0.1748
16374W        W32635  16.050  15.220   5.362  0.1098  0.1087  0.2671
16375W        W32636   1.985   6.612   4.359 -0.2213  0.1040 -0.1586
16376W        W32637   9.047  13.681   2.516  0.0757 -0.1687 -0.2539
16377W        W32638   8.833   8.103   3.843 -0.2013 -0.0682 -0.1440
16378W        W32639  10.799   7.232  15.449  0.0465  0.1537 -0.2356
16379W        W32640  10.268   1.159   6.151 -0.1766  0.0900  0.1472
16380W        W32641   1.509  12.848  13.372  0.0517  0.2706  0.1979
16381W        W32642   9.939   3.449  11.895  0.0519 -0.1277 -0.2804
16382W        W32643   5.874  12.123   2.270  0.3862 -0.0402  0.2280
16383W        W32644   1.106  12.129   3.626  0.1251 -0.1797 -0.0485
16384W        W32645   3.668  11.933   3.482  0.1899  0.1128  0.3049
16385W        W32646   9.619  13.528   3.442 -0.2947 -0.1165  0.3207
16386W        W32647   4.960  15.538   5.649 -0.4540  0.0902 -0.0810
16387W        W32648   0.594   1.011   5.527  0.1423 -0.4097 -0.3473
16388W        W32649   6.410  13.262   4.262 -0.0347 -0.1745  0.1005
16389W        W32650   5.591  13.889  16.070  0.1717 -0.1403 -0.0538
16390W        W32651  10.530   5.077   0.558 -0.1566 -0.0926  0.2377
16391W        W32652  16.193   4.028   2.063 -0.0517 -0.0932  0.0297
16392W        W32653  17.384   3.999   2.988  0.1181  0.2658  0.0484
16393W        W32654   1.030   9.398   2.590 -0.0197  0.0031 -0.0596
16394W        W32655  16.425   0.103   2.293  0.0941  0.0686  0.5333
16395W        W32656   8.203   6.228  16.239 -0.1559 -0.0720 -0.0323
16396W        W32657   4.341   3.071   1.385 -0.1728  0.0434  0.0458
16397W        W32658   6.653   6.365   3.329  0.2851  0.0680 -0.1755
16398W        W32659  10.588  10.922   5.640 -0.2351 -0.1710 -0.1286
16399W        W32660  11.389   2.579   5.362 -0.0464  0.2796  0.0325
16400W        W32661  11.667   0.476   5.018  0.1357 -0.0087  0.1217
16401W        W32662   1.084   6.554   2.222  0.0220  0.0098  0.0003
16402W        W32663   2.931   7.253  11.566 -0.1241 -0.1517  0.1323
16403W        W32664   9.640   6.300   1.462  0.1406 -0.0674  0.1418
16404W        W32665  17.514   0.857   5.328 -0.1990 -0.1599 -0.2487
16405W        W32666  14.153  12.811  11.324 -0.3630 -0.2976  0.2646
16406W        W32667   0.595  16.169  12.096  0.1192 -0.0734 -0.1953
16407W        W32668   7.243  16.665  15.042  0.1327  0.0098  0.2136
16408W        W32669  13.216   5.575   5.636  0.6005 -0.0344 -0.0057
16409W        W32670  10.157  11.926  13.791 -0.0918  0.2091 -0.3628
16410W        W32671  16.973   3.503  15.104  0.0003  0.2104 -0.1463
16411W        W32672  15.518  17.093   1.808  0.2466  0.3449  0.0979
16412W        W32673  11.831   8.617   3.826 -0.0946  0.1423 -0.1755
16413W        W32674  10.732   8.919   5.871 -0.0887 -0.4247  0.4044
16414W        W32675  13.324  17.031   3.108 -0.1473  0.2618  0.0469
16415W        W32676  14.057  14.281   0.682  0.2447 -0.2602  0.1377
16416W        W32677  14.105   7.043  14.569 -0.0822  0.0552  0.0382
16417W        W32678   1.410  13.529   0.265  0.1353 -0.0382  0.1291
16418W        W32679  11.558  10.905   0.278  0.2548  0.0702 -0.0508
16419W        W32680  12.984   1.594   0.286 -0.1121 -0.0505  0.2347
16420W        W32681   8.854   3.294   5.392  0.0260 -0.2948  0.1089
16421W        W32682  11.514   7.972   1.270  0.3124 -0.0915  0.0575
16422W        W32683   2.832   7.456  12.073 -0.2689 -0.0828 -0.0420
16423W        W32684   4.732   3.276  16.885 -0.3879 -0.0047 -0.2476
16424W        W32685  16.744   4.906   3.409 -0.1859 -0.2108  0.1615
16425W        W32686   1.292   8.710   0.994  0.1153 -0.2859  0.0111
16426W        W32687  10.836  16.406  16.866  0.0601 -0.4268  0.2655
16427W        W32688  17.409  15.694  13.321 -0.2883  0.0850 -0.0559
16428W        W32689  13.205  17.324   1.036 -0.2902 -0.1254 -0.2175
16429W        W32690   1.393   1.106  15.738  0.0348 -0.0969 -0.0553
16430W        W32691   1.080   8.962  13.426  0.1159  0.3626 -0.1303
16431W        W32692   4.653  14.540  15.160  0.1100 -0.0096 -0.0039
16432W        W32693   4.977   3.552   3.756 -0.1298 -0.3946 -0.2004
16433W        W32694   6.745   6.360   4.445 -0.0972 -0.1313  0.0815
16434W        W32695   7.182   1.458  11.747  0.0311 -0.0565  0.0340
16435W        W32696  10.036  15.485   0.066 -0.1439  0.0066  0.0419
16436W        W32697  11.821  16.800   3.198  0.1739  0.0376 -0.1838
16437W        W32698   2.575  17.780  15.573 -0.0558 -0.0534  0.1335
16438W        W32699   4.098   0.332  12.294 -0.1228 -0.0982  0.3426
16439W        W32700  14.517   6.170  13.630  0.1825 -0.0320  0.0172
16440W        W32701   4.798   3.163   3.500  0.0044  0.1479 -0.0342
16441W        W32702   0.920  14.429  13.524  0.0043  0.0013  0.1364
16442W        W32703   5.235   2.694   0.249  0.0461 -0.0490 -0.0101
16443W        W32704   3.932  10.344   0.688  0.1217  0.2694  0.0242
16444W        W32705  13.604  16.869  15.514 -0.1745 -0.3036  0.1115
16445W        W32706   3.448   6.323  12.585 -0.0771  0.1461 -0.3023
16446W        W32707  17.840  14.705  14.194  0.0577 -0.0227 -0.0690
16447W        W32708   3.846  12.677   5.273  0.1639  0.1515  0.0439
16448W        W32709   0.669   9.797   1.370 -0.1457 -0.2299 -0.1593
16449W        W32710   4.866  11.786   2.600  0.2836  0.0909  0.1554
16450W        W32711   3.916   6.329   6.635  0.0378  0.1462 -0.3996
16451W        W32712   2.269   7.787   2.483 -0.3752 -0.0658 -0.2670
16452W        W32713  10.802  16.100   3.843  0.1328 -0.0035  0.1625
16453W        W32714   8.230  10.839  16.447 -0.1158  0.2148 -0.2736
16454W        W32715  11.460  13.496   4.186 -0.2132  0.1261  0.2075
16455W        W32716   4.970  13.121   2.736  0.1086  0.0416 -0.0284
16456W        W32717  15.734  13.157   2.779 -0.0031 -0.0436  0.1084
16457W        W32718   5.787  17.266  14.671  0.2258  0.2969  0.1116
16458W        W32719   9.640   6.635  13.942 -0.0258  0.1313  0.2964
16459W        W32720  11.436  17.264  11.960 -0.0457 -0.1632 -0.1346
16460W        W32721  12.227   1.046   0.127  0.3314 -0.1351  0.1527
16461W        W32722   9.854  17.226  15.583 -0.2059  0.1225 -0.0945
16462W        W32723   7.058   6.963  14.055  0.0904 -0.1838 -0.1736
16463W        W32724  11.108  10.850   5.777 -0.0019 -0.4207 -0.0649
16464W        W32725   7.462  10.927   0.203 -0.2723 -0.0227 -0.2959
16465W        W32726   6.424   4.722  14.955 -0.2011 -0.1649  0.1097
16466W        W32727  17.458  17.619   4.639  0.1799  0.0441 -0.0205
16467W        W32728   7.424  10.433   3.744 -0.0398 -0.0687  0.0358
16468W        W32729   6.165  14.748   1.872  0.0214  0.1977 -0.2331
16469W        W32730   9.436   3.889  15.503 -0.0356 -0.3057  0.1337
16470W        W32731  12.936   3.256  16.454 -0.1792  0.0611 -0.2319
16471W        W32732   3.123   4.069  15.214  0.3335  0.2186 -0.2952
16472W        W32733  10.992  17.166   4.625 -0.1653 -0.0065 -0.1042
16473W        W32734   6.129  14.226   2.580 -0.0986 -0.3275  0.1527
16474W        W32735  12.615   8.857  15.100  0.2115 -0.1196  0.1607
16475W        W32736  17.124  13.418  14.632 -0.1413 -0.1418  0.0692
16476W        W32737   7.693   3.028  12.604 -0.2120  0.2048 -0.2117
16477W        W32738  11.020  10.376  13.181 -0.1121 -0.0598  0.1317
16478W        W32739  11.482   8.141  12.297 -0.0054 -0.1781  0.0226
16479W        W32740  14.910  11.175   2.573  0.1549  0.0065 -0.1037
16480W        W32741  16.677  10.110   2.145  0.0477  0.1152 -0.1812
16481W        W32742   7.414  12.453  13.332 -0.1185 -0.0539 -0.0911
16482W        W32743  15.126   2.823   1.381 -0.1853  0.1542  0.2259
16483W        W32744  17.572   8.455   1.390 -0.1431  0.1442  0.1558
16484W        W32745   8.538   8.151  11.501 -0.0382  0.0656  0.0464
16485W        W32746   4.545   2.850  16.387  0.0989 -0.1192  0.2767
16486W        W32747   1.973  10.739  14.334 -0.1014 -0.1945  0.1024
16487W        W32748   7.896  15.341   1.812 -0.0839 -0.1382  0.1644
16488W        W32749   8.839   1.615   0.250 -0.1259  0.0200  0.3683
16489W        W32750  17.524   4.753  14.234  0.3161  0.2986 -0.0525
16490W        W32751  15.928   0.231  13.541  0.0127 -0.0835 -0.0885
16491W        W32752   7.867   4.243   0.458 -0.0157  0.0609  0.0546
16492W        W32753   0.828  13.470   4.542  0.0309  0.1574  0.1725
16493W        W32754   9.050   7.989   4.778 -0.2500  0.4528 -0.1711
16494W        W32755   0.142   3.890   0.019  0.3163  0.0915 -0.1086
16495W        W32756   8.644   3.526  13.559 -0.0413 -0.1885 -0.1719
16496W        W32757  11.875  17.052  12.190 -0.1441 -0.3446  0.0240
16497W        W32758   3.476   4.272  16.490  0.0643  0.0975 -0.2181
16498W        W32759   2.812   6.996   1.666 -0.1508  0.0737 -0.1901
16499W        W32760  12.575  10.481   0.728  0.2473  0.1002 -0.0009
16500W        W32761   8.324   6.137   3.712  0.1538 -0.1661  0.0753
16501W        W32762   6.487   3.613  16.364  0.0540 -0.0304 -0.0144
16502W        W32763   5.027   3.352   2.306 -0.0108 -0.0207 -0.0264
16503W        W32764   2.856   4.283  14.562 -0.2789 -0.1593 -0.1536
16504W        W32765   8.574   9.148  14.522  0.1426 -0.1187 -0.0079
16505W        W32766  17.531   0.723   0.066  0.3079 -0.3831 -0.0448
16506W        W32767  14.636  14.558   2.629 -0.1436  0.1407 -0.0371
16507W        W32768   3.716   6.455  15.543  0.2110  0.2081  0.0358
16508W        W32769   7.878  17.197  16.808  0.2342  0.0003  0.0638
16509W        W32770  14.430   0.059  16.913  0.1314  0.0468 -0.0042
16510W        W32771  17.200  16.779   1.195 -0.1285  0.0112  0.4482
16511W        W32772   3.561   7.476  12.367  0.0301 -0.1469  0.0225
16512W        W32773  13.358   6.017   3.802 -0.1064 -0.0790  0.2992
16513W        W32774  15.690   7.847   1.347  0.3949 -0.2724  0.0797
16514W        W32775  15.113   4.549  14.691 -0.0240  0.1787 -0.0708
16515W        W32776   5.945  13.484  14.668 -0.0291 -0.2179  0.1378
16516W        W32777   9.922   1.841  13.671 -0.5705  0.2479 -0.0251
16517W        W32778   8.447  13.918  13.944  0.1774  0.0980  0.0912
16518W        W32779  14.531   7.293   1.745  0.2043  0.1717 -0.1933
16519W        W32780   4.010   7.171   4.541  0.0314 -0.1841 -0.1504
16520W        W32781   8.975  14.890   0.624 -0.0959 -0.0605  0.1577
16521W        W32782  16.106   8.591  13.093 -0.2436 -0.2408 -0.3250
16522W        W32783  17.758   8.950   3.540  0.3766 -0.0368 -0.1754
16523W        W32784   1.408   0.983   2.429  0.0854  0.1921  0.1971
16524W        W32785  17.327  16.992   5.491 -0.0479  0.2079 -0.0687
16525W        W32786  12.172  12.456  14.494  0.0680 -0.1702 -0.2079
16526W        W32787   7.199   6.464   2.357  0.1774 -0.1248 -0.1403
16527W        W32788  15.190  15.331   5.457  0.1544  0.1188  0.2188
16528W        W32789   8.074   6.875  11.197 -0.1059 -0.2540  0.1245
16529W        W32790   8.507   1.399  14.613  0.0355 -0.2028  0.0718
16530W        W32791   1.167  17.548   2.227 -0.0915 -0.1425 -0.1107
16531W        W32792  13.812  15.764   2.913  0.0370  0.0755  0.0937
16532W        W32793   6.081  10.673   2.019  0.0270  0.2891 -0.0654
16533W        W32794  13.020   8.874  15.988 -0.3158  0.0900  0.1143
16534W        W32795   4.049  16.938  14.545 -0.1574 -0.0549 -0.1435
16535W        W32796  16.773   4.409   1.212  0.1861 -0.0962 -0.1914
16536W        W32797  12.751   3.954  14.036 -0.1765  0.4245  0.0081
16537W        W32798   4.853   5.538  16.255  0.2710  0.0684 -0.2713
16538W        W32799  10.450  11.376   5.578 -0.0718 -0.0953 -0.1378
16539W        W32800  16.558   3.995  16.883  0.2365  0.0931  0.0305
16540W        W32801   4.935  14.640  12.828  0.0636  0.0566 -0.0306
16541W        W32802   1.745  14.970  16.911  0.0160  0.2697 -0.1794
16542W        W32803   9.246  17.122  13.364  0.0845  0.1066  0.2234
16543W        W32804   9.068  14.489  12.010  0.1933 -0.1943  0.2572
16544W        W32805  14.697  15.953  13.753 -0.2431  0.2008 -0.2283
16545W        W32806  13.189   1.674  16.280 -0.2745  0.0492 -0.1726
16546W        W32807   8.237  14.855  16.916 -0.3579 -0.0073 -0.2567
16547W        W32808   8.393   2.396  14.879 -0.2359 -0.0895  0.0668
16548W        W32809   4.859  13.285  16.570  0.0279 -0.2198  0.2411
16549W        W32810   4.341  10.779   4.622  0.3301  0.0459  0.2588
16550W        W32811   2.318  11.183   0.715 -0.0145  0.0576 -0.0112
16551W        W32812  11.196  13.403   5.945  0.2153  0.0296  0.0930
16552W        W32813  16.389   8.870   3.260  0.0038 -0.0496 -0.4494
16553W        W32814  13.870   3.750  11.835 -0.1943  0.0630  0.0374
16554W        W32815   7.567  12.463  11.713  0.2184 -0.0114 -0.0087
16555W        W32816   0.887   5.875  12.258  0.0328  0.3421 -0.1292
16556W        W32817   9.648   1.557  16.135 -0.0294 -0.1111  0.1956
16557W        W32818   6.573  12.036   3.064  0.0334  0.1684 -0.2347
16558W        W32819  12.234  17.173   1.033 -0.0919  0.1426  0.0061
16559W        W32820  16.584  14.510   4.270  0.0649 -0.1085 -0.0001
16560W        W32821  16.981   0.813   0.120  0.1070  0.0813 -0.2091
16561W        W32822   6.880   6.917  13.593 -0.1672  0.0596  0.0586
16562W        W32823  12.948  17.632   2.006 -0.2606  0.0331 -0.0695
16563W        W32824  10.699   6.826  12.366  0.0317  0.1140  0.1310
16564W        W32825   0.060   3.444  16.076 -0.2080 -0.5612  0.2578
16565W        W32826  10.451   9.863  14.943 -0.0921 -0.0494 -0.1939
16566W        W32827   2.751   0.875   1.070 -0.0915 -0.0639 -0.1246
16567W        W32828   6.346   8.747   5.144 -0.0529  0.0809  0.3254
16568W        W32829   5.089   8.887  15.287 -0.3028  0.0091 -0.3187
16569W        W32830  16.682   5.334  13.221 -0.1562  0.1889  0.1813
16570W        W32831   3.474  10.199   2.220 -0.0643  0.2266 -0.0314
16571W        W32832   5.094   0.433  13.241  0.1338 -0.1477 -0.0148
16572W        W32833   9.550   5.798  16.333 -0.1277  0.3141  0.0196
16573W        W32834  14.699   6.542  15.101 -0.1247  0.1843 -0.0213
16574W        W32835  16.988  10.162  14.419 -0.0301 -0.0212  0.0842
16575W        W32836   7.799   0.583   2.058  0.3442 -0.1018  0.0644
16576W        W32837   0.173   3.468  15.601 -0.1730  0.2132 -0.0786
16577W        W32838  16.893  13.350   4.693 -0.1121  0.1996 -0.3600
16578W        W32839  13.491   0.847   4.250 -0.0346  0.0237 -0.1371
16579W        W32840   9.815   4.310  12.299  0.0359 -0.1129 -0.0098
16580W        W32841  12.667   4.319  14.590  0.1761  0.1303  0.0389
16581W        W32842  13.646   4.821  14.702  0.0916 -0.2498 -0.0715
16582W        W32843   1.471  17.005  13.649 -0.1568 -0.1745  0.2500
16583W        W32844  11.520  14.159   6.335 -0.3322  0.0885 -0.0242
16584W        W32845   2.755  11.971  16.124 -0.1066 -0.4526 -0.0730
16585W        W32846  15.552  15.131   5.857 -0.0495  0.4546 -0.1020
16586W        W32847   0.384  17.250   1.570  0.1117 -0.0908 -0.1131
16587W        W32848  13.379  14.746  11.691  0.0036 -0.2829 -0.1962
16588W        W32849   1.154   4.247   6.313  0.2877  0.1359  0.1287
16589W        W32850  14.829   3.529  12.586  0.0016 -0.0158 -0.1246
16590W        W32851  16.897   6.138   6.331  0.0600 -0.0921 -0.1357
16591W        W32852   1.326  15.809   2.730 -0.1381 -0.0587 -0.0705
16592W        W32853  11.764  15.925  16.561 -0.0262  0.2005  0.0218
16593W        W32854  16.978  10.188  13.512  0.3626  0.2134 -0.0062
16594W        W32855   9.914   3.887  14.091 -0.0916 -0.0079 -0.3559
16595W        W32856  14.611  15.875   3.976 -0.0492  0.1145 -0.0550
16596W        W32857   6.690   0.446   0.823  0.1414 -0.0646  0.0393
16597W        W32858  17.596   6.449  12.380  0.0044  0.0732  0.1072
16598W        W32859   4.613  16.858  12.752 -0.0276 -0.2338 -0.2158
16599W        W32860  17.481  14.854  13.106 -0.3472 -0.0459 -0.0961
16600W        W32861   7.884   4.142   1.334  0.0229 -0.0749  0.0784
16601W        W32862   9.976  12.518  14.734  0.1986 -0.0610  0.0727
16602W        W32863  11.565   6.616   2.351 -0.0916 -0.2484  0.0371
16603W        W32864  13.685   9.996   0.892 -0.0925 -0.0674 -0.1323
16604W        W32865   1.027  15.440  12.293 -0.1474 -0.3705  0.2422
16605W        W32866  10.184  13.051  11.181  0.4797 -0.0811  0.2763
16606W        W32867   7.924   3.302   5.022 -0.2387  0.1478  0.3519
16607W        W32868   9.782  14.695   1.605  0.3446  0.2919  0.0369
16608W        W32869   3.256   6.434  14.462  0.0748  0.1708  0.1002
16609W        W32870   3.101  12.967  11.413  0.0566  0.0099  0.0409
16610W        W32871   5.024  10.516  12.895  0.0057 -0.1304  0.1839
16611W        W32872  14.644  15.345   6.239  0.0854 -0.1352  0.2213
16612W        W32873  17.087   8.303   4.626  0.0881 -0.2589  0.1416
16613W        W32874   3.221   7.915   2.020 -0.1347  0.1614  0.2488
16614W        W32875  12.177   4.125   6.366 -0.2756  0.0628  0.3525
16615W        W32876   0.472   1.615  14.179 -0.0935  0.2532 -0.1532
16616W        W32877   6.693   4.880  16.818  0.0753  0.0168  0.2183
16617W        W32878   8.379   4.599  14.599  0.2196 -0.0779  0.3627
16618W        W32879   8.835   5.065   2.948  0.2141  0.0486 -0.1167
16619W        W32880  10.502  16.121  13.526 -0.0548 -0.0444  0.0873
16620W        W32881   3.669   3.468   2.953  0.1023  0.0183  0.1736
16621W        W32882  11.340  15.258  15.767 -0.1654  0.3206 -0.1262
16622W        W32883   9.632  17.830   4.342 -0.2203  0.0297 -0.1053
16623W        W32884  17.277   2.603  14.468  0.0341  0.0389  0.0748
16624W        W32885   4.749  16.308   4.001 -0.2846 -0.2044 -0.1836
16625W        W32886   0.671  10.426  16.097 -0.0631 -0.2618  0.2732
16626W        W32887   9.354   9.174  11.300 -0.1607  0.0863 -0.1084
16627W        W32888   9.551  11.177  13.596  0.0568  0.1440  0.0072
16628W        W32889   0.708  10.419   5.330  0.0224 -0.1640  0.1932
16629W        W32890  17.831   5.766  12.656  0.0938  0.2020  0.1898
16630W        W32891   7.940  11.538  14.428 -0.0104 -0.2840 -0.2288
16631W        W32892   8.402   4.280   4.445  0.3025 -0.2532  0.1710
16632W        W32893  10.390  13.495   4.622 -0.1217  0.2128  0.2187
16633W        W32894  12.624   7.346   4.894  0.0489 -0.0160 -0.0905
16634W        W32895  10.758   4.014  16.301 -0.0732 -0.1448  0.0064
16635W        W32896  14.453   2.923  15.084 -0.0362  0.2980 -0.2424
16636W        W32897   6.386  12.525  13.612 -0.0502  0.0690 -0.4066
16637W        W32898   5.792  14.410   2.106  0.2153 -0.0651 -0.1983
16638W        W32899   7.462  16.914  16.752 -0.0168  0.0496  0.1704
16639W        W32900   0.918   6.460   1.410  0.1684 -0.1404 -0.3183
16640W        W32901   0.243  14.934   4.971  0.0007 -0.2459 -0.2662
16641W        W32902  14.368   5.794   2.662 -0.0604 -0.0810  0.1121
16642W        W32903   9.037   8.351   5.152  0.0565 -0.0756 -0.0044
16643W        W32904  11.477  13.099   2.931  0.1537  0.0493 -0.1212
16644W        W32905   2.764   0.067  15.114 -0.1408  0.1572 -0.1073
16645W        W32906  13.877   5.430  11.416 -0.1466 -0.0606  0.0438
16646W        W32907   5.294   4.742  15.688  0.1295 -0.1509  0.3005
16647W        W32908  14.974  17.842  16.312 -0.1719  0.1428  0.1485
16648W        W32909  15.337  17.539  14.058 -0.1389  0.1954 -0.0132
16649W        W32910  15.036   0.081   4.999 -0.0767 -0.0318 -0.1774
16650W        W32911   3.681   4.403  13.961  0.0672 -0.0956 -0.0063
16651W        W32912  12.204   5.667   0.528  0.1194  0.3906 -0.0017
16652W        W32913  15.274  11.489  11.844 -0.0530  0.1862 -0.0364
16653W        W32914   1.588   4.958  14.447 -0.0943 -0.3388  0.0031
16654W        W32915  14.527  15.021   0.025 -0.1131  0.4062 -0.0232
16655W        W32916   0.981   4.414  16.663 -0.0351 -0.2113 -0.0748
16656W        W32917   0.657  12.991  13.045 -0.1575  0.0510  0.0323
16657W        W32918  17.020   6.416   3.490  0.0855 -0.1002  0.0049
16658W        W32919   8.097  14.423   0.134  0.0295 -0.0568 -0.1930
16659W        W32920  11.584  17.768   3.037  0.2213 -0.1925 -0.0680
16660W        W32921   2.943   4.392   2.609 -0.1948  0.2022 -0.2602
16661W        W32922  13.886  17.734   2.536  0.2001 -0.1681 -0.3338
16662W        W32923   1.297  12.124   4.133 -0.4620  0.0753 -0.0970
16663W        W32924   4.036  12.058  16.184 -0.0594 -0.0450 -0.2636
16664W        W32925   9.414  17.117  11.903  0.1043  0.1029 -0.1812
16665W        W32926  14.357  11.496   2.460 -0.0156 -0.1454 -0.0116
16666W        W32927   0.081   6.267  16.692 -0.1299  0.1067  0.2750
16667W        W32928   1.409  14.761  12.865  0.3915  0.0455 -0.3142
16668W        W32929  10.677   8.127  12.429 -0.0527 -0.1179 -0.0825
16669W        W32930  11.458   5.726  11.978  0.0392 -0.3258 -0.0190
16670W        W32931   1.787  11.509  16.369 -0.0205 -0.1389  0.0165
16671W        W32932  10.250   6.448   1.678  0.0902 -0.0765  0.1388
16672W        W32933  15.131   7.729   2.743 -0.0085  0.2501  0.0364
16673W        W32934   4.251  11.928  13.955 -0.1057  0.1728  0.0063
16674W        W32935   9.106   3.507   1.936  0.1383  0.0606  0.1176
16675W        W32936  11.575   6.462  12.835  0.1229  0.0909  0.0661
16676W        W32937  15.465  17.668   5.724  0.1083 -0.1580 -0.0517
16677W        W32938   7.845   5.326  15.401  0.1751  0.0877  0.0072
16678W        W32939  16.596  13.506   2.317  0.2159 -0.0782 -0.0140
16679W        W32940  13.980   6.041  12.055  0.3231  0.4606  0.1330
16680W        W32941   3.240  17.548   3.516  0.3189  0.0992  0.2048
16681W        W32942   6.120   6.236   1.304 -0.1125  0.2108 -0.0235
16682W        W32943   1.902   3.433   3.880 -0.2406  0.2618 -0.0364
16683W        W32944   3.363   3.576  14.901  0.1389 -0.0321 -0.1426
16684W        W32945   9.662   1.031  15.996 -0.3270  0.0736  0.0529
16685W        W32946  16.760   3.942   1.911  0.1082  0.0421  0.0836
16686W        W32947   7.269  17.154  16.325  0.1409  0.1275  0.1053
16687W        W32948  16.511   3.190   0.606  0.2685  0.2815 -0.1600
16688W        W32949   9.407  16.398   2.445  0.0237 -0.1034 -0.1318
16689W        W32950  16.803   7.649  15.288 -0.1269 -0.2013 -0.0095
16690W        W32951   9.954  13.238   4.732  0.0042 -0.0615 -0.0735
16691W        W32952  11.832   3.029   3.865  0.0590 -0.0625  0.0324
16692W        W32953  10.558   9.836  12.744  0.3068  0.0895  0.0301
16693W        W32954   7.023  13.984  14.228  0.1771  0.3404  0.1589
16694W        W32955  11.409  16.982   1.061 -0.1157  0.2894  0.2987
16695W        W32956   4.024   3.170   6.603  0.0085  0.2320 -0.0244
16696W        W32957   2.745   7.696  14.833  0.2180 -0.0360  0.0419
16697W        W32958  10.420   9.910  13.655  0.1512 -0.1287  0.1184
16698W        W32959  16.135   6.531   3.740  0.1896 -0.2986 -0.0351
16699W        W32960   2.383   9.341  12.078 -0.0572  0.0384  0.1857
16700W        W32961   7.474   4.916  12.905  0.0725 -0.2985 -0.1519
16701W        W32962   9.184  14.455  14.567  0.2429 -0.0742  0.0036
16702W        W32963  16.321   0.985   2.430  0.0547  0.0510  0.0531
16703W        W32964  10.169  14.194   5.312  0.1866 -0.0599  0.1419
16704W        W32965   9.217   6.018   4.561  0.1352  0.1824 -0.0342
16705W        W32966  13.006   7.318   0.807 -0.2534  0.2132 -0.0775
16706W        W32967  11.013  12.909   3.696 -0.1706  0.0882  0.5474
16707W        W32968  14.146  12.410   3.628 -0.2113  0.1999 -0.2010
16708W        W32969  10.522  13.591  16.158 -0.0035 -0.4423 -0.3260
16709W        W32970   4.090  16.014   0.794  0.1578  0.1100 -0.0286
16710W        W32971  10.335   0.476  11.725  0.0235 -0.2077 -0.0155
16711W        W32972   3.648   1.546   4.883 -0.1100  0.0226  0.3717
16712W        W32973   3.993   8.582   1.070  0.4329 -0.1296  0.0577
16713W        W32974   9.787   8.490   3.927  0.2646 -0.0329 -0.2241
16714W        W32975   3.626   3.115  14.912 -0.0187  0.1019  0.0448
16715W        W32976  15.729   2.769  16.507  0.1477  0.0262  0.2312
16716W        W32977  10.711   9.093   3.513  0.0005 -0.1316 -0.0918
16717W        W32978   5.766  10.107   3.625  0.0359 -0.0854  0.3578
16718W        W32979  15.506  14.380  13.297 -0.0274 -0.1139 -0.1032
16719W        W32980  16.694   0.902  11.717  0.1307 -0.1824 -0.0480
16720W        W32981   8.582   4.066  16.348 -0.2197 -0.3901  0.2769
16721W        W32982   8.653  13.784  12.717  0.0066  0.0143  0.0639
16722W        W32983   2.506   9.805   6.201 -0.1293 -0.1644  0.2809
16723W        W32984   5.857   1.021  12.838  0.2017  0.0653 -0.2359
16724W        W32985   2.809   1.799   0.864  0.0894  0.1221 -0.1314
16725W        W32986  13.164   7.905  16.472 -0.0664 -0.1002  0.1013
16726W        W32987  13.477   3.799  11.510 -0.0665 -0.3001  0.0949
16727W        W32988  13.121  10.730   2.519 -0.0828 -0.0152 -0.0854
16728W        W32989  10.514  15.264   4.283 -0.1617  0.1296  0.0825
16729W        W32990  16.462  14.787   5.225  0.1308 -0.1560 -0.1442
16730W        W32991   3.782  10.980  12.835 -0.0176 -0.3457  0.0396
16731W        W32992   6.682   3.735  15.264 -0.1820  0.2398  0.2811
16732W        W32993   2.964  10.329   4.646 -0.0773  0.1127 -0.0795
16733W        W32994  14.767   1.532   5.302  0.0681 -0.0877 -0.0077
16734W        W32995   5.820  10.632   3.734  0.0977  0.0138 -0.1139
16735W        W32996  14.220  14.737  15.807 -0.0951  0.2327 -0.0873
16736W        W32997  11.762   0.348  14.639  0.0388  0.0561  0.0095
16737W        W32998   9.027   9.934  10.560  0.0444  0.0319  0.4172
16738W        W32999  12.726  17.180   4.007 -0.3461  0.0925  0.2737
16739W        W33000  11.854   7.476  16.199  0.0520  0.0667  0.1268
16740W        W33001  11.880  16.005  13.339 -0.1092 -0.0548 -0.0854
16741W        W33002   9.655   5.061   3.116  0.1385  0.2167  0.0721
16742W        W33003   1.956   8.470   4.911  0.2156 -0.1277 -0.1202
16743W        W33004   4.408  10.144  16.046 -0.2712 -0.1162  0.2574
16744W        W33005   5.129  17.461   1.867  0.2064 -0.3180  0.2176
16745W        W33006   9.172   9.150   0.139  0.2029  0.1020 -0.0097
16746W        W33007   6.811   2.107   3.645  0.0680  0.0459  0.1555
16747W        W33008  16.672   6.512   2.757 -0.1809  0.2020 -0.0721
16748W        W33009  14.075  17.365   5.097 -0.0075  0.0049  0.4357
16749W        W33010  15.101   8.270   2.653 -0.1575 -0.2839  0.0690
16750W        W33011   8.196   9.043  12.970 -0.0121 -0.1592  0.0668
16751W        W33012  16.916   5.386   4.164 -0.2796  0.0884 -0.0125
16752W        W33013  17.740   8.700   3.989 -0.0471  0.0109 -0.0205
16753W        W33014  11.880  16.983  16.523 -0.0806 -0.3140  0.2606
16754W        W33015   6.083  15.170  16.060 -0.1066  0.1263  0.0357
16755W        W33016  10.845   4.225  15.844  0.0012  0.1381  0.1272
16756W        W33017  11.275   2.490  15.188 -0.0257  0.2074 -0.1056
16757W        W33018   9.883  10.972  16.817 -0.0917 -0.0271 -0.0214
16758W        W33019  11.586  11.262  12.463 -0.2572  0.0905 -0.5766
16759W        W33020   4.553   6.298   4.491 -0.0126  0.2920 -0.0400
16760W        W33021   2.557  16.138  15.098 -0.1198 -0.1348  0.0860
16761W        W33022  14.962   9.817   1.710  0.1983 -0.1021 -0.0052
16762W        W33023  14.183   7.937   0.039 -0.3420  0.0917  0.2124
16763W        W33024   1.230  12.895  15.452  0.1107 -0.2819 -0.2200
16764W        W33025  16.503   8.064   3.538 -0.1200  0.0174 -0.0086
16765W        W33026  10.128   1.537  14.673 -0.0426 -0.3132 -0.0965
16766W        W33027  14.090   7.581  16.411  0.0915  0.2120  0.0963
16767W        W33028   1.944  13.272   3.644 -0.1269  0.0549 -0.2749
16768W        W33029   8.365  14.115  14.393 -0.3231  0.1894  0.1137
16769W        W33030  15.378  10.348   2.980 -0.2315  0.0279 -0.1703
16770W        W33031  15.061   6.692  14.614 -0.1493 -0.1967 -0.2099
16771W        W33032   1.880   5.526  13.010  0.0304  0.2513 -0.1141
16772W        W33033   4.468  13.131  13.223 -0.0102  0.2049  0.2617
16773W        W33034   0.577  12.153  16.188  0.3256  0.0519  0.3663
16774W        W33035  12.344   7.842  13.494  0.0723 -0.1069  0.2251
16775W        W33036   2.442   8.460   3.955  0.1926  0.0153  0.0401
16776W        W33037   0.806   5.140  16.172 -0.1612  0.1915 -0.1296
16777W        W33038   1.507   8.337   4.904  0.0575 -0.0329 -0.0742
16778W        W33039  13.636   4.026   0.607 -0.0127  0.0340 -0.1176
16779W        W33040   9.349  10.686   1.816 -0.1454 -0.1534  0.0211
16780W        W33041   4.640   8.810  12.504 -0.2942 -0.0350  0.0105
16781W        W33042   7.194  11.513   4.556  0.2269 -0.4598  0.0529
16782W        W33043   4.629   2.415   4.661 -0.2483  0.0147  0.2670
16783W        W33044  11.278   1.770  15.765 -0.0269 -0.2636  0.2321
16784W        W33045   2.567  13.888   1.193  0.1052 -0.2388 -0.1136
16785W        W33046   2.928  15.335   3.345 -0.0058  0.2115  0.1922
16786W        W33047   0.107  11.729  12.940 -0.1546  0.0952 -0.1496
16787W        W33048   2.053   9.103  14.861 -0.2110 -0.1180  0.2350
16788W        W33049  14.373   5.205   5.459 -0.0635 -0.0823 -0.0125
16789W        W33050   6.969  16.971  12.143  0.2764  0.3366  0.2288
16790W        W33051   6.074  12.842  13.879 -0.2069 -0.2379  0.1920
16791W        W33052   4.079   0.064   0.784  0.0919  0.4223 -0.0058
16792W        W33053  15.623  17.022  14.092  0.0156  0.1714 -0.2059
16793W        W33054   6.597   9.964   5.787 -0.4445  0.0053  0.2160
16794W        W33055   5.361   1.801   3.520  0.1227 -0.0536  0.1776
16795W        W33056  15.170  13.886   2.445 -0.1243 -0.0883 -0.1779
16796W        W33057  15.744   1.454   6.319  0.1466  0.3795  0.0153
16797W        W33058  17.252  10.610   4.407  0.1647 -0.0852 -0.0282
16798W        W33059   4.089   3.748   0.588 -0.1414 -0.2930 -0.0314
16799W        W33060   6.975  17.461  12.331 -0.0367  0.4169  0.0051
16800W        W33061  11.648   4.179   2.407 -0.0532  0.0321 -0.0561
16801W        W33062  13.676  12.501   1.047 -0.0391 -0.3805  0.0699
16802W        W33063  17.706  12.653   3.655 -0.1702 -0.1111 -0.2191
16803W        W33064  13.580   3.865  13.084 -0.3206 -0.0546  0.1436
16804W        W33065   0.341   5.240  16.370  0.2634 -0.1192 -0.1351
16805W        W33066   9.286  15.630  16.148 -0.1350 -0.2502  0.2432
16806W        W33067   4.044   3.266   4.251 -0.0561 -0.1374  0.2629
16807W        W33068   0.127   0.122  14.647  0.1561  0.1111 -0.0183
16808W        W33069  14.523   6.529   3.170  0.1897 -0.1140 -0.1955
16809W        W33070  16.972   6.259  11.801  0.1659 -0.4031  0.3346
16810W        W33071  15.099   2.106  15.935  0.0126  0.1850  0.2827
16811W        W33072   8.606  11.508  11.641  0.2221  0.0421 -0.1574
16812W        W33073  13.146   0.882   6.015  0.1952  0.3949  0.1262
16813W        W33074  14.091   2.963  16.831  0.0618  0.1577 -0.0713
16814W        W33075   6.592   7.632  14.420 -0.1623 -0.0403  0.1141
16815W        W33076   2.486  17.010  16.079 -0.0813  0.0246  0.4401
16816W        W33077  15.147  11.412   0.787  0.2822 -0.0484 -0.2809
16817W        W33078  10.527   4.721   2.934  0.2308  0.0603  0.0707
16818W        W33079   6.101   9.858  16.543  0.1325 -0.0848 -0.4284
16819W        W33080  15.071   2.163  16.557 -0.1469  0.0133 -0.2435
16820W        W33081   4.915   2.087   2.290 -0.1093 -0.0015  0.1748
16821W        W33082   5.125   0.761  16.446  0.2410 -0.2690 -0.1921
16822W        W33083   1.235   5.374  15.542  0.2568 -0.2480  0.1855
16823W        W33084  16.134   2.935   2.806  0.0224  0.5210  0.2669
16824W        W33085   3.027   4.893  13.507  0.2348 -0.0774 -0.0588
16825W        W33086   8.047  10.769   3.703 -0.1515  0.0940  0.0816
16826W        W33087   5.831  16.142  11.746 -0.0548 -0.1096  0.1069
16827W        W33088   0.806   2.058   5.982 -0.1828  0.0331 -0.1199
16828W        W33089  13.792  15.283  15.331 -0.0138  0.0817  0.1576
16829W        W33090  14.808   3.644   2.536  0.1128 -0.0549  0.2423
16830W        W33091   3.307   0.465  13.341 -0.0258 -0.0626 -0.1413
16831W        W33092   6.893   5.980  13.595 -0.4800  0.3008  0.1606
16832W        W33093  17.061  12.997   0.185 -0.0259  0.2521 -0.0711
16833W        W33094   2.615  16.394   3.361  0.0753 -0.3771  0.2052
16834W        W33095   0.671   2.805   0.699  0.0719 -0.0980 -0.2068
16835W        W33096   4.901  10.384  12.137 -0.1185 -0.0589 -0.1298
16836W        W33097  16.505   0.648   0.142 -0.0649  0.2184 -0.0352
16837W        W33098   5.202   3.623   1.798 -0.0619  0.0529 -0.0662
16838W        W33099  15.315  12.641  14.313  0.1181 -0.0614 -0.1321
16839W        W33100   9.331   1.464   1.529  0.2315  0.2628  0.2768
16840W        W33101   5.546   7.287  13.019  0.1888  0.1129 -0.0787
16841W        W33102  16.200   9.361  12.114  0.0061  0.1206 -0.0323
16842W        W33103   0.246  16.734  15.431 -0.0096  0.0565  0.1361
16843W        W33104   7.075  13.610   0.356 -0.0419 -0.0875 -0.1175
16844W        W33105  11.745  11.723   4.051  0.0072 -0.1654  0.0532
16845W        W33106   1.508   6.847   2.087  0.0495 -0.0132  0.0896
16846W        W33107  12.513  14.476  12.296 -0.0929 -0.3190  0.0461
16847W        W33108   7.525   9.807  12.514 -0.2176 -0.1257  0.2121
16848W        W33109  12.137  14.049   4.596 -0.1233  0.0818  0.1234
16849W        W33110  10.396   0.389  15.148 -0.3498 -0.1609  0.0898
16850W        W33111  13.077   7.794  12.471 -0.2951  0.0094  0.2926
16851W        W33112  14.388  10.476   2.882 -0.1772  0.1206  0.0102
16852W        W33113   5.560   1.132  12.197  0.0995 -0.0813  0.2760
16853W        W33114   0.211   8.866  16.776 -0.4282  0.2162  0.3198
16854W        W33115   2.713   1.813   1.474  0.2345  0.0371 -0.1966
16855W        W33116  17.695   0.124  11.982  0.0185 -0.0352 -0.3316
16856W        W33117   3.822  11.045  12.235  0.2605 -0.0369  0.1117
16857W        W33118   4.442   0.285  13.901 -0.0899  0.1070 -0.0545
16858W        W33119  15.090   7.156  15.645 -0.1104  0.3726 -0.1028
16859W        W33120  15.596   5.764   4.562 -0.2153 -0.1285 -0.1108
16860W        W33121  17.479   8.207  15.769  0.0210 -0.4533  0.3220
16861W        W33122  11.481  15.862  12.410  0.0537  0.0383  0.0142
16862W        W33123  16.627   8.674  15.527 -0.0922 -0.1141  0.0642
16863W        W33124   2.013  13.178   4.831  0.4934  0.0609 -0.1244
16864W        W33125   0.459   9.080  14.349 -0.1140  0.1302  0.0147
16865W        W33126  11.692  17.034   1.509 -0.1773 -0.0303 -0.2137
16866W        W33127  10.607  13.165  14.355 -0.0650  0.1002 -0.1005
16867W        W33128   8.507   8.428  16.474  0.0602 -0.0364 -0.2565
16868W        W33129   0.602   4.118  12.722  0.0379  0.0002 -0.2122
16869W        W33130   9.220   6.818   3.542  0.0909 -0.2136 -0.0692
16870W        W33131   3.548   6.160   0.079  0.0176 -0.0380 -0.0268
16871W        W33132   6.409   2.786   2.821  0.1283  0.1441  0.1631
16872W        W33133  14.261  13.890   4.908  0.1142 -0.0702  0.0384
16873W        W33134   3.971   4.292  16.930  0.1760 -0.0789 -0.1737
16874W        W33135   9.164  15.817   6.489  0.0318  0.1872  0.0622
16875W        W33136  12.619  14.990  13.605 -0.3383 -0.2834 -0.2724
16876W        W33137  12.287   2.615  16.649 -0.0707  0.0613 -0.0790
16877W        W33138   2.061   9.059  13.850 -0.1109 -0.3321 -0.0347
16878W        W33139   6.798   1.108  13.606 -0.1004  0.1049  0.1891
16879W        W33140  13.752   3.094  12.658 -0.2919 -0.1950 -0.1343
16880W        W33141   3.015  12.154   2.490  0.1908 -0.2610  0.1603
16881W        W33142   9.846  12.370   0.824  0.0021 -0.0579 -0.1337
16882W        W33143  17.572   2.709  13.353  0.2013  0.0852 -0.2754
16883W        W33144   1.564  17.473  13.282  0.0569 -0.2519  0.0729
16884W        W33145  12.151   9.805  12.064 -0.1627  0.1654  0.1370
16885W        W33146   9.531   8.059  13.498 -0.3844  0.2253  0.1223
16886W        W33147   7.961  15.939  12.041 -0.1084  0.0800 -0.1478
16887W        W33148   7.649  10.038   5.868 -0.0029 -0.4562 -0.2805
16888W        W33149  17.413  10.083   4.091  0.2759  0.0402  0.1497
16889W        W33150   1.943  17.126  13.869 -0.2719  0.0343  0.1228
16890W        W33151  12.034   5.931   5.331 -0.1723  0.0679  0.0134
16891W        W33152   5.754   4.798   4.858 -0.2400 -0.0864 -0.0851
16892W        W33153  11.446   3.398   3.749  0.1025  0.0382  0.1431
16893W        W33154   1.496   4.703  12.863  0.1676  0.1519 -0.0141
16894W        W33155  14.669   7.235   4.160  0.1562 -0.2185 -0.0069
16895W        W33156   1.689   7.522   3.062 -0.1307 -0.1415 -0.0254
16896W        W33157   5.830   1.514   0.239 -0.1835  0.0723 -0.1447
16897W        W33158  16.948   6.990  13.858  0.0358 -0.3977 -0.1480
16898W        W33159   0.320  14.951   5.729 -0.0729  0.1035 -0.1267
16899W        W33160  10.396  15.800   3.814 -0.1122 -0.1040  0.1095
16900W        W33161   9.311   7.960  16.146 -0.3320 -0.2343  0.1804
16901W        W33162   2.346  14.925  13.424 -0.1254 -0.2671  0.6234
16902W        W33163  16.721   3.611   3.878 -0.3095  0.0244 -0.2895
16903W        W33164   2.556  11.414  15.748 -0.2572  0.0449 -0.2686
16904W        W33165   2.831  14.582   2.043  0.1335  0.1005 -0.1175
16905W        W33166   6.663  11.700  13.100  0.3044 -0.4517  0.1005
16906W        W33167   8.377   2.285  16.653 -0.1257 -0.3796 -0.0298
16907W        W33168   5.711  13.520  11.757 -0.0263  0.0834  0.0465
16908W        W33169   8.307   9.598   1.593  0.0131  0.1266 -0.3062
16909W        W33170  14.042   7.687   5.527  0.1673  0.0313  0.2492
16910W        W33171   6.977   1.292   3.871 -0.0192  0.1838 -0.2479
16911W        W33172  13.081  12.686  12.293 -0.0458  0.1850 -0.1261
16912W        W33173  12.472   5.226  15.059  0.2690 -0.0121  0.1322
16913W        W33174  14.949  11.919   3.255  0.0324  0.1520  0.2881
16914W        W33175   3.578   9.240   1.655 -0.0387  0.1341  0.1132
16915W        W33176  12.846  14.019  16.289 -0.3081  0.0185  0.1472
16916W        W33177   8.786  16.840  14.604 -0.1213  0.0847  0.2164
16917W        W33178   1.616   5.544  12.109  0.0657 -0.2750  0.2401
16918W        W33179  12.787   2.900   5.406  0.2288 -0.0250 -0.0727
16919W        W33180  13.965  12.673   4.462 -0.1702 -0.2849 -0.1061
16920W        W33181   5.023  16.328   3.603  0.2009 -0.0206  0.1967
16921W        W33182  17.323  14.234   1.528 -0.0629 -0.0760  0.1176
16922W        W33183   9.643  13.820  12.420  0.2637  0.0170  0.3580
16923W        W33184  14.729  13.556   6.081  0.3553 -0.1161  0.3057
16924W        W33185   7.488  12.293  16.111 -0.0556 -0.2370  0.0047
16925W        W33186   0.104   6.173  13.291 -0.2284  0.0635  0.0094
16926W        W33187   8.321   5.646   4.692  0.0982 -0.3116  0.0654
16927W        W33188   2.258   3.514   1.611 -0.3245 -0.1388  0.0781
16928W        W33189   7.786   0.345   0.953  0.1483  0.1406 -0.0879
16929W        W33190  11.419  13.790   1.596 -0.1525  0.0131  0.1927
16930W        W33191  16.531   6.450   0.035 -0.0051  0.0664  0.0160
16931W        W33192   1.220   9.066  16.776  0.1445 -0.1365  0.0176
16932W        W33193   2.244   7.952   0.630  0.0658 -0.0630  0.1924
16933W        W33194  13.534   1.662   2.993  0.1792 -0.4089 -0.1605
16934W        W33195   5.405   2.318   5.535 -0.2065  0.0923 -0.0263
16935W        W33196  13.018  14.949  14.209 -0.1153  0.0324  0.1475
16936W        W33197  13.897   8.078   3.877 -0.0852 -0.1034  0.0950
16937W        W33198  13.194   9.718  16.481  0.2732  0.1302 -0.0332
16938W        W33199   9.880   8.508  13.217 -0.3187 -0.0290 -0.4561
16939W        W33200  10.355   7.682  14.592 -0.0678  0.1133 -0.3672
16940W        W33201   4.649   5.721   1.961 -0.0016 -0.0629  0.0285
16941W        W33202   5.799  11.192   5.241  0.0144 -0.0838 -0.3331
16942W        W33203  11.381  15.121  14.817  0.2271 -0.1866  0.2596
16943W        W33204   0.282  15.621  13.525 -0.0717 -0.1393  0.2596
16944W        W33205  12.222  16.385  13.189 -0.1568  0.2176 -0.2279
16945W        W33206   1.241   8.778   5.556  0.2754  0.0688  0.0159
16946W        W33207   0.617  17.502   2.376 -0.1788  0.2365  0.3629
16947W        W33208   8.747  14.663   4.044  0.0661  0.2231  0.0052
16948W        W33209  13.767   0.529   5.462 -0.0010 -0.1152  0.0261
16949W        W33210   1.709   0.087  13.368 -0.0528 -0.2472  0.1282
16950W        W33211  10.601  13.392   1.346 -0.0454  0.0107  0.4026
16951W        W33212  10.757   9.524  13.818  0.0306 -0.2840 -0.0666
16952W        W33213  10.306   6.247   4.528 -0.1374 -0.0896 -0.1799
16953W        W33214  10.363  12.908   4.573  0.0759  0.0908  0.0360
16954W        W33215  10.484  16.177  16.505 -0.2890 -0.3302 -0.2371
16955W        W33216   9.173  12.697  14.302  0.0393 -0.3555 -0.1978
16956W        W33217   2.974   8.516  12.244 -0.0158  0.2111 -0.2245
16957W        W33218   2.804   6.539  14.059  0.0341 -0.0556 -0.1644
16958W        W33219   5.120   7.305   2.574  0.2589  0.0749 -0.1099
16959W        W33220   4.482  14.817  12.374  0.2552 -0.2427 -0.3558
16960W        W33221  15.789   8.194  13.270 -0.0926 -0.0244 -0.1687
16961W        W33222   5.163   1.371   0.955 -0.1770  0.4003 -0.3519
16962W        W33223  16.019   2.725   5.551 -0.0104 -0.0882  0.0813
16963W        W33224   5.251   3.317   4.247  0.1839 -0.0655 -0.2104
16964W        W33225   0.262   5.481   0.979  0.0119 -0.0460 -0.1741
16965W        W33226   7.430   6.855  16.424  0.4521 -0.0699  0.2099
16966W        W33227   9.881  17.714  15.796 -0.0084  0.0425 -0.2982
16967W        W33228   6.369  10.948   1.720 -0.2938 -0.0575 -0.4901
16968W        W33229  17.068   9.658  11.542 -0.2607 -0.0329  0.1529
16969W        W33230  16.836   9.956   1.126  0.4046  0.2787 -0.1965
16970W        W33231   8.587   5.407   4.356  0.0809 -0.2375  0.0963
16971W        W33232   1.198   2.552  13.263  0.1294  0.3833  0.3391
16972W        W33233   9.017  10.439   3.862  0.0675  0.0286  0.1187
16973W        W33234   2.634   5.139   0.743  0.0262 -0.1871 -0.1541
16974W        W33235   5.571  17.064  13.592 -0.1021  0.1257  0.1035
16975W        W33236   0.151  12.140  13.234  0.1149 -0.1187 -0.2090
16976W        W33237  14.168  14.297  12.639 -0.0380 -0.5030  0.0653
16977W        W33238   2.863   2.898   5.627  0.0760 -0.1740 -0.0284
16978W        W33239   6.573   4.196   0.803  0.2450  0.3882  0.1152
16979W        W33240  12.321   4.273   3.222 -0.0100 -0.1679  0.2729
16980W        W33241   3.655  13.051  13.723  0.3332 -0.2625  0.0513
16981W        W33242  12.506   1.186  15.856  0.0955  0.1304 -0.2608
16982W        W33243  16.504   1.456   3.114 -0.1008  0.1739  0.1670
16983W        W33244  14.194  13.860  15.923 -0.0983 -0.0001  0.1203
16984W        W33245   6.060  17.760   1.498 -0.0565  0.1648  0.1886
16985W        W33246  12.517  15.755   4.137 -0.1697  0.1001 -0.0910
16986W        W33247   9.477   6.823   5.672 -0.2911  0.1828 -0.1508
16987W        W33248  13.640   4.877  13.592  0.2144  0.2510  0.1131
16988W        W33249  10.805   5.654   4.113  0.1489 -0.0816  0.0464
16989W        W33250  11.057   6.476  13.101 -0.0833  0.0786 -0.0695
16990W        W33251  11.728  15.772   4.743 -0.2732  0.0197  0.0246
16991W        W33252  11.243   5.963  16.000 -0.1203  0.1102 -0.0260
16992W        W33253   8.671  11.927  12.546  0.0106  0.4135 -0.1197
16993W        W33254   2.726   4.691  16.615  0.1338  0.1435  0.0634
16994W        W33255   0.244   5.359  13.206  0.0776  0.0391 -0.0154
16995W        W33256   9.325   5.990   1.276  0.0325  0.0214 -0.1741
16996W        W33257  12.156   7.794   4.317  0.1726  0.0993 -0.1341
16997W        W33258  13.886  16.593   0.374  0.1620  0.3299  0.1612
16998W        W33259   1.423  14.139  11.975  0.2166  0.2028  0.0625
16999W        W33260  17.837   0.676   5.674 -0.0290  0.0949 -0.1053
17000W        W33261   2.408  12.740  16.705 -0.1622 -0.0455  0.2723
17001W        W33262   1.218   0.293   5.839 -0.1012  0.0743 -0.1127
17002W        W33263  12.884  15.357  13.286 -0.3816  0.0247 -0.1721
17003W        W33264  16.499   6.315  15.019 -0.0778  0.0390  0.2543
17004W        W33265   4.543   2.091   1.983 -0.1696  0.2656  0.0067
17005W        W33266   8.212   8.242   6.311 -0.0491  0.3167 -0.1228
17006W        W33267  10.872   5.681  15.759 -0.1536 -0.3097 -0.2748
17007W        W33268  10.819   7.493  14.716  0.0592  0.1424 -0.0964
17008W        W33269  16.763  16.173  15.140  0.1588 -0.0086  0.0437
17009W        W33270  11.728   2.784  15.750 -0.0479  0.0970  0.3389
17010W        W33271   9.193  12.289   2.920 -0.1018 -0.0289 -0.0980
17011W        W33272  16.494  13.107   2.521 -0.0504 -0.4002 -0.1228
17012W        W33273   7.525  11.273   1.133 -0.1173  0.0584 -0.2342
17013W        W33274   2.538   2.375  12.629  0.0635 -0.2694  0.1447
17014W        W33275   0.536   4.849  13.912 -0.0232 -0.1928  0.3731
17015W        W33276   4.312  16.214   1.254 -0.1103  0.0223  0.1376
17016W        W33277   0.591  11.687  13.735  0.1557 -0.1086  0.1386
17017W        W33278   7.412   4.792  16.615 -0.0429 -0.0945  0.1761
17018W        W33279  10.872  14.380   0.879  0.0910  0.0894 -0.1137
17019W        W33280  14.885   3.049  15.407 -0.1709 -0.2749  0.0471
17020W        W33281   6.786  14.362  14.480 -0.1786 -0.0706 -0.2768
17021W        W33282  16.904   6.661   0.354 -0.1306 -0.3987 -0.1734
17022W        W33283  14.306   8.327   1.227 -0.1127  0.0392 -0.1845
17023W        W33284   9.563  14.761  14.370 -0.0418  0.0462 -0.1291
17024W        W33285   2.961  15.790   1.011 -0.2388 -0.0989  0.0694
17025W        W33286  10.851  14.248   4.349  0.0386 -0.0769 -0.0327
17026W        W33287   9.112  14.256   2.689  0.1589  0.1400  0.2220
17027W        W33288   6.537  17.203  15.987  0.0082 -0.1485 -0.1565
17028W        W33289   6.292  13.507   2.294  0.0351 -0.1171 -0.2242
17029W        W33290  13.482   0.855  13.907  0.2331 -0.2464 -0.0983
17030W        W33291  14.274   8.349  12.130 -0.0834 -0.0590 -0.2862
17031W        W33292  11.204  11.340   0.058  0.1346 -0.0651 -0.1256
17032W        W33293   7.223   2.864   4.762 -0.0557  0.0671  0.3117
17033W        W33294  13.067   9.103   2.725 -0.0397 -0.2187 -0.2040
17034W        W33295   4.938   5.013   3.248  0.0859  0.1587 -0.0950
17035W        W33296   3.575   1.667   6.538  0.0847 -0.0612  0.2907
17036W        W33297   5.479  13.175  14.577  0.1403  0.4310  0.0880
17037W        W33298  12.694   5.711  12.687 -0.1894  0.2058 -0.1249
17038W        W33299   9.121  14.540   1.948 -0.3021 -0.0641  0.0049
17039W        W33300   0.015   4.001   2.766  0.2945 -0.0115  0.0212
17040W        W33301   3.430   4.189  15.643  0.0451 -0.1512 -0.0393
17041W        W33302   4.403  15.333  12.671  0.1444  0.1370  0.0995
17042W        W33303   9.092  11.044  16.821  0.2403 -0.2202  0.1333
17043W        W33304   1.834  12.373  12.935 -0.1932  0.2435 -0.1481
17044W        W33305   2.361  16.555  14.988 -0.1027 -0.1759 -0.1816
17045W        W33306  13.269   3.101   2.986  0.2531 -0.0242 -0.1917
17046W        W33307  15.599  10.193  12.039 -0.1595 -0.2373 -0.1545
17047W        W33308   4.017   2.581   5.505  0.0996  0.2731  0.0349
17048W        W33309   9.903  14.655  11.716  0.1789  0.0096  0.1198
17049W        W33310  14.085   1.163   5.856 -0.0226  0.4188 -0.1168
17050W        W33311   4.906   2.057  14.668  0.0070  0.3052  0.1796
17051W        W33312   5.744  14.821  12.691 -0.0576  0.1464  0.3768
17052W        W33313  11.863   8.547   3.252 -0.2257  0.2926  0.0230
17053W        W33314  11.002   3.433  16.898  0.0579  0.0243 -0.0089
17054W        W33315   8.411   1.262   1.755  0.0486 -0.1567 -0.1744
17055W        W33316   3.876   2.289  15.923 -0.0092 -0.1447 -0.2324
17056W        W33317  10.017  12.151   3.280  0.0269 -0.1931  0.2981
17057W        W33318   0.090   4.433  14.016 -0.2919 -0.1446 -0.1980
17058W        W33319  12.088  17.442  14.104 -0.1807 -0.0021  0.4701
17059W        W33320  15.249  11.867   4.249  0.0841  0.0324  0.1459
17060W        W33321   2.443   0.164   3.728 -0.0622  0.0647 -0.0128
17061W        W33322  14.804  15.558  14.055  0.1605  0.2109 -0.0946
17062W        W33323   5.022  17.562   4.153  0.3577  0.2820 -0.2127
17063W        W33324   6.949   7.168  14.559  0.0232  0.0375 -0.2467
17064W        W33325   4.811   5.669  12.664  0.1985 -0.0424  0.1900
17065W        W33326   7.208   4.704   5.486  0.1110 -0.2723 -0.2814
17066W        W33327   9.714  16.181  12.250  0.1975 -0.0603 -0.0947
17067W        W33328   6.316   7.144   4.796  0.4508 -0.1575 -0.2937
17068W        W33329  16.622   4.396  12.815  0.0414 -0.3252 -0.2593
17069W        W33330  15.197  14.992  14.821  0.0095 -0.1868 -0.1776
17070W        W33331   7.769  10.419   0.809  0.0439  0.2238  0.1585
17071W        W33332   5.968  17.344   3.156  0.0324  0.0438  0.0533
17072W        W33333  12.480  15.716   0.581 -0.2560  0.1499  0.1719
17073W        W33334   3.773   1.158   0.334 -0.1066 -0.5140 -0.2120
17074W        W33335  14.840   4.613  12.312  0.1058 -0.2501 -0.0959
17075W        W33336  14.116  10.613   2.488  0.2717  0.6028  0.0391
17076W        W33337   6.499   1.170   1.672  0.0474  0.1955 -0.0255
17077W        W33338  10.464   9.416   4.253 -0.1775  0.3785  0.2593
17078W        W33339   7.915  14.949  11.848 -0.0971 -0.0423 -0.3098
17079W        W33340  12.930  14.733   2.404 -0.1097  0.3331 -0.0444
17080W        W33341   0.578   2.060   0.704  0.0045 -0.2669  0.0797
17081W        W33342  15.380   7.607  14.410  0.0304 -0.1222 -0.0715
17082W        W33343  12.970  13.569   3.758 -0.0192 -0.2036  0.1893
17083W        W33344  10.147   9.676   3.910  0.2750  0.0211  0.0543
17084W        W33345  12.046  11.064  13.760  0.2721  0.1307 -0.3685
17085W        W33346   9.972   5.896  15.387 -0.0602  0.2956  0.1313
17086W        W33347   1.577   1.573  16.912 -0.1326  0.0717  0.3743
17087W        W33348  13.372   9.474  14.085  0.0097  0.1758 -0.0512
17088W        W33349  17.206   2.066  13.889 -0.1962 -0.1346  0.0299
17089W        W33350   9.311   9.868   1.501 -0.0645  0.0013  0.0352
17090W        W33351  17.744  16.491  13.738  0.1837  0.2840  0.1625
17091W        W33352  10.640   6.224   1.431 -0.1183  0.2701  0.2447
17092W        W33353   1.842   3.071  15.909 -0.2915  0.1322 -0.1168
17093W        W33354   4.191  13.910  14.426  0.0419 -0.1027  0.0865
17094W        W33355  14.135   3.218   5.365  0.2233 -0.2322 -0.0134
17095W        W33356   0.684  16.645   0.432  0.1082  0.0166  0.1000
17096W        W33357   6.774   5.469   4.918  0.1844 -0.0408  0.1789
17097W        W33358   9.703  15.151  16.429  0.1607  0.0981  0.0383
17098W        W33359   6.706   5.598  16.353  0.1219 -0.3264  0.1773
17099W        W33360  12.287  14.139   0.815  0.1002 -0.0490  0.2371
17100W        W33361   1.712   3.304   2.327  0.2195 -0.0310  0.2251
17101W        W33362   5.652  16.013   5.016 -0.0422  0.0186 -0.0216
17102W        W33363  15.267  11.779   1.848 -0.2755  0.2302 -0.1547
17103W        W33364   9.833   2.724  13.494  0.0786  0.1671  0.0425
17104W        W33365  14.382   4.982   4.044  0.1119  0.1116 -0.1160
17105W        W33366   7.730  12.973  14.454  0.0363  0.1425  0.1349
17106W        W33367  16.653  12.571  14.410 -0.0738 -0.0588  0.1020
17107W        W33368   4.046   3.496   5.243  0.0102  0.3198  0.1540
17108W        W33369   0.294  10.077   1.102  0.1699 -0.3455 -0.1263
17109W        W33370   7.274   9.058   3.119 -0.1247  0.1432  0.1779
17110W        W33371  10.100   7.802  15.083 -0.1097  0.0986  0.0076
17111W        W33372  11.951  11.961  14.076  0.0853  0.0916  0.2279
17112W        W33373   7.973  13.671   0.095 -0.3102 -0.1402 -0.1034
17113W        W33374   6.717   4.522  14.603  0.0799  0.0313 -0.1815
17114W        W33375   5.747  14.553  11.760  0.3401 -0.0607  0.3051
17115W        W33376   3.666  15.232   1.258  0.3689  0.0363  0.0482
17116W        W33377  11.631   7.694  15.686 -0.0520  0.0462  0.0998
17117W        W33378  14.966  15.431  16.304  0.1145 -0.1120 -0.1129
17118W        W33379  10.015  16.527  14.121  0.1583 -0.0697 -0.3149
17119W        W33380   2.529   3.766   0.492 -0.1645 -0.0064 -0.0977
17120W        W33381   2.625   9.322  16.794 -0.2615 -0.0507 -0.1966
17121W        W33382   9.738   4.819   3.579  0.2480  0.3502 -0.2057
17122W        W33383  15.603   6.758  14.979 -0.2110 -0.2384 -0.1613
17123W        W33384   5.432   8.161   2.686 -0.0010  0.2050  0.1930
17124W        W33385  11.960  14.556  14.138 -0.2069 -0.0122  0.1230
17125W        W33386  12.043  16.009   0.103  0.1628 -0.0465  0.1168
17126W        W33387  17.450   1.620  13.947 -0.1073 -0.2870 -0.0101
17127W        W33388  10.380   4.897  12.850 -0.1072  0.1028  0.1437
17128W        W33389   6.435  10.810  13.008  0.0019  0.1714 -0.1719
17129W        W33390   8.461   5.230   3.569 -0.0469 -0.3129  0.2364
17130W        W33391   5.798   4.279  16.905 -0.0841 -0.0409 -0.0139
17131W        W33392   8.923   2.493  16.166 -0.0705  0.2520  0.3273
17132W        W33393  16.724  16.608  14.197  0.2494 -0.1292 -0.2167
17133W        W33394   3.251   4.110   5.688  0.0998  0.4824  0.0280
17134W        W33395   9.478  11.744   1.004 -0.3560  0.0437  0.0682
17135W        W33396   3.484   3.682   0.784 -0.2300  0.1376 -0.1663
17136W        W33397   1.378  16.621  16.686 -0.0065  0.2056  0.1919
17137W        W33398  12.819   6.075  12.411 -0.2151 -0.1058  0.2383
17138W        W33399   7.537  13.239  13.412 -0.0925  0.0714 -0.1723
17139W        W33400   9.133   2.410  13.877 -0.2564 -0.2742  0.0602
17140W        W33401  15.328  17.642   4.109  0.1418  0.1074 -0.4623
17141W        W33402  16.256   0.571   4.726  0.0147  0.0906  0.1617
17142W        W33403  16.782  12.625  14.911  0.1310 -0.1628  0.2004
17143W        W33404  10.866   9.139   2.398  0.1941  0.0423  0.0402
17144W        W33405  16.837  11.137  13.347 -0.2035 -0.0760 -0.2768
17145W        W33406   6.427   1.567   5.196  0.0402 -0.2459 -0.1225
17146W        W33407  15.742  11.149   1.674 -0.0874  0.1561 -0.0280
17147W        W33408   7.643   4.070   4.131 -0.0289  0.1190 -0.0289
17148W        W33409  12.460   1.624   5.809  0.2703  0.1502 -0.1385
17149W        W33410   7.171   7.083  12.222 -0.1253 -0.1408  0.0023
17150W        W33411   5.529   4.832  12.615  0.0943  0.2000 -0.0133
17151W        W33412   6.920   4.297  12.729  0.0540  0.1200 -0.1190
17152W        W33413  10.540   9.592   0.475  0.1834  0.1039 -0.1006
17153W        W33414  16.954   5.185  15.823  0.1717  0.3030  0.1434
17154W        W33415   3.099  13.996   4.229  0.1964 -0.0460 -0.1517
17155W        W33416   8.599   3.806   4.390  0.0822  0.0242 -0.1447
17156W        W33417  17.405   6.491   0.337 -0.1611 -0.0738  0.0922
17157W        W33418  17.489  16.998  15.586 -0.1728 -0.1271 -0.0018
17158W        W33419  15.533  14.442  12.359  0.4187  0.3646 -0.2004
17159W        W33420  14.443   3.446  13.960 -0.2793 -0.1007 -0.0742
17160W        W33421  11.962   1.164  13.904 -0.1911 -0.0058 -0.1576
17161W        W33422   7.157  10.697   2.032  0.0108 -0.0256 -0.2620
17162W        W33423   1.432   6.928   4.187  0.0805 -0.0702  0.2289
17163W        W33424   8.833  13.176  15.040 -0.0881 -0.0169 -0.3366
17164W        W33425  14.874  13.295   5.613  0.0609 -0.0200  0.0344
17165W        W33426  13.386   2.435  14.393 -0.0090  0.2437  0.0272
17166W        W33427   3.414   4.282   5.260 -0.1208 -0.0298  0.0753
17167W        W33428   8.554   5.634   0.252  0.1450 -0.0703 -0.0032
17168W        W33429  11.929   2.622   3.006  0.0942 -0.3257 -0.4185
17169W        W33430   9.630  10.885   5.554 -0.0782  0.0108  0.0822
17170W        W33431   4.312  13.300   3.813 -0.0038 -0.1187 -0.2830
17171W        W33432  12.611   0.222  15.088 -0.0199  0.0990  0.2261
17172W        W33433   7.368  14.278  16.035 -0.1222 -0.0057  0.1026
17173W        W33434  13.269   2.592  16.853 -0.1497  0.1480  0.0079
17174W        W33435   7.266   2.425   2.634  0.0534  0.0752 -0.4904
17175W        W33436   5.228   2.796  12.736  0.0046 -0.2724  0.3100
17176W        W33437  10.384   0.172   0.716 -0.0397 -0.2855 -0.0404
17177W        W33438  15.385   3.453  10.892 -0.0635 -0.1273 -0.0653
17178W        W33439  13.197  12.014  11.886  0.0744 -0.3794 -0.0997
17179W        W33440  16.868  12.335  12.916 -0.1645 -0.2234 -0.1565
17180W        W33441   7.468   3.610  14.866 -0.0875  0.1480  0.0678
17181W        W33442   4.130   8.552  15.563  0.2140 -0.2124 -0.5632
17182W        W33443  14.252   7.641   5.986  0.0864 -0.2192 -0.2669
17183W        W33444   4.720   7.337  16.328  0.0275  0.0727  0.1504
17184W        W33445   3.975  16.963   3.311 -0.2346 -0.1817  0.0325
17185W        W33446  12.086  11.698  16.845 -0.3405 -0.0655 -0.0526
17186W        W33447   3.546  12.512   3.416  0.2425 -0.2122 -0.0577
17187W        W33448   7.505  12.352   0.047  0.0657 -0.3029 -0.1700
17188W        W33449  17.147   3.664   0.951  0.0823 -0.2618 -0.1629
17189W        W33450   6.321   8.983   4.511  0.1297 -0.0037  0.1191
17190W        W33451   6.928   0.353   0.422  0.2802  0.2432 -0.0388
17191W        W33452   5.362   4.314   3.627  0.2127  0.0926 -0.2313
17192W        W33453   6.606  13.240  13.164  0.3172  0.0727  0.0571
17193W        W33454   7.676   5.362  16.706 -0.0133  0.2721  0.0329
17194W        W33455   9.100  12.474   2.425  0.0157  0.1064 -0.0086
17195W        W33456   9.248   7.334  15.375  0.1707  0.0813  0.1489
17196W        W33457   9.587   5.918  15.764  0.2129 -0.0707  0.1391
17197W        W33458   1.509  16.065   5.117 -0.0317 -0.0553  0.0414
17198W        W33459   6.446  13.326  12.137  0.1867  0.0086  0.0433
17199W        W33460  14.578   4.278  16.164  0.0083 -0.1603  0.0771
17200W        W33461  11.368  13.026   1.037  0.2279  0.0244  0.1565
17201W        W33462   7.716   8.264  12.034 -0.0000 -0.2566  0.1956
17202W        W33463  12.523  16.370   4.316 -0.2471  0.3608 -0.4085
17203W        W33464  16.720   1.245   2.153  0.0999  0.0666 -0.1700
17204W        W33465  17.295  10.491  12.766  0.0214  0.0082  0.0786
17205W        W33466  13.540   8.925  13.683 -0.0483  0.0284 -0.1100
17206W        W33467   3.591  12.526   0.491  0.3954  0.0882  0.2232
17207W        W33468   6.238  14.563   1.411 -0.1192  0.0018  0.0237
17208W        W33469   4.540  14.285  14.100  0.0387 -0.3526 -0.1885
17209W        W33470  13.475   5.152   2.351 -0.0059  0.0659 -0.0734
17210W        W33471   7.917   1.305   4.119  0.0125 -0.3461  0.1756
17211W        W33472  11.241   7.486  15.082 -0.0825 -0.2390  0.1691
17212W        W33473   6.971   2.232   0.720 -0.0372  0.2682 -0.0872
17213W        W33474  14.832  17.172   0.656  0.2606  0.1286 -0.1756
17214W        W33475   6.525   5.051  14.487  0.1131 -0.0297  0.0791
17215W        W33476   9.449   0.182  11.978  0.0898  0.0332 -0.0926
17216W        W33477   1.226   4.824   2.117  0.1382  0.2700 -0.0081
17217W        W33478  12.760  11.121   1.468  0.0909 -0.1206 -0.1668
17218W        W33479  12.525  15.185  14.050 -0.1093 -0.0603  0.0360
17219W        W33480  11.111  13.568  11.430 -0.1838  0.0900 -0.1658
17220W        W33481  14.574   4.134  13.310  0.1889 -0.1921  0.0759
17221W        W33482  12.097   2.619  12.558  0.2005  0.1566 -0.1920
17222W        W33483   7.644   8.664   2.517  0.1879  0.4470 -0.1435
17223W        W33484  13.819   3.444  13.342  0.1986  0.3486 -0.3191
17224W        W33485   5.391   4.022  15.973  0.2788  0.0622 -0.3497
17225W        W33486  13.974   7.265  13.060  0.2381 -0.0908 -0.2439
17226W        W33487  12.535   9.761  11.725 -0.1180  0.2017 -0.3052
17227W        W33488  16.909  11.769   2.890  0.1306  0.1006  0.0741
17228W        W33489  12.583  15.823   1.966  0.0237  0.1422  0.0968
17229W        W33490  14.772  11.430   5.154  0.0195  0.1624  0.1712
17230W        W33491  16.130  16.683  12.026 -0.0927 -0.2349  0.0036
17231W        W33492  14.191   0.916   1.079 -0.0920  0.1234  0.2114
17232W        W33493   9.712  14.349  12.544 -0.1692  0.1142 -0.3206
17233W        W33494  14.155  13.541   0.478  0.1750 -0.2409 -0.1316
17234W        W33495  11.220   2.047  11.773 -0.2003  0.1005  0.1825
17235W        W33496   3.389  10.713  11.583  0.1558 -0.2658  0.2425
17236W        W33497   6.060  12.058   3.705  0.0111 -0.2428  0.2992
17237W        W33498   1.756  11.657   1.069  0.0951 -0.2998  0.1534
17238W        W33499   2.827   9.410  12.921  0.0682  0.0639 -0.0446
17239W        W33500   4.122  15.775   4.469 -0.3214  0.1533 -0.2090
17240W        W33501  10.544  17.789  13.082  0.0189 -0.3358  0.0866
17241W        W33502   2.985  10.957  14.960 -0.0344 -0.0418  0.3669
17242W        W33503  11.451   5.394   1.001  0.1174  0.0400 -0.0745
17243W        W33504   0.710   2.194  15.011  0.0069 -0.2323  0.1290
17244W        W33505   4.265  12.342   2.325 -0.3814  0.3635 -0.0168
17245W        W33506   3.956  14.298   3.541 -0.0199 -0.1448  0.1118
17246W        W33507   2.138   4.098  14.603 -0.1773  0.1949  0.1805
17247W        W33508   0.142   6.868   5.968 -0.0662  0.1918  0.0630
17248W        W33509  10.022   2.899  12.088 -0.0635 -0.4319  0.0297
17249W        W33510  13.129  12.506   5.062  0.1636  0.0318 -0.0390
17250W        W33511   5.538  13.603   4.284  0.1955  0.0996  0.0663
17251W        W33512  12.178   5.755  16.891 -0.2955 -0.1511  0.0225
17252W        W33513  11.515  16.479   1.032  0.2931 -0.1089 -0.2540
17253W        W33514  11.857   3.866   4.489  0.0365  0.2386 -0.2858
17254W        W33515  11.066  13.724  13.425  0.2828  0.2212  0.1651
17255W        W33516  10.156   9.684   5.998  0.1010  0.1820 -0.2353
17256W        W33517   4.207  15.733   3.689 -0.0119  0.0755 -0.0420
17257W        W33518   9.012   2.175  13.486 -0.0708 -0.2094  0.3570
17258W        W33519   4.769   9.763   3.895  0.1252  0.2181 -0.2877
17259W        W33520  14.832   1.491   1.403 -0.0043 -0.0172 -0.0578
17260W        W33521  15.904  17.185   2.095 -0.1301  0.2448 -0.1293
17261W        W33522  14.254   5.183  13.987  0.1838 -0.0957 -0.1278
17262W        W33523   6.616   4.093  16.166 -0.0545 -0.3241 -0.1475
17263W        W33524  13.905  13.037  12.249  0.1548 -0.1044  0.0751
17264W        W33525  11.916   1.500   4.593  0.2036 -0.0712  0.0745
17265W        W33526   4.279   8.610   4.234 -0.0358  0.2634 -0.0822
17266W        W33527  14.685   2.010   4.360  0.1187 -0.1495  0.0301
17267W        W33528  17.766   6.953   1.458 -0.1925 -0.1275  0.0421
17268W        W33529   8.599   2.763  15.871 -0.1089 -0.1402 -0.0087
17269W        W33530  14.323   0.878   3.532  0.2551 -0.0679 -0.1849
17270W        W33531  14.041  16.128  12.570  0.0427  0.1831 -0.3699
17271W        W33532   7.127   4.742   1.349  0.1577 -0.1137 -0.1358
17272W        W33533  16.217  14.384   5.306 -0.0859  0.2000  0.2261
17273W        W33534   9.867   2.999   3.484  0.2245  0.1696  0.1850
17274W        W33535  14.316   3.897  12.025  0.2816  0.1346 -0.0982
17275W        W33536  14.148   0.806   0.520 -0.0493 -0.1838 -0.3586
17276W        W33537  12.510   4.011  16.624 -0.0206  0.2842  0.0576
17277W        W33538  12.922  15.583   0.244  0.3584  0.1110  0.2581
17278W        W33539  16.708  10.918   0.238 -0.1585  0.1232 -0.1812
17279W        W33540   8.142  12.204   2.733 -0.0114 -0.2364 -0.0870
17280W        W33541  14.625  12.834  13.805 -0.0108  0.2033 -0.1970
17281W        W33542   5.213  11.010  15.455 -0.0865  0.2251 -0.0056
17282W        W33543  10.972  16.819   1.206  0.1244 -0.0890  0.1318
17283W        W33544  13.476  16.928   2.546  0.0319  0.0855  0.0011
17284W        W33545   3.231  16.605   5.979  0.0838  0.0347  0.2075
17285W        W33546   8.274   3.345   2.559 -0.0644  0.0761 -0.3514
17286W        W33547  12.613   5.864   3.536  0.1415 -0.2576 -0.2175
17287W        W33548  16.377   1.643  12.395  0.0678  0.0951  0.1152
17288W        W33549   6.906  17.388   3.971  0.1425  0.1474  0.3359
17289W        W33550  11.037   5.892   4.533  0.1343  0.0461 -0.0860
17290W        W33551  13.571   4.783   1.367  0.1719 -0.1153 -0.1095
17291W        W33552  14.342   9.063  14.544 -0.1870  0.0310 -0.2912
17292W        W33553  11.393  16.331  13.976 -0.1105  0.0277 -0.1274
17293W        W33554   8.430  13.408   3.208 -0.0789 -0.1107 -0.2189
17294W        W33555  11.090  12.895   0.594  0.1771  0.2833 -0.2228
17295W        W33556   4.345   9.287  13.174 -0.0535  0.0052  0.0385
17296W        W33557   8.187  11.796   3.698  0.0656  0.1670  0.1154
17297W        W33558   3.157   1.937  13.943  0.2636 -0.0141 -0.0964
17298W        W33559   0.765  11.611   0.188  0.1671 -0.1973 -0.1633
17299W        W33560  13.797   2.116   5.201 -0.1143  0.2464 -0.2894
17300W        W33561   8.938   1.489  16.734 -0.3417 -0.3434  0.2400
17301W        W33562   7.767   2.107   0.392 -0.4425 -0.3141  0.2807
17302W        W33563   6.498  13.029  16.870 -0.0085 -0.0899 -0.3125
17303W        W33564   5.777  14.642  16.728  0.0273 -0.0720 -0.2430
17304W        W33565   6.940  12.097   5.420 -0.0245  0.2205  0.1586
17305W        W33566   7.926  17.455  15.459 -0.0087  0.1368 -0.1951
17306W        W33567   6.324  11.409  16.453  0.0698 -0.4093 -0.0151
17307W        W33568  14.308   5.579   0.349  0.0845 -0.4862 -0.2043
17308W        W33569   8.510   4.775   1.229 -0.2888  0.1097  0.2467
17309W        W33570  10.103   7.287  15.851 -0.2788  0.1491 -0.2129
17310W        W33571  11.176  15.865   4.069  0.1050  0.5829  0.1252
17311W        W33572  15.387  14.850  13.001  0.1760  0.2766 -0.0929
17312W        W33573   2.795  11.222   6.240  0.0757 -0.0612  0.0813
17313W        W33574   8.156  10.993   3.214  0.1230  0.0347 -0.1203
17314W        W33575   1.885   8.201   0.850  0.1419 -0.0064 -0.0136
17315W        W33576   3.262  11.625   3.579 -0.2134 -0.2231  0.1256
17316W        W33577  10.857  16.814  13.291 -0.1530 -0.0812  0.0985
17317W        W33578   4.197  14.524  14.377  0.0404  0.3537 -0.0003
17318W        W33579  14.482  14.990   3.438  0.0641  0.0944  0.2738
17319W        W33580  13.764   1.251   4.456  0.1517  0.0955 -0.1550
17320W        W33581   4.136   3.952   3.646 -0.2828 -0.0929  0.0233
17321W        W33582   0.915   3.435  13.420  0.0262 -0.3999 -0.1835
17322W        W33583  15.223   4.204  16.922 -0.0755 -0.0899 -0.0715
17323W        W33584  14.805   5.584   1.109  0.2049 -0.0202 -0.0249
17324W        W33585  16.891   4.033  11.987 -0.0026  0.1850  0.1586
17325W        W33586   2.989   9.383   2.250 -0.1202  0.2357 -0.0160
17326W        W33587  16.188  10.585  13.511  0.2835 -0.0312  0.0835
17327W        W33588  15.963   7.335   4.272 -0.0509  0.1158 -0.3230
17328W        W33589  11.477  12.403   1.661  0.2241 -0.2894 -0.1764
17329W        W33590   6.898   2.624  14.279 -0.2061  0.1276 -0.1987
17330W        W33591  13.876   7.072  14.979  0.0313  0.1353 -0.2055
17331W        W33592   7.987   3.009   2.839  0.0752  0.0342 -0.2514
17332W        W33593   0.087  14.941  14.721 -0.3062  0.1560 -0.1661
17333W        W33594   2.428  12.577  12.183 -0.2068 -0.2666  0.0099
17334W        W33595  16.450  10.933   4.557 -0.1060  0.2339  0.1856
17335W        W33596  11.279  11.491  14.554 -0.0922 -0.0535  0.0218
17336W        W33597  16.478   4.401   2.006  0.3490 -0.0510 -0.1321
17337W        W33598  17.710  12.105   0.347 -0.2642 -0.1138  0.3367
17338W        W33599   3.271  14.517  14.723 -0.0923  0.0320 -0.0604
17339W        W33600  11.756   2.985   2.072 -0.0691  0.0067 -0.1644
17340W        W33601  10.809  10.396  14.249 -0.0310  0.0783 -0.0446
17341W        W33602  14.706   5.378   4.687 -0.3046 -0.1974  0.0222
17342W        W33603   3.855  11.211  15.921 -0.1497  0.0213 -0.3506
17343W        W33604   5.584  10.438   3.316  0.1684 -0.0798  0.1397
17344W        W33605  11.018   4.862   3.244  0.0919 -0.3127  0.1271
17345W        W33606   7.429  10.302   3.272 -0.0481 -0.0435  0.1412
17346W        W33607   4.790  13.757  11.574 -0.2057 -0.0773 -0.1347
17347W        W33608   3.089   5.600  16.619 -0.1541 -0.1055  0.3183
17348W        W33609   1.922   9.228   3.236 -0.0887  0.0267  0.0306
17349W        W33610   4.680   6.290  11.966 -0.0669  0.2683  0.1002
17350W        W33611  17.669  17.265  14.330 -0.1233  0.2605  0.0555
17351W        W33612   9.450   1.645   1.992  0.0427  0.1595 -0.3468
17352W        W33613   2.241  17.574  11.842 -0.2859  0.0573  0.3092
17353W        W33614  10.888  17.549  12.715  0.0867 -0.3475 -0.0860
17354W        W33615  15.818   4.574  12.571 -0.0337  0.1726  0.0510
17355W        W33616  12.731   8.536   2.195 -0.0499 -0.2687 -0.0416
17356W        W33617   7.940  11.012  13.353  0.0788  0.1936 -0.2218
17357W        W33618   8.913  13.979  16.373 -0.1007  0.1656 -0.0307
17358W        W33619   9.240  13.745   6.074 -0.0415  0.5901  0.1275
17359W        W33620   9.769  14.166   4.677  0.0257 -0.0004 -0.0246
17360W        W33621   7.891  15.132  11.383 -0.1609  0.0539 -0.0033
17361W        W33622  14.652   1.234   4.264  0.1372  0.0051  0.0515
17362W        W33623  16.471   3.304  15.009 -0.0098  0.0248  0.3374
17363W        W33624   9.995  16.956  16.818  0.0333 -0.0309 -0.3432
17364W        W33625   7.356   8.800   0.977  0.1280  0.0664 -0.1057
17365W        W33626  12.356   9.309  16.380 -0.0947  0.1087 -0.1238
17366W        W33627  15.373  17.526   0.308  0.1043  0.1292 -0.3081
17367W        W33628   8.580   9.113  11.715 -0.3595 -0.0764  0.0528
17368W        W33629   7.123  16.468   3.672 -0.1547  0.0702  0.1754
17369W        W33630  15.677  15.240  14.813 -0.0141  0.1100  0.0328
17370W        W33631  16.978  16.045   0.014  0.4130 -0.1787 -0.0674
17371W        W33632  16.156   2.481  13.615  0.0208 -0.2599  0.0396
17372W        W33633  10.929  10.170   1.662 -0.1174  0.2549 -0.1354
17373W        W33634  16.547  16.428   4.547 -0.1426  0.1327  0.1017
17374W        W33635  11.934   4.204   0.239  0.2976 -0.1177  0.0414
17375W        W33636   0.211  16.422  11.767 -0.3065  0.1016 -0.1377
17376W        W33637   8.201   0.059   4.740 -0.2467  0.1460 -0.0531
17377W        W33638   6.267  12.162   2.659 -0.1179  0.0887  0.0782
17378W        W33639  16.942   6.028   5.227 -0.0736 -0.2536  0.1027
17379W        W33640  12.069  13.795  13.506  0.2755 -0.0599  0.0664
17380W        W33641   2.131  17.003  11.962 -0.1056 -0.1493  0.1856
17381W        W33642   3.165  15.119  13.953  0.1122  0.1084  0.1536
17382W        W33643  13.934   6.041   5.572 -0.1151  0.1156 -0.0557
17383W        W33644  17.639  12.197   4.702 -0.1771  0.0231  0.2023
17384W        W33645   5.778  16.724  12.037 -0.0123 -0.1413  0.2100
17385W        W33646  12.297   1.828  12.182 -0.1426 -0.0021 -0.2033
17386W        W33647  11.254  10.472   4.653 -0.0093  0.0218 -0.0541
17387W        W33648  16.777  14.183  12.876  0.0109 -0.0257 -0.0332
17388W        W33649  17.041   2.813  13.395  0.1551  0.1329 -0.1165
17389W        W33650  13.511   9.575   0.571 -0.0505 -0.3651  0.4458
17390W        W33651   9.239   2.659   2.114 -0.2918 -0.1757 -0.2602
17391W        W33652  10.387  15.497  11.920  0.0060 -0.1638 -0.4247
17392W        W33653  12.431   8.435  13.651  0.4566  0.2468 -0.1720
17393W        W33654   3.132   5.235   4.191  0.1270  0.1414 -0.0076
17394W        W33655   9.399  13.833   4.875 -0.2412 -0.1919 -0.1038
17395W        W33656  12.571  10.919   4.504 -0.1396 -0.2366 -0.2417
17396W        W33657   9.598  11.967  13.777 -0.0936  0.0902 -0.0423
17397W        W33658  14.535  14.597   3.128  0.3701  0.0208 -0.1830
17398W        W33659  14.803   1.679  16.521  0.0052 -0.4091 -0.4200
17399W        W33660  13.274   8.457   4.433  0.0189  0.2185  0.1774
17400W        W33661   7.337  12.591   3.103 -0.2623 -0.1593  0.0647
17401W        W33662  12.495  13.574  12.606  0.0725 -0.2697  0.0296
17402W        W33663   7.033   3.777   1.911  0.3178  0.0246  0.1160
17403W        W33664  16.778   5.598  14.378  0.1039  0.1476  0.2759
17404W        W33665  12.872  17.450  13.798 -0.1359  0.0135  0.1700
17405W        W33666   1.501  10.556  16.334 -0.1708 -0.1537 -0.0977
17406W        W33667  14.552   1.855   6.781 -0.1215 -0.0779  0.2642
17407W        W33668  12.540   6.498  13.961 -0.2540 -0.1263  0.1903
17408W        W33669   4.941   6.847  14.829  0.2639 -0.1310 -0.0927
17409W        W33670   8.708   7.527  15.229  0.1550  0.3182 -0.2463
17410W        W33671   9.486  15.905   3.767  0.1634  0.0208 -0.0213
17411W        W33672   0.038  17.283   3.068  0.1539 -0.2785 -0.4575
17412W        W33673  13.734   1.581   5.383  0.0772 -0.0961  0.2424
17413W        W33674   0.830  12.850   0.715 -0.1989 -0.2252 -0.1734
17414W        W33675   5.690   2.844  12.327 -0.0598  0.1340  0.0898
17415W        W33676  15.628   5.994   4.072  0.1197 -0.0185  0.0856
17416W        W33677   1.635  16.157  16.776  0.2161  0.0238 -0.0697
17417W        W33678  16.209  13.344  13.986 -0.2219  0.2334 -0.2628
17418W        W33679  14.747  16.548  16.902 -0.0225  0.1338  0.1065
17419W        W33680  13.898  10.798   4.424  0.0052 -0.1713 -0.1528
17420W        W33681  15.231  11.653   5.580  0.0136  0.3886  0.1051
17421W        W33682  17.116   0.784   6.710  0.0382  0.4396  0.2030
17422W        W33683  14.981   5.269   0.219  0.1284 -0.1478 -0.0883
17423W        W33684   3.146   5.432   1.340  0.0298 -0.0274 -0.0973
17424W        W33685  10.164  13.499  13.638  0.2090  0.0273  0.1915
17425W        W33686   5.409   0.520  11.628 -0.1485  0.0964 -0.1985
17426W        W33687   0.579   6.760   5.330 -0.0122  0.0614 -0.1415
17427W        W33688   1.437   3.773   1.027 -0.1517 -0.1704 -0.0604
17428W        W33689   1.068  14.486   0.535 -0.0201 -0.2378  0.1734
17429W        W33690   1.054   9.852   1.682 -0.0192 -0.0238  0.1632
17430W        W33691  13.377  15.438   5.856 -0.0106 -0.2272 -0.1437
17431W        W33692   4.772   7.652   2.969  0.0268 -0.1267  0.0567
17432W        W33693  10.470   0.018  14.243 -0.1682 -0.0673  0.0517
17433W        W33694  14.421   4.883  16.170  0.0138 -0.2028  0.0509
17434W        W33695   1.156  12.028   1.899  0.3270  0.2193  0.2255
17435W        W33696   1.408   8.853  12.571  0.1625  0.2027 -0.1073
17436W        W33697   7.651   6.093   2.289 -0.2957  0.1922 -0.0523
17437W        W33698  15.485  11.160   4.790  0.0479 -0.0750 -0.1549
17438W        W33699  14.799  13.635   2.214 -0.2571 -0.3728  0.0217
17439W        W33700  14.520  10.568  13.889 -0.0830  0.0958 -0.0269
17440W        W33701   2.335   4.035   0.877 -0.0158 -0.0632 -0.5213
17441W        W33702  13.357   7.898   3.228  0.0221 -0.0428 -0.3766
17442W        W33703   9.867   0.528  16.161 -0.0561  0.0829  0.0826
17443W        W33704   2.387   2.103  14.273 -0.0624  0.0206 -0.0249
17444W        W33705   1.783  16.792  14.347 -0.1050 -0.0781  0.0801
17445W        W33706   5.547  15.884   0.102 -0.0592 -0.0232  0.3226
17446W        W33707  13.251   7.917   0.262  0.3192 -0.2181 -0.0351
17447W        W33708   6.242  12.669  13.037  0.3256 -0.2633 -0.2137
17448W        W33709  16.101  12.936  16.123 -0.0907  0.0943 -0.1809
17449W        W33710  12.817   8.409  12.951  0.1833  0.0090 -0.0691
17450W        W33711   0.851   6.597  14.044 -0.1826  0.2297  0.0204
17451W        W33712  16.856   9.021   4.930  0.2368  0.1842  0.1016
17452W        W33713   6.078  15.590   1.925  0.0941  0.3317  0.1958
17453W        W33714   7.896   3.558  16.965 -0.1096  0.1151 -0.0075
17454W        W33715  10.531  17.017  16.838  0.1821  0.0194 -0.1300
17455W        W33716  13.845   5.149   0.411 -0.0646 -0.0211 -0.1311
17456W        W33717   4.223  14.422   1.517  0.0603  0.2542 -0.1064
17457W        W33718   6.685  13.808  13.467 -0.2100 -0.2210 -0.1011
17458W        W33719  13.604  14.131  14.870 -0.2226 -0.1010  0.2920
17459W        W33720   2.238   1.269  13.719 -0.2310  0.1564 -0.0641
17460W        W33721   3.766   9.103  14.075 -0.1062 -0.1739  0.1302
17461W        W33722  10.849   1.668   5.409  0.1486  0.1165 -0.0428
17462W        W33723  12.538  16.951   5.860 -0.0264  0.0698 -0.0769
17463W        W33724  16.290  14.571   6.440  0.3290 -0.2274 -0.1272
17464W        W33725  14.339   2.146  13.835 -0.2658  0.1166 -0.0369
17465W        W33726   6.599  10.930  14.547 -0.1054  0.2635  0.0907
17466W        W33727  11.234   7.758  12.168  0.0046 -0.0614  0.1731
17467W        W33728   1.519   4.612  15.036  0.1942 -0.1727 -0.0307
17468W        W33729   9.119   8.118  14.873 -0.0495  0.1227  0.1922
17469W        W33730   8.791  15.046  16.713  0.0213  0.1401  0.0105
17470W        W33731  17.081   8.024   4.231 -0.5056  0.0653  0.0610
17471W        W33732   8.274   4.516  12.155  0.0781  0.1144 -0.2082
17472W        W33733  11.141  15.504  13.942  0.0126  0.1303  0.1155
17473W        W33734   1.490   8.072  12.548  0.2037 -0.1318 -0.2219
17474W        W33735   5.551  12.972   1.489 -0.1260 -0.1888  0.1593
17475W        W33736  10.096   9.829   0.469  0.2440  0.2307 -0.0622
17476W        W33737   6.991   7.532  14.145 -0.1250  0.2841 -0.1678
17477W        W33738  15.297   6.970  13.721  0.0788  0.0160  0.2015
17478W        W33739  12.245  12.232   4.138 -0.0370  0.0814  0.1438
17479W        W33740  11.118   8.990   3.254 -0.2041 -0.1528  0.0928
17480W        W33741  16.468  15.061   4.381  0.6455  0.0616  0.0557
17481W        W33742  10.338  16.944   4.907  0.0989  0.0157 -0.1455
17482W        W33743   5.588  15.682  14.778  0.1254  0.1981  0.0967
17483W        W33744  14.420   5.657  13.784 -0.0433  0.1583 -0.2295
17484W        W33745  12.628  17.214   3.482 -0.2885  0.3570 -0.0594
17485W        W33746   6.109  17.165   3.679 -0.3651  0.2079  0.1688
17486W        W33747  10.736   1.018   4.747 -0.3054 -0.3365 -0.0069
17487W        W33748   9.728   2.157  14.601 -0.1942 -0.1249  0.1058
17488W        W33749   4.668  17.512  12.780  0.2985  0.1301 -0.1385
17489W        W33750   0.240   5.628   2.754  0.1027  0.0158  0.0050
17490W        W33751   6.240   2.860   0.559 -0.2323 -0.0412 -0.3185
17491W        W33752   8.397  12.411  15.794  0.2624  0.0511  0.4987
17492W        W33753  13.283  13.862  13.229  0.1888  0.0823  0.0672
17493W        W33754  16.269   0.181  13.106 -0.0755 -0.2838 -0.0554
17494W        W33755  11.463   5.306  15.378  0.0233 -0.0618 -0.0816
17495W        W33756   2.250  10.571   1.933  0.0034 -0.2823  0.0282
17496W        W33757   4.829   7.283  12.373 -0.2406 -0.3798 -0.2668
17497W        W33758  10.559  11.905   1.107 -0.2072 -0.1625  0.0409
17498W        W33759  10.918   9.955  11.571  0.0076 -0.0472 -0.3413
17499W        W33760  14.056  14.860   4.985 -0.2296  0.1737  0.2698
17500W        W33761   9.252  15.639   2.364  0.1099 -0.1603  0.0635
17501W        W33762  12.567  11.263   4.019  0.0611 -0.0192  0.1405
17502W        W33763   9.603  14.317   1.869  0.1232 -0.3638  0.0284
17503W        W33764   6.461   2.444   6.219  0.0827  0.1311  0.1127
17504W        W33765   1.044  10.748  16.043  0.0563 -0.2338 -0.0601
17505W        W33766   3.949   0.074  13.962 -0.0438 -0.0756  0.1372
17506W        W33767   1.702   9.736   0.416 -0.3381 -0.0497  0.1300
17507W        W33768   7.009   5.473  11.859  0.3804 -0.0115 -0.1629
17508W        W33769  10.567  15.793  14.280 -0.3217  0.0159 -0.3012
17509W        W33770  10.753   7.654  16.692  0.0745 -0.2066  0.0732
17510W        W33771   3.376  11.115   3.854 -0.0004  0.0676  0.0085
17511W        W33772   4.512  15.001   4.385  0.0826 -0.0019 -0.3260
17512W        W33773  11.484   1.177  15.050  0.0017  0.3066  0.0393
17513W        W33774   5.320  14.807   3.395 -0.1561  0.0538 -0.1185
17514W        W33775  11.154  10.892   0.558  0.1105 -0.0958 -0.0134
17515W        W33776   9.838   9.629   1.333 -0.0353  0.0878  0.1541
17516W        W33777   2.119  10.533  16.432 -0.3600 -0.1076  0.2164
17517W        W33778   1.659   1.049  15.043  0.2927 -0.2599 -0.1635
17518W        W33779   5.246  13.734  13.595  0.1278 -0.3741  0.0157
17519W        W33780   3.381   4.149  14.340 -0.0581  0.1852 -0.2362
17520W        W33781   2.036   9.590   0.023  0.0694 -0.1822 -0.0189
17521W        W33782  15.229  16.826   4.737  0.4459 -0.0228  0.0455
17522W        W33783   6.754  16.183   5.371  0.2248  0.0505 -0.1641
17523W        W33784   9.716  16.340  14.566  0.1755 -0.1507  0.4053
17524W        W33785  13.239   8.299  11.629  0.1474 -0.2682  0.1138
17525W        W33786  10.959   8.652   0.673  0.1030 -0.1030 -0.2068
17526W        W33787  14.388  16.465  14.502 -0.1059 -0.1377 -0.0585
17527W        W33788  10.832   6.531   3.370 -0.2346 -0.0764 -0.0745
17528W        W33789  13.369  15.526  12.723 -0.0811  0.1514 -0.0100
17529W        W33790  11.112   0.847  13.380  0.1974 -0.1048  0.2141
17530W        W33791   8.222  10.177   0.734 -0.2971 -0.0891 -0.0437
17531W        W33792  16.925  16.720   5.337 -0.1428 -0.1693  0.0104
17532W        W33793   8.534   9.118   3.792 -0.0954 -0.1793  0.2073
17533W        W33794   7.040   4.806  15.304 -0.2550  0.1421 -0.1855
17534W        W33795   2.593  14.427  13.406  0.1605 -0.0551 -0.0266
17535W        W33796  16.460   5.300   5.570  0.1152  0.1812 -0.1114
17536W        W33797  14.211   6.505  14.348  0.1788 -0.0243 -0.0767
17537W        W33798  14.227   1.124   4.534 -0.0232  0.1159  0.1682
17538W        W33799   1.513  17.576   1.002 -0.3176 -0.1118  0.1438
17539W        W33800  16.342  11.565  16.547 -0.4712  0.2863  0.0564
17540W        W33801   1.814  14.496   2.694  0.1973 -0.0212  0.3052
17541W        W33802   8.974  15.288   0.108  0.1090  0.0585 -0.1192
17542W        W33803  11.608   1.662   2.214 -0.0827 -0.2536  0.1158
17543W        W33804   9.075  10.097  11.958 -0.1291 -0.3792  0.1520
17544W        W33805  14.111  14.380   4.941  0.0191 -0.0592 -0.1489
17545W        W33806  10.555  16.957  14.991  0.1583 -0.1775 -0.0163
17546W        W33807  17.541  15.539   5.734 -0.0617 -0.1407  0.0448
17547W        W33808   7.877   1.493  12.945  0.1298  0.1506  0.2965
17548W        W33809   2.970  14.510  16.721 -0.4692  0.0868  0.2437
17549W        W33810  17.565   3.794   3.429  0.1078  0.0327 -0.0578
17550W        W33811   7.958   5.624   4.292  0.1103 -0.1372  0.1342
17551W        W33812   2.663   9.764   0.205 -0.0511  0.0607 -0.1136
17552W        W33813  15.792   7.007   0.138 -0.0357 -0.0228 -0.0090
17553W        W33814   1.634  17.098  16.473 -0.1593 -0.1907 -0.1251
17554W        W33815   8.444   8.294   2.351  0.0855  0.0536  0.1742
17555W        W33816   2.941  10.468   6.078  0.1058  0.2162  0.1027
17556W        W33817  10.787   9.133  14.110 -0.1330  0.1324  0.1028
17557W        W33818   6.939   9.062   3.641 -0.0620  0.1205  0.1172
17558W        W33819  15.387   1.909  16.827  0.0818  0.0786  0.1330
17559W        W33820   5.151  15.645   2.407  0.3159 -0.1148 -0.0454
17560W        W33821   9.924  15.005  16.907 -0.2184  0.1476  0.1460
17561W        W33822  12.046  10.354  16.340 -0.0329 -0.0940  0.3969
17562W        W33823  14.877   3.286   5.936  0.0003 -0.2382  0.3979
17563W        W33824   0.229  15.985  16.620 -0.0288  0.0071  0.0220
17564W        W33825   9.610  11.101   1.648 -0.2478  0.1167  0.0491
17565W        W33826  13.728  11.706  13.189  0.2478  0.2290  0.0210
17566W        W33827   4.678  12.105   3.008 -0.6223 -0.0047  0.0289
17567W        W33828  12.783  16.742  14.386 -0.0130 -0.0071  0.2787
17568W        W33829   1.194   3.712   5.098  0.2593  0.2202 -0.0045
17569W        W33830  17.744   3.023   1.614 -0.0612 -0.2310  0.0646
17570W        W33831  11.467   6.485  13.379 -0.1461 -0.0954  0.1201
17571W        W33832   8.309   1.779  16.077 -0.2486 -0.1090  0.2037
17572W        W33833  12.007   7.758   1.237  0.0138  0.3144  0.0811
17573W        W33834  11.508   7.360  12.374  0.0745  0.0976  0.1556
17574W        W33835   7.538  12.032  13.134 -0.0284  0.0650 -0.1127
17575W        W33836   6.245  10.446   1.621  0.0745 -0.2137  0.0025
17576W        W33837  13.439  16.335   2.209  0.2841  0.0095  0.1083
17577W        W33838   0.475  12.878  16.665  0.1975 -0.1801 -0.0537
17578W        W33839   6.339   0.309  15.618  0.2397  0.0992  0.4111
17579W        W33840   0.157   7.214  11.927  0.1232  0.2910  0.0949
17580W        W33841   5.559  12.532   2.157  0.0449  0.1455  0.3766
17581W        W33842  11.204  16.978  16.236  0.0596 -0.0726 -0.1188
17582W        W33843   8.475   2.328   2.458 -0.1331  0.0684  0.0829
17583W        W33844   9.398  13.864  11.830  0.1390  0.0086 -0.0206
17584W        W33845   0.234   7.694   1.326  0.1595  0.1201  0.1208
17585W        W33846  15.812   5.225   4.280  0.1188 -0.1886 -0.0627
17586W        W33847   6.519  16.730  12.783  0.1454  0.0963  0.0666
17587W        W33848   4.567   1.864  15.968  0.1436 -0.2444  0.0591
17588W        W33849  10.561   0.955  11.789 -0.1213  0.0211  0.1323
17589W        W33850   7.331  15.512  16.921  0.0169 -0.0289  0.1054
17590W        W33851   3.101   3.920   2.144  0.1068 -0.0225  0.2099
17591W        W33852   0.814  16.413  14.084  0.4008 -0.1728 -0.0683
17592W        W33853   0.515  16.085   2.197  0.0053  0.0873  0.0877
17593W        W33854  12.149  11.114   5.628 -0.2820 -0.2919  0.1035
17594W        W33855   0.710   8.606  13.575 -0.1489 -0.1680 -0.0166
17595W        W33856   6.908  16.372  13.382  0.2304  0.1563 -0.0502
17596W        W33857   5.858   2.722  14.025  0.4186  0.1093  0.1800
17597W        W33858   9.760  11.164  12.660  0.0153  0.0016 -0.0096
17598W        W33859  12.942   1.703  15.730  0.1776  0.0634 -0.1268
17599W        W33860   9.757  14.791  13.392 -0.0879  0.0975  0.1248
17600W        W33861   5.397   4.113   3.141  0.0914  0.1984  0.1048
17601W        W33862   1.126  12.164   1.172 -0.1405 -0.3798 -0.3337
17602W        W33863  17.199   1.387   2.170  0.2285  0.1253 -0.3714
17603W        W33864   7.086  17.257   2.129 -0.1022  0.0623 -0.1558
17604W        W33865   7.768   1.967   4.867  0.0517 -0.4084  0.0197
17605W        W33866  15.494  10.839   5.543 -0.0849  0.0799  0.2258
17606W        W33867  17.408   8.349  14.823  0.2263 -0.0109  0.3234
17607W        W33868  14.598   0.611   0.963  0.4376  0.1002  0.3479
17608W        W33869  11.733  13.900   4.178  0.0233  0.2807 -0.0713
17609W        W33870   1.735   3.433   0.808 -0.2465  0.1456 -0.1784
17610W        W33871   3.303   1.836   4.645 -0.2084  0.1842 -0.0630
17611W        W33872   0.931   3.102  14.616  0.2990  0.1703  0.1562
17612W        W33873  17.517   7.783   5.185  0.0427 -0.1725  0.2458
17613W        W33874  10.093  13.349  16.368  0.0915 -0.0895 -0.1257
17614W        W33875  11.486   6.401   1.032 -0.0017  0.0962 -0.0040
17615W        W33876  10.324  16.271  12.289  0.0737 -0.0686  0.0210
17616W        W33877   1.268  12.272  14.251 -0.2087 -0.0163 -0.0154
17617W        W33878  11.848   5.701   4.912  0.3279  0.1198  0.0544
17618W        W33879   6.439   8.359   1.521  0.2265  0.2426 -0.0733
17619W        W33880  13.095   9.798   0.284  0.1632 -0.1915  0.2084
17620W        W33881   5.007  16.119  11.259  0.0262  0.1987 -0.1081
17621W        W33882  10.650  10.827  11.847 -0.0883  0.1512 -0.0052
17622W        W33883  11.218   3.619  14.648 -0.1419 -0.0102  0.1487
17623W        W33884   3.265  10.952   3.035 -0.2122 -0.2072  0.0933
17624W        W33885   9.023  10.895  16.263 -0.1459 -0.1473  0.0808
17625W        W33886   0.106  13.444   3.795  0.2988 -0.2284  0.2507
17626W        W33887  12.000   7.076   0.741 -0.1325  0.2370 -0.0906
17627W        W33888  14.957   4.446   1.802 -0.0014  0.1605  0.0976
17628W        W33889   9.132   2.505   3.951 -0.0841  0.0417 -0.0897
17629W        W33890  10.169  15.356  16.249 -0.0375  0.1191  0.3561
17630W        W33891   1.162   3.470  13.848  0.1802 -0.1153 -0.0567
17631W        W33892   4.780  15.894  15.807  0.2463  0.1749  0.0667
17632W        W33893  15.493   7.624   0.989 -0.2105  0.0720  0.3216
17633W        W33894   7.631   9.455   2.832 -0.0382  0.3296 -0.1246
17634W        W33895   3.557  10.737  12.489  0.0281  0.1865  0.1676
17635W        W33896  11.388  13.492  15.884 -0.1058 -0.0931  0.1445
17636W        W33897  14.001   4.772   4.271 -0.1058 -0.2870 -0.1300
17637W        W33898  12.263   6.890   0.360  0.0898  0.2149  0.3867
17638W        W33899   2.299   1.005  16.029 -0.0023  0.2605  0.0564
17639W        W33900   5.063   6.378  14.000  0.1357 -0.0440 -0.0685
17640W        W33901  14.497   9.225   1.431  0.4622 -0.1881  0.1660
17641W        W33902   5.036   2.302   4.368  0.1269  0.0805 -0.3265
17642W        W33903   7.199   1.859  15.585 -0.1433  0.0907 -0.0592
17643W        W33904  17.538   9.367   0.899 -0.0513 -0.0521  0.4877
17644W        W33905  15.624   2.389  15.233 -0.0626  0.0787  0.0096
17645W        W33906   0.750   3.700  15.344 -0.0286 -0.0177  0.2318
17646W        W33907   5.356  17.294   4.757 -0.2780 -0.0639 -0.0683
17647W        W33908  14.232   8.838  16.821  0.0411 -0.0500 -0.0728
17648W        W33909  14.297  17.419  12.319 -0.1115  0.1269 -0.1438
17649W        W33910  13.442  14.543  16.894  0.0791 -0.0256 -0.3417
17650W        W33911  17.229   1.861   6.202 -0.0411 -0.2103  0.4246
17651W        W33912  15.042  12.992  14.114 -0.0489  0.1198  0.0659
17652W        W33913  10.733   3.079  13.254 -0.2044 -0.1131 -0.4337
17653W        W33914   9.005  12.762  10.170 -0.0003 -0.1594 -0.0034
17654W        W33915   3.770   3.645   1.204  0.1981 -0.3639 -0.0291
17655W        W33916   2.905  11.585  13.331 -0.0097 -0.0209  0.0588
17656W        W33917  16.832   7.333  14.885  0.3566 -0.0702 -0.0401
17657W        W33918   9.005   8.801  16.821 -0.0881 -0.2814  0.1118
17658W        W33919   5.487  16.075  13.878  0.1570 -0.1474 -0.2786
17659W        W33920  17.250  15.966  15.557 -0.3416  0.0130 -0.0982
17660W        W33921   6.345   7.485   0.866 -0.1139  0.0381 -0.0505
17661W        W33922  14.214   2.113  16.047  0.3631  0.1473  0.3150
17662W        W33923  13.853   6.460   2.831  0.2000 -0.0686  0.0714
17663W        W33924   1.859  12.717   2.422  0.2708 -0.0269  0.0781
17664W        W33925  13.458   9.314   5.859  0.2280 -0.0560  0.3043
17665W        W33926   7.660  14.884   0.954 -0.1905  0.1408 -0.1299
17666W        W33927  16.149   1.322   1.350  0.2737  0.0939 -0.0395
17667W        W33928   3.298   8.540  13.567 -0.2190 -0.1037 -0.0886
17668W        W33929   5.905  14.669  14.121  0.3170  0.0338  0.2813
17669W        W33930  13.367  10.427   5.029 -0.0927 -0.1353 -0.2553
17670W        W33931   5.789  12.186   2.831 -0.2877  0.0034 -0.2219
17671W        W33932  12.634  14.874   3.933  0.1374  0.0393 -0.2794
17672W        W33933   1.278   1.415  13.679 -0.2093  0.0389  0.1267
17673W        W33934   1.689  10.539   2.573  0.0098  0.2552  0.0612
17674W        W33935  13.490   2.510   1.535 -0.1257  0.0305 -0.1842
17675W        W33936   3.129   2.145   3.910  0.0210  0.0040  0.0388
17676W        W33937   0.558  14.682   1.912  0.3372  0.1362 -0.1797
17677W        W33938   9.369   2.237   0.649  0.3957  0.1176 -0.4429
17678W        W33939  17.621  15.692   2.125  0.3094 -0.0603 -0.2576
17679W        W33940   5.149   4.132  11.803  0.3185 -0.2158 -0.2065
17680W        W33941  13.047  16.571   0.271 -0.2337  0.1319  0.1688
17681W        W33942  15.163  12.966   1.609  0.2360  0.0373  0.2306
17682W        W33943   8.471  12.531  11.606 -0.1292  0.0350 -0.0993
17683W        W33944  14.565  14.210   0.557  0.1080  0.3592 -0.0305
17684W        W33945   9.261  14.610  15.186 -0.0465 -0.0359  0.0765
17685W        W33946  14.240   3.683   1.164  0.0003  0.1528 -0.0307
17686W        W33947   7.327   7.967  16.314  0.0601  0.3110  0.2439
17687W        W33948  16.364  16.110  13.461  0.0607 -0.1472 -0.2549
17688W        W33949  14.350  13.645   4.029  0.2890  0.2463 -0.2092
17689W        W33950   7.484  16.632   3.232 -0.2972  0.2197 -0.0075
17690W        W33951   0.364   7.313   4.766  0.2777 -0.1943 -0.2215
17691W        W33952  10.048  16.507  13.133 -0.0269 -0.1790  0.0143
17692W        W33953  10.143  11.840   1.985 -0.2092  0.1313 -0.1032
17693W        W33954   4.128  13.498   1.053 -0.0488 -0.0672 -0.1340
17694W        W33955   5.087   8.009  16.608  0.0241 -0.1787  0.1282
17695W        W33956  12.691  13.774  14.139  0.0750  0.0338  0.0838
17696W        W33957  13.821  11.524   3.237  0.1416 -0.3651 -0.0158
17697W        W33958   2.461  10.214   1.716  0.1722  0.0769 -0.0106
17698W        W33959  16.883  13.896   6.470  0.0393  0.0848 -0.1002
17699W        W33960   5.028  16.718   1.415 -0.4739 -0.0728 -0.0594
17700W        W33961  16.998  13.362  12.763 -0.0091 -0.0687  0.0435
17701W        W33962   8.469  12.883   4.454 -0.0523 -0.1648 -0.1701
17702W        W33963  15.144  15.860  16.544  0.0047 -0.0526  0.1251
17703W        W33964   8.446   5.743   5.721 -0.0323  0.1020  0.0115
17704W        W33965  11.289  10.419   1.968 -0.4148  0.2171  0.0165
17705W        W33966   2.491  10.802   2.317 -0.1081  0.2386 -0.0978
17706W        W33967   5.805  17.319   1.493  0.3133 -0.2101  0.3670
17707W        W33968  14.035  14.917   4.483  0.1600 -0.0828 -0.0902
17708W        W33969  12.966  11.440  11.111 -0.1306  0.0800  0.2488
17709W        W33970   7.058  10.429   1.489  0.0915 -0.4747  0.0032
17710W        W33971  12.353   0.631  14.918 -0.0259 -0.2231 -0.0183
17711W        W33972   5.494  17.101   0.454 -0.0743  0.3450 -0.1378
17712W        W33973  15.486   4.259   4.399  0.1435  0.2920 -0.0407
17713W        W33974  17.716   4.295   3.157 -0.1070 -0.1623 -0.0980
17714W        W33975   9.977  16.155   0.271 -0.3544  0.0059 -0.1987
17715W        W33976  10.528   0.750   5.406  0.0683 -0.0030  0.0179
17716W        W33977   9.988   5.230  12.824  0.0948 -0.2570  0.0205
17717W        W33978   9.082   0.248  11.584 -0.2375  0.3966 -0.2165
17718W        W33979  10.198   6.778   3.630  0.1435  0.0520  0.1701
17719W        W33980  11.363   3.092   5.068  0.2639  0.0493  0.1513
17720W        W33981  14.183   2.259  15.587 -0.0243 -0.2475  0.0131
17721W        W33982   2.351  15.980  11.993 -0.0787  0.0241 -0.2066
17722W        W33983   8.812   6.344   2.545 -0.1347 -0.0805  0.1448
17723W        W33984  13.509   7.999  12.252  0.2657 -0.1827 -0.1153
17724W        W33985  15.495  14.043  12.015 -0.1323 -0.0585  0.2190
17725W        W33986   6.144   7.991   0.303 -0.1651  0.0077 -0.0708
17726W        W33987  11.442  10.800   3.612 -0.0241 -0.1981  0.0091
17727W        W33988   5.015   0.303   6.446  0.3739 -0.2009  0.1245
17728W        W33989   0.291   8.649   5.327 -0.2291  0.2072 -0.0560
17729W        W33990   4.116   2.827   3.055  0.2318  0.0561  0.0704
17730W        W33991  16.488   1.393  14.350  0.0995  0.1861  0.0584
17731W        W33992   2.996   3.542   0.898  0.2053 -0.1184  0.0658
17732W        W33993   6.001  11.364   3.188  0.1183  0.2721  0.0688
17733W        W33994  14.443   1.046   0.227  0.0853 -0.3731  0.0072
17734W        W33995  11.348   3.733   0.135 -0.1659  0.0504  0.0222
17735W        W33996  14.983  11.438  16.490 -0.1673  0.3805  0.2580
17736W        W33997  13.705   8.316   1.894  0.1069 -0.0418 -0.2448
17737W        W33998  11.150  12.253  12.850  0.1283  0.2145 -0.0822
17738W        W33999   9.359   7.966  12.040  0.2936 -0.0588 -0.0493
17739W        W34000   7.493  13.944   5.253 -0.1332 -0.0859  0.1274
17740W        W34001  15.984  13.759   3.527  0.3308 -0.2322 -0.0564
17741W        W34002   4.031   6.793   2.023 -0.0855  0.1729 -0.0061
17742W        W34003   6.060  14.531   0.771 -0.0947  0.1327  0.0780
17743W        W34004  11.605  16.526   4.227 -0.1802 -0.0983 -0.1356
17744W        W34005  17.621   7.376  12.813  0.0109 -0.2545 -0.2295
17745W        W34006  13.509   5.507   2.832 -0.0999 -0.1193 -0.0940
17746W        W34007  10.082   5.435   2.300  0.2950  0.1703 -0.3343
17747W        W34008   8.259   6.701  13.717 -0.3337 -0.1239 -0.0311
17748W        W34009   8.820  17.457   5.738 -0.2539  0.3658  0.1808
17749W        W34010   5.461   2.917  15.409  0.3037  0.1848  0.1607
17750W        W34011  14.427   1.824   3.404 -0.3611 -0.2448  0.1961
17751W        W34012   9.605  16.690   1.522  0.0833 -0.1428  0.0462
17752W        W34013   8.790  16.207   6.431  0.0244 -0.0371 -0.0253
17753W        W34014   5.933  15.045   5.277 -0.1406 -0.1853 -0.0990
17754W        W34015   2.410  17.670   3.310  0.0747  0.2058  0.0345
17755W        W34016   0.992  17.313   1.465 -0.1958 -0.2802 -0.1762
17756W        W34017   0.024  12.237   2.088 -0.2996  0.2373  0.1463
17757W        W34018  17.325  11.833  16.969 -0.0026  0.1015  0.4290
17758W        W34019   4.958  15.409   1.377 -0.0675  0.1971 -0.3387
17759W        W34020   5.098  10.567   1.402 -0.0872  0.0790 -0.0915
17760W        W34021   9.128   8.844  16.236  0.0227 -0.1407  0.1510
17761W        W34022   7.066   2.587  16.789  0.0875 -0.1071  0.0480
17762W        W34023   7.562  15.852  12.986 -0.4583 -0.2629  0.0533
17763W        W34024  12.958   5.111   4.178  0.1414  0.2477 -0.4554
17764W        W34025  14.927  15.914   4.999  0.2057  0.0563 -0.1287
17765W        W34026  15.531   9.168  12.283 -0.1825  0.0776 -0.1599
17766W        W34027   2.915   5.469  12.824 -0.0572  0.0416 -0.2417
17767W        W34028  16.254  10.164   3.370  0.0082 -0.1738 -0.2252
17768W        W34029  10.751  14.665  16.142 -0.2981 -0.2066  0.0221
17769W        W34030   2.921  12.141  14.278 -0.0322 -0.0652  0.1189
17770W        W34031   6.939  15.139   1.745 -0.0820 -0.0319 -0.0572
17771W        W34032   7.448   2.085  15.932  0.2317 -0.1472 -0.0635
17772W        W34033   4.556   8.801   3.490 -0.0854  0.0932  0.1935
17773W        W34034  10.473   2.854  16.208  0.1441  0.1495  0.1443
17774W        W34035   8.643   8.964  12.764 -0.1215 -0.0012  0.1892
17775W        W34036  15.592   0.445  11.071  0.1565  0.0328  0.0936
17776W        W34037  17.596   3.602   6.029 -0.0935  0.3579  0.0304
17777W        W34038  12.184  17.658   0.776 -0.1506 -0.3172 -0.0374
17778W        W34039   8.057   9.443   1.122 -0.2829 -0.0201  0.3844
17779W        W34040  15.471   1.549   5.911  0.2921 -0.0959  0.2014
17780W        W34041  16.758   7.716  16.627  0.0257 -0.1656 -0.0444
17781W        W34042  16.385  14.640  15.743 -0.0480  0.2307 -0.1204
17782W        W34043   4.675  15.834   2.650  0.0209  0.1314 -0.1117
17783W        W34044   3.826   9.962   0.219 -0.0086  0.0829 -0.2509
17784W        W34045  13.217  16.193  16.482 -0.0362  0.0120  0.0755
17785W        W34046   5.143  16.653  14.319 -0.0024 -0.0299  0.1348
17786W        W34047   8.123   1.390  11.558  0.0525 -0.1998 -0.0438
17787W        W34048   8.662  13.574   4.426  0.0144 -0.0979  0.2278
17788W        W34049  13.198  12.039   3.832  0.0212 -0.3120  0.0227
17789W        W34050   6.487   6.751  14.013  0.1380  0.1265  0.0365
17790W        W34051   0.491  17.406  11.993 -0.1000 -0.1009  0.1039
17791W        W34052  15.405  14.798  13.537  0.2677  0.0696 -0.0463
17792W        W34053   8.720   6.568   2.994  0.0776 -0.2618 -0.0185
17793W        W34054   1.847   6.815  14.272  0.0296 -0.3357  0.2448
17794W        W34055   2.756   2.468  14.509  0.1000  0.1276  0.0723
17795W        W34056  16.782   9.075   2.497  0.0635 -0.2351  0.1403
17796W        W34057  15.603  16.625   0.393 -0.2212 -0.3461 -0.1856
17797W        W34058   6.786   7.017   3.902 -0.0939  0.1374  0.0347
17798W        W34059  16.166   6.431  16.406  0.0735 -0.1826  0.1176
17799W        W34060   2.336  12.141  15.114  0.3477  0.0696 -0.2011
17800W        W34061  14.498   3.609   5.540  0.1028 -0.0722 -0.0695
17801W        W34062   7.595   1.589   4.612 -0.0063  0.1302  0.0927
17802W        W34063   6.231  12.954   3.925 -0.0515  0.3580  0.2576
17803W        W34064  14.229   3.784  15.205 -0.1685 -0.1969  0.2211
17804W        W34065  15.245   6.656   0.502 -0.0303 -0.2077  0.2681
17805W        W34066  10.552  12.605  14.272  0.2080 -0.0551 -0.2202
17806W        W34067   8.883   6.991  11.959 -0.1814 -0.0381 -0.1551
17807W        W34068   0.089   1.029   4.430 -0.2392 -0.0008  0.1050
17808W        W34069  10.926  17.246  14.736  0.0292 -0.1397  0.0671
17809W        W34070   9.045  10.781   3.381  0.0946  0.1956  0.2403
17810W        W34071   4.037   6.173  12.803  0.0848  0.2901 -0.0282
17811W        W34072   2.987  10.060  13.576  0.1741  0.0477  0.1697
17812W        W34073   9.630  13.469   3.992 -0.2236 -0.1807  0.0541
17813W        W34074  15.528   2.429  16.199  0.2646 -0.1203 -0.0180
17814W        W34075  15.307   6.480   5.870 -0.0402 -0.0850 -0.1010
17815W        W34076   4.994   4.739  13.747  0.1913 -0.1876 -0.1793
17816W        W34077   5.549   4.411  16.498  0.2828 -0.1889  0.0956
17817W        W34078   3.394  10.547   2.759 -0.0610 -0.0894  0.3916
17818W        W34079  15.809  13.872  16.102 -0.1976 -0.1990  0.0889
17819W        W34080  16.954  15.202  16.192 -0.0277  0.0038 -0.1695
17820W        W34081  13.990   4.997   5.078  0.1446  0.0518 -0.3488
17821W        W34082  10.358  13.039   2.802  0.1000 -0.0043  0.0277
17822W        W34083   8.922   2.421  15.638 -0.0637 -0.0368 -0.1317
17823W        W34084  14.263   1.357   5.416 -0.3774 -0.1032 -0.3020
17824W        W34085  16.963   0.604  16.236 -0.0774 -0.2947 -0.0619
17825W        W34086   1.066   0.432   4.566  0.0523 -0.1652  0.1567
17826W        W34087  17.209   7.061  12.928  0.0345  0.1135 -0.3177
17827W        W34088   1.470   2.103  12.395  0.0200 -0.0019 -0.0181
17828W        W34089   9.597  16.927   1.070  0.2551 -0.4667 -0.0552
17829W        W34090  16.221   7.848   5.752  0.1163 -0.0727  0.2007
17830W        W34091  17.029   5.264  14.078 -0.0530  0.1055 -0.3056
17831W        W34092   9.198  13.368   3.780  0.4177 -0.2733 -0.2375
17832W        W34093  17.044   6.303   0.028 -0.2769  0.0978 -0.0383
17833W        W34094   4.076  16.399  14.697  0.0895 -0.1336  0.2312
17834W        W34095   5.491  11.722  14.378 -0.0397 -0.2905 -0.0268
17835W        W34096   9.726  15.353   3.069  0.1405  0.1125 -0.2128
17836W        W34097   9.030   5.781  14.703  0.4622 -0.3035  0.0496
17837W        W34098  14.916   5.585  14.328  0.0811 -0.1274  0.4175
17838W        W34099  17.154  12.300   5.705  0.0184  0.0035 -0.0484
17839W        W34100   8.687  17.344   4.914  0.2080  0.2172 -0.2448
17840W        W34101   8.662   2.614   2.057 -0.1839  0.0763 -0.0029
17841W        W34102   3.174   5.293  13.732 -0.1810 -0.0791  0.1224
17842W        W34103   4.472   8.710  13.066 -0.1718  0.0147  0.2412
17843W        W34104  13.376  11.729   3.440  0.0966 -0.3124 -0.1125
17844W        W34105  13.826   5.805   0.405  0.0305  0.2301  0.4324
17845W        W34106   2.947   4.563   0.063 -0.0941  0.3331  0.1052
17846W        W34107  14.161  11.207  16.868 -0.3833 -0.3603  0.0818
17847W        W34108   8.593   7.287  15.950 -0.0228  0.0313 -0.1967
17848W        W34109  15.498   2.823   0.178  0.1507  0.0083  0.1664
17849W        W34110  14.683   5.306  14.897 -0.3408  0.1924 -0.0255
17850W        W34111  10.284   8.808  16.485  0.0449 -0.0416  0.0365
17851W        W34112  17.791   8.337  16.149 -0.1246 -0.0191  0.0064
17852W        W34113  12.844  17.716   2.486  0.4043  0.1100  0.1883
17853W        W34114   2.566  13.947  12.316 -0.0719  0.0492  0.0130
17854W        W34115  13.909  12.826   5.730  0.3174  0.1042  0.0477
17855W        W34116   3.642   3.879  16.792  0.1366  0.0028  0.2266
17856W        W34117  16.145   3.326   3.644 -0.3674 -0.1763  0.0252
17857W        W34118   1.522  16.268  13.267  0.0021 -0.0099  0.1420
17858W        W34119   6.050   4.332   1.224 -0.1769  0.1964  0.0644
17859W        W34120  15.730   0.130   1.520 -0.0643 -0.2432 -0.0476
17860W        W34121   2.172  15.772   2.255  0.0041 -0.1637 -0.1793
17861W        W34122   4.291   6.981   2.816  0.0136 -0.1198  0.0867
17862W        W34123  17.022   3.931  13.830  0.1869 -0.2266  0.0028
17863W        W34124   7.880   5.868  12.339 -0.0702  0.1099  0.1005
17864W        W34125   7.126   1.060  12.587 -0.0205  0.3526  0.0858
17865W        W34126  12.182   0.462   5.240 -0.2016 -0.0258  0.2402
17866W        W34127  15.373   8.529  14.039 -0.0259 -0.0278  0.0924
17867W        W34128  11.064  10.498   2.970  0.2144  0.1980  0.0348
17868W        W34129  10.972  13.837   1.302 -0.0747 -0.2659  0.1341
17869W        W34130   0.344  12.272  15.727  0.2678 -0.0672 -0.0491
17870W        W34131   7.994  14.852   3.747  0.1329  0.0333 -0.1533
17871W        W34132   3.496   0.593  16.120 -0.0273  0.1828  0.0872
17872W        W34133   5.454  12.479   3.067 -0.0303 -0.1175 -0.2406
17873W        W34134  12.459   5.804   5.604 -0.0167 -0.2211 -0.0766
17874W        W34135   6.035  16.883  13.659 -0.2188  0.1753 -0.3140
17875W        W34136  13.008   9.912  14.805  0.1979 -0.0471  0.1614
17876W        W34137   9.109  13.257   2.413  0.1092  0.0429  0.0029
17877W        W34138  12.476  15.756  16.158 -0.2678 -0.0229 -0.0464
17878W        W34139   1.386   0.304  15.373 -0.1786 -0.1046 -0.0451
17879W        W34140  16.126   8.367   2.270 -0.0676  0.1438  0.0556
17880W        W34141   6.262   2.962   0.066  0.1555  0.0861  0.1700
17881W        W34142  14.314   3.908   2.168  0.1753 -0.0325 -0.0094
17882W        W34143  11.964  14.096   2.461  0.0561  0.0858  0.1892
17883W        W34144  15.683   8.006  15.212  0.1974 -0.2437  0.2066
17884W        W34145   0.108   1.060  16.311 -0.0495 -0.1684 -0.0899
17885W        W34146  12.968   6.371   3.887  0.0422 -0.1235 -0.2512
17886W        W34147  11.124  11.020  12.219  0.0665 -0.0298 -0.0939
17887W        W34148  16.056   3.234   1.451  0.0874  0.2949  0.0297
17888W        W34149  12.148   5.642  11.956 -0.3354 -0.0508  0.1003
17889W        W34150   5.047   6.253   2.422 -0.2051 -0.2163  0.1181
17890W        W34151  14.696  14.673  14.308 -0.0249  0.0904 -0.1319
17891W        W34152   3.498  12.686   2.949 -0.1285 -0.2910  0.0765
17892W        W34153   2.977  11.795   0.904 -0.3538 -0.0405 -0.0456
17893W        W34154  14.541  13.705   4.530 -0.0461 -0.1387  0.3243
17894W        W34155  12.543   4.206   2.515 -0.0075  0.2294  0.0517
17895W        W34156  17.623   2.372  12.040 -0.2758 -0.0979  0.2079
17896W        W34157  11.197   4.293   1.406 -0.0629 -0.1728  0.0445
17897W        W34158  16.310  16.995   0.978 -0.1363  0.2239  0.4685
17898W        W34159  14.516   0.465   5.112 -0.0265  0.3553  0.1522
17899W        W34160  17.770   7.043   4.636 -0.1592 -0.3096 -0.1763
17900W        W34161   3.111   6.672  13.578  0.2176  0.1898 -0.0054
17901W        W34162   7.710   5.985  13.228  0.0994 -0.1498 -0.3369
17902W        W34163   8.990  12.073   4.241 -0.0676  0.2886 -0.1064
17903W        W34164  11.661   8.098   3.105  0.1601 -0.0282  0.1524
17904W        W34165  15.105  15.385   2.956 -0.0715 -0.2818 -0.0898
17905W        W34166  10.831   3.718   2.626  0.1883  0.3180 -0.2513
17906W        W34167   5.866  17.729  15.813 -0.4340 -0.0201 -0.0135
17907W        W34168   6.951  12.295   2.881  0.0933 -0.1829  0.0083
17908W        W34169   9.631   7.655  15.914 -0.0387  0.1849  0.0377
17909W        W34170  13.553  14.684  13.492 -0.0640 -0.2481  0.2112
17910W        W34171  13.305   4.331   3.565  0.0724  0.1884  0.4217
17911W        W34172   6.999   6.483   1.859  0.1833 -0.1734  0.1149
17912W        W34173   2.881  16.130  12.047 -0.1638  0.1354  0.2116
17913W        W34174   5.476   2.107  14.980  0.2882  0.3157  0.0999
17914W        W34175   3.604   8.580  12.181  0.2436  0.0878 -0.1346
17915W        W34176   0.043  16.320  12.790 -0.1101  0.1254 -0.1623
17916W        W34177   8.761   5.616   5.394 -0.3382  0.0811  0.1799
17917W        W34178   3.071   3.307  15.808  0.1287 -0.1568  0.2139
17918W        W34179  12.816   3.376  15.903 -0.0320 -0.0797 -0.2243
17919W        W34180   6.854   7.251   1.088 -0.1639 -0.3097 -0.1127
17920W        W34181   1.118   5.500   5.089  0.0333 -0.2184 -0.0449
17921W        W34182   9.182   4.270  15.230 -0.1785  0.0967  0.4319
17922W        W34183  13.976   3.637   3.555  0.0280  0.1507  0.0158
17923W        W34184  13.036   7.705   5.527  0.2040 -0.3458 -0.1547
17924W        W34185   6.966  16.681  14.536  0.0811 -0.1193  0.0486
17925W        W34186   6.364  17.036  14.027 -0.0088  0.1826  0.0344
17926W        W34187  16.428   3.530   1.709  0.4101 -0.0890  0.0015
17927W        W34188  11.606  12.774   1.345 -0.0772  0.3013 -0.0024
17928W        W34189  12.751   8.558   4.331  0.0193  0.1923 -0.1430
17929W        W34190  15.615  15.059  15.701 -0.1460  0.0401  0.1911
17930W        W34191   4.167  10.811  13.313  0.0100  0.0387 -0.3369
17931W        W34192   0.602   8.005  14.765  0.1394  0.0034  0.0872
17932W        W34193   0.417   6.289   0.458 -0.2000 -0.0011  0.2441
17933W        W34194   9.309   6.285   2.414  0.1925  0.3127  0.1922
17934W        W34195  10.540  14.915   0.825  0.0672  0.1173  0.0485
17935W        W34196   4.952  16.502   0.193 -0.1155  0.1330  0.2408
17936W        W34197   0.970  14.441  12.070 -0.1052  0.0508  0.0653
17937W        W34198  14.954   0.695   5.579  0.2221  0.4465 -0.1731
17938W        W34199  10.083   4.469  16.645  0.1487  0.2192  0.2429
17939W        W34200   2.826   8.249   1.227  0.1693 -0.1414  0.0651
17940W        W34201  14.693  17.556  11.946  0.1692 -0.1842  0.2020
17941W        W34202   5.132  14.246   0.226  0.0963  0.1115 -0.0844
17942W        W34203   1.550   1.950   2.883 -0.0876 -0.2201  0.2137
17943W        W34204   0.733   2.551  15.746 -0.0211 -0.1802 -0.0588
17944W        W34205  11.821  10.596   1.744  0.0225 -0.0561 -0.0608
17945W        W34206  16.599  12.007  16.410  0.0321 -0.1167  0.0338
17946W        W34207   2.833   4.875   1.545  0.1433 -0.1193  0.1387
17947W        W34208   6.114  15.739   1.017  0.0158  0.0216  0.2348
17948W        W34209   3.545   1.024   1.285 -0.1462  0.0945 -0.0405
17949W        W34210   7.588   6.753  12.087 -0.1157  0.1874 -0.1227
17950W        W34211  15.482  11.797  12.864 -0.0946  0.0366 -0.4991
17951W        W34212  16.825  11.318   3.793 -0.2465 -0.0442  0.0672
17952W        W34213  10.037  11.728   2.949 -0.0707  0.2193  0.1127
17953W        W34214  12.213   3.309   3.216  0.2658  0.2164 -0.0710
17954W        W34215   3.898   4.804  15.652  0.3000 -0.0484  0.0443
17955W        W34216   8.812   6.258  12.142 -0.0172 -0.1202  0.3605
17956W        W34217  11.771   4.396   0.908  0.3234 -0.1220  0.1782
17957W        W34218  13.002   6.309  11.194 -0.0158 -0.3222  0.1703
17958W        W34219   5.553   4.442   5.215  0.0314 -0.2044  0.2609
17959W        W34220   7.923  17.283   5.439 -0.2291  0.3516 -0.1800
17960W        W34221   3.491   6.684  15.978 -0.0415  0.3551 -0.0919
17961W        W34222  14.707   6.904  12.817 -0.0955 -0.1305 -0.1753
17962W        W34223   1.418   4.897   2.610  0.0506 -0.3118 -0.0981
17963W        W34224  11.114   4.237   0.696 -0.0619  0.0217 -0.0555
17964W        W34225   7.378   0.574   1.259  0.0118  0.0997  0.0332
17965W        W34226  13.980   8.712   0.420  0.3328  0.1205 -0.1193
17966W        W34227  16.576  10.038  13.196 -0.0788 -0.0489  0.1635
17967W        W34228  16.939   7.249   1.100  0.2120  0.0065 -0.1473
17968W        W34229   8.704   0.811   1.878  0.0703  0.1042 -0.0671
17969W        W34230   2.746   7.980  14.386  0.3433 -0.3198 -0.1135
17970W        W34231  17.047   2.586   1.681  0.1573  0.2528  0.2194
17971W        W34232   1.986  12.069  13.350 -0.3205 -0.2975  0.0577
17972W        W34233  11.378  14.624  14.469  0.1544  0.1919  0.0071
17973W        W34234   8.304   9.078   6.258  0.1533 -0.1963 -0.2343
17974W        W34235   2.356   5.811   3.840 -0.1265  0.0008  0.2312
17975W        W34236   6.797  17.816   3.742  0.0970  0.1894 -0.4238
17976W        W34237  17.838   6.825   3.501 -0.2476  0.2680 -0.1552
17977W        W34238   2.511  16.288  12.389  0.0850 -0.0732  0.2434
17978W        W34239   4.199  10.072  11.467 -0.2726  0.1654  0.0573
17979W        W34240   9.577   5.988   2.846 -0.0107  0.0728  0.0030
17980W        W34241  13.883   6.162  14.893  0.0018 -0.1952  0.3660
17981W        W34242   5.197   8.465   0.515  0.2018  0.0860 -0.0778
17982W        W34243  12.653   7.007  12.123 -0.0434  0.1175 -0.2907
17983W        W34244  17.298   5.720  16.213 -0.1529  0.2974  0.1118
17984W        W34245   7.634   2.266   2.294  0.1173  0.1189  0.0262
17985W        W34246  15.285   1.004   0.120 -0.2619 -0.1194 -0.0597
17986W        W34247   7.814   2.730  13.522  0.0724  0.1146 -0.1338
17987W        W34248  16.905   3.773  12.498 -0.0457 -0.0678  0.0843
17988W        W34249  11.073  15.950  12.037 -0.2366  0.1189 -0.0673
17989W        W34250   5.063   1.795  15.084 -0.1177 -0.1156  0.0296
17990W        W34251   4.369  13.251  16.814  0.0751  0.0955 -0.0463
17991W        W34252  14.461  16.391  12.486 -0.2027 -0.3756 -0.0135
17992W        W34253  12.975  16.634   2.241  0.3432 -0.1129  0.1704
17993W        W34254   3.152   9.921   4.822 -0.0862  0.3437 -0.0516
17994W        W34255  13.799  17.723   4.840 -0.0456 -0.0061  0.0685
17995W        W34256  16.460   7.570   5.386 -0.2019 -0.0456  0.1696
17996W        W34257   4.358  10.215   2.126 -0.3057 -0.0107  0.2054
17997W        W34258  15.375  10.285   4.839 -0.1324 -0.2886 -0.2263
17998W        W34259   0.880   3.620   2.040  0.1884  0.0442 -0.2397
17999W        W34260  17.592  14.806   5.015  0.0350  0.0486  0.1521
18000W        W34261   2.382   3.586   4.113  0.0348 -0.1158  0.0752
18001W        W34262   4.534   4.571  16.271  0.1324  0.0889 -0.2236
18002W        W34263   7.940  14.073   0.463 -0.0473  0.1174  0.1706
18003W        W34264   7.054  17.437  14.303 -0.1735  0.2713  0.1821
18004W        W34265  14.205   6.039   4.013  0.0256 -0.1568  0.2209
18005W        W34266   2.239   2.112  16.618  0.2434  0.0957  0.1661
18006W        W34267   5.881   4.471  13.686  0.1430  0.1030  0.0725
18007W        W34268   7.165  17.198   0.684 -0.1500  0.3363  0.2397
18008W        W34269   3.161   7.206  13.525 -0.2368  0.1839 -0.0345
18009W        W34270   5.748   9.002   3.083  0.0157 -0.0352 -0.2316
18010W        W34271  12.109   8.043  13.918  0.1497  0.3564 -0.2396
18011W        W34272  10.100  13.116  12.103  0.0487 -0.2573 -0.0715
18012W        W34273   9.310  13.880   3.638 -0.2575 -0.1416 -0.1636
18013W        W34274   2.383   7.781  13.156 -0.0501  0.0205 -0.0749
18014W        W34275   0.900   1.770  13.888  0.0784  0.0344  0.0156
18015W        W34276  15.392   7.514  15.400 -0.0829  0.0848 -0.2387
18016W        W34277  17.085   1.883   3.442  0.1742 -0.0819  0.0862
18017W        W34278   3.531   9.623   0.459 -0.0346 -0.0983  0.1440
18018W        W34279   1.435   5.723  14.712 -0.0909 -0.2693 -0.3508
18019W        W34280   1.387  11.929  13.735 -0.1082 -0.1077 -0.0919
18020W        W34281  15.154  14.536  16.358  0.0284 -0.1284  0.1764
18021W        W34282  12.875   3.712   1.478 -0.3376 -0.1746  0.2721
18022W        W34283   5.257   1.665  12.240  0.0982 -0.1435  0.0073
18023W        W34284  12.491  10.734   3.987 -0.3249 -0.0208  0.0576
18024W        W34285  14.387  17.855   1.783  0.4843  0.0954  0.0022
18025W        W34286   2.045   3.144  12.325 -0.1794 -0.0707 -0.0423
18026W        W34287   4.943   9.149  11.681  0.0143  0.2271 -0.1060
18027W        W34288  16.920  14.174  13.367  0.0692 -0.0825  0.0943
18028W        W34289   9.168  12.680  12.135  0.0193 -0.1206 -0.1087
18029W        W34290   8.947   4.937   4.241  0.4721  0.1670  0.2763
18030W        W34291  15.068  12.164  12.845  0.2874 -0.0339  0.1668
18031W        W34292  10.029   0.245  15.529  0.3133  0.5341  0.0604
18032W        W34293  12.965  14.311  12.292  0.2404  0.0091 -0.0127
18033W        W34294   6.106   0.139  12.740 -0.2140  0.0053 -0.1464
18034W        W34295  10.103   3.448   3.526 -0.0523  0.0425 -0.0791
18035W        W34296  17.250  14.177   6.021  0.0529 -0.1789 -0.0832
18036W        W34297  11.636  16.014   3.926  0.1018  0.0994  0.0089
18037W        W34298  15.620   6.735  14.475 -0.1104  0.1060 -0.3926
18038W        W34299  12.638   4.847   5.791 -0.0404 -0.1280 -0.0633
18039W        W34300   7.986  17.395   2.762 -0.1457 -0.1883  0.2492
18040W        W34301  17.398  14.656   0.505 -0.0478  0.0137 -0.0152
18041W        W34302   0.913  16.863  16.836  0.2803  0.4126 -0.1444
18042W        W34303   1.265  12.238  15.931  0.1004 -0.5484  0.0313
18043W        W34304  10.587  11.589  12.449  0.0057 -0.1036  0.1071
18044W        W34305   8.265   1.684  15.526  0.3417 -0.0282  0.0051
18045W        W34306   7.523  17.239   0.218 -0.1603  0.0039  0.3962
18046W        W34307   9.947  16.921   5.258 -0.0240  0.0214  0.0899
18047W        W34308  16.134  15.218  14.446  0.0928 -0.2374  0.1965
18048W        W34309   2.442   0.961   1.491 -0.0330 -0.1149 -0.3312
18049W        W34310  15.876  14.036  12.356 -0.3223  0.1894  0.0461
18050W        W34311  16.471   4.361   5.469 -0.2567 -0.0829 -0.1969
18051W        W34312  13.505   1.612   2.141  0.1572  0.4148  0.2688
18052W        W34313   2.361   2.084  13.788  0.4341  0.0720 -0.0881
18053W        W34314  15.611  17.218   2.574 -0.0810  0.2744 -0.2235
18054W        W34315   4.852  10.364  14.865  0.3259 -0.1206  0.3802
18055W        W34316  11.826   1.577  14.199  0.0804  0.1844 -0.0715
18056W        W34317  10.581   2.652   5.792 -0.0826  0.2556  0.4954
18057W        W34318   3.715   5.032   1.644 -0.0311 -0.0684  0.1633
18058W        W34319   9.017   3.596   2.523  0.2784 -0.0156  0.1529
18059W        W34320   0.746   8.657  14.544 -0.0575 -0.1068 -0.0944
18060W        W34321   4.933  15.742  16.282 -0.0044 -0.0591 -0.0539
18061W        W34322   2.776   7.596  13.569 -0.0765 -0.2076  0.0258
18062W        W34323   7.523  11.006  14.849 -0.0534 -0.1707 -0.1242
18063W        W34324   6.339  15.225  14.159  0.0594 -0.2951  0.2138
18064W        W34325   3.573   1.236  14.330 -0.0353  0.0274 -0.2155
18065W        W34326   7.991  17.723   2.398  0.0366 -0.0093 -0.0181
18066W        W34327   6.638   4.493   3.123 -0.0524 -0.0655 -0.1795
18067W        W34328  13.020  16.280   5.241  0.3088  0.1725  0.2190
18068W        W34329   1.192   6.938   4.853 -0.4557 -0.1641 -0.1304
18069W        W34330   3.726   8.095   0.229 -0.2574 -0.1218 -0.1607
18070W        W34331  10.268  17.754   2.509 -0.0926  0.0307  0.1676
18071W        W34332   0.498  12.981   3.001  0.3736 -0.1295 -0.1285
18072W        W34333   5.688  11.096   1.203 -0.0544  0.1559  0.0266
18073W        W34334   5.815   8.034  15.846  0.0177  0.1606  0.1484
18074W        W34335   1.790   6.047   5.295 -0.2441  0.1670 -0.2941
18075W        W34336  11.542   0.032   4.796 -0.2316 -0.0335  0.1391
18076W        W34337  17.260   5.455   2.774 -0.0852  0.2000 -0.2072
18077W        W34338   3.468   4.496   1.250 -0.0185  0.0094 -0.0980
18078W        W34339  15.390  16.307   5.491 -0.0296 -0.0833  0.2613
18079W        W34340   8.852   3.031   1.796  0.1356 -0.3162  0.1941
18080W        W34341  16.615  15.143  12.243  0.0054  0.2587  0.1002
18081W        W34342  12.530  13.222   5.628 -0.0762 -0.1109  0.1791
18082W        W34343   3.711  10.004  14.427 -0.0489 -0.3979  0.1865
18083W        W34344   0.196   1.657   5.169  0.0238 -0.1640  0.0674
18084W        W34345   8.924   4.009   4.050 -0.0000 -0.1258 -0.1675
18085W        W34346   0.943  11.203  13.813  0.2628 -0.3896 -0.1103
18086W        W34347  10.715  14.826   0.378 -0.1992 -0.1631  0.2523
18087W        W34348  14.781  12.677  15.227  0.3163 -0.1707  0.2427
18088W        W34349   9.166  13.989  12.241  0.1168  0.1316  0.0821
18089W        W34350  12.986   9.818   5.854 -0.0867 -0.1270  0.1979
18090W        W34351   0.805  16.122  10.899 -0.6334 -0.0680  0.0745
18091W        W34352   2.576  13.782  11.427  0.0053  0.0027 -0.1744
18092W        W34353   1.909  12.458   1.989  0.0106 -0.0105  0.1454
18093W        W34354   8.074   9.294   3.959  0.0131 -0.0010 -0.0174
18094W        W34355  12.057   0.954   1.515  0.0630 -0.2069  0.0506
18095W        W34356   7.725  17.401  13.528  0.0658 -0.1485 -0.0068
18096W        W34357   0.319   9.984  12.715 -0.1830 -0.1131 -0.1042
18097W        W34358   8.864   6.573   3.810 -0.1160 -0.1394 -0.0548
18098W        W34359   2.507  14.478  16.493 -0.0317 -0.2224 -0.2409
18099W        W34360  10.245   4.147   2.460 -0.1095 -0.0145 -0.1483
18100W        W34361  12.069   6.538  15.543 -0.0644 -0.0341  0.1215
18101W        W34362  17.526   7.347   0.003 -0.1107  0.5548  0.0737
18102W        W34363  17.230  14.673   0.036 -0.1858 -0.1645  0.3398
18103W        W34364  17.382  14.487   1.963  0.3996  0.1154  0.2483
18104W        W34365   6.497  12.198  14.001 -0.2300  0.0226  0.3684
18105W        W34366   0.502  12.692  12.623  0.3076  0.1963  0.2373
18106W        W34367   6.113  15.752   5.412  0.2065  0.2164 -0.0870
18107W        W34368  13.054  17.297   2.416  0.1932 -0.0891 -0.0284
18108W        W34369   9.620   8.064  14.005 -0.0397 -0.0896  0.0330
18109W        W34370  10.236  14.020  13.680 -0.0014  0.0350  0.1189
18110W        W34371   4.515  11.648   0.790 -0.3364  0.1092 -0.2917
18111W        W34372   4.432   0.236   0.463  0.0943  0.0641 -0.0628
18112W        W34373   2.326   3.763  16.389  0.1351 -0.0374  0.2342
18113W        W34374   5.187   4.042   4.052  0.3031  0.0441 -0.0847
18114W        W34375   1.129   1.186   1.597  0.0026 -0.1359 -0.0545
18115W        W34376  13.859   3.961   4.949  0.3248 -0.1310  0.2463
18116W        W34377   3.454  10.154   4.529 -0.1267 -0.1691 -0.0607
18117W        W34378   9.583   0.073  11.454  0.2372 -0.0635  0.0082
18118W        W34379   9.309   4.411   2.529  0.3027  0.2130  0.1343
18119W        W34380   8.153  10.108   1.791 -0.2856 -0.0354  0.2391
18120W        W34381  15.668  14.900  11.668  0.2014 -0.1460 -0.0520
18121W        W34382  17.484   4.855   4.763  0.1210  0.0534  0.2315
18122W        W34383  11.530  16.980   4.498  0.2484 -0.0337  0.1762
18123W        W34384   7.023   5.397  15.526 -0.1283 -0.0280  0.0272
18124W        W34385  11.328  10.894  12.667  0.0947  0.2724 -0.1321
18125W        W34386  11.342  16.946  15.754 -0.0448  0.3626  0.2237
18126W        W34387  13.581   7.115  14.426  0.1936  0.0278 -0.3905
18127W        W34388   8.883   2.993   0.901 -0.0515 -0.1737 -0.0270
18128W        W34389   9.696  13.470  10.565 -0.1591  0.1427 -0.0986
18129W        W34390   4.564   7.865   4.345 -0.2604 -0.1534 -0.0347
18130W        W34391   9.382  15.975  16.539  0.2895  0.0472 -0.1438
18131W        W34392   0.227   2.154  14.555 -0.1054  0.1218  0.0341
18132W        W34393   8.226   5.566  14.214  0.1161  0.3738  0.1614
18133W        W34394  12.358  15.146   4.245  0.0229  0.0409  0.3181
18134W        W34395   2.183   9.706   1.632 -0.1514 -0.1908  0.2419
18135W        W34396   2.396   8.747   4.814 -0.0271 -0.3147  0.1508
18136W        W34397  17.196   8.401  12.001  0.1037  0.2656 -0.0717
18137W        W34398   8.937  17.022   0.002 -0.0575 -0.2224 -0.3035
18138W        W34399   0.152   6.645  15.852  0.3034 -0.3166  0.0099
18139W        W34400  11.710   7.014  16.265 -0.0098  0.1338  0.1066
18140W        W34401   1.632   9.663   4.548 -0.0719 -0.2923  0.1692
18141W        W34402  16.010  16.826   1.767  0.3194 -0.0615  0.1258
18142W        W34403   6.799  13.621  15.153 -0.4052 -0.2648  0.0447
18143W        W34404  11.853   3.715  15.813 -0.1170  0.1143  0.3174
18144W        W34405  16.164   3.225   1.980  0.0404 -0.0781 -0.1423
18145W        W34406  14.732  11.066   3.423  0.0167 -0.3183  0.2160
18146W        W34407   6.344  13.588   1.404  0.0484 -0.1993 -0.0565
18147W        W34408  12.669   8.597   3.152 -0.0597  0.1712 -0.2590
18148W        W34409   3.576   9.928  12.249  0.1293  0.0771 -0.0874
18149W        W34410   7.539  16.711   1.512 -0.1678  0.1117 -0.3889
18150W        W34411   7.757   6.789  14.360 -0.1929 -0.0166  0.0215
18151W        W34412   3.205   2.695   2.782  0.0292 -0.2417  0.0522
18152W        W34413  12.262  12.284  11.641  0.0791 -0.1610  0.0110
18153W        W34414   9.025  15.636   1.129  0.1574 -0.1754  0.1938
18154W        W34415   3.945   0.326  15.333  0.0358 -0.1053  0.0279
18155W        W34416   9.878   0.961   4.320  0.1650  0.2947 -0.2242
18156W        W34417  16.655   2.410   2.780 -0.0398 -0.4277 -0.0299
18157W        W34418   1.369  14.503  12.439 -0.0218  0.0148 -0.0689
18158W        W34419  13.998  14.312  16.716 -0.0990 -0.1827 -0.2309
18159W        W34420  11.139   3.145  14.959 -0.3249  0.3933 -0.0896
18160W        W34421  12.586   5.508   4.021  0.0555  0.0114 -0.1849
18161W        W34422  16.261   6.417  15.530 -0.1827  0.1715  0.1108
18162W        W34423   9.815   3.192  10.684 -0.0744 -0.1274  0.1366
18163W        W34424   6.826   3.944   5.727 -0.2134  0.0129  0.0259
18164W        W34425   3.656  17.115  15.262 -0.1065 -0.0765  0.0155
18165W        W34426   3.103  13.219  12.425 -0.0258 -0.1303  0.0523
18166W        W34427   6.725  15.117   5.357 -0.0321 -0.0131 -0.2925
18167W        W34428  12.033  17.494   5.265  0.0071 -0.3494  0.2761
18168W        W34429  17.089   0.025   4.937 -0.1198  0.6439  0.0253
18169W        W34430  15.093  10.000   5.210  0.1900 -0.1456  0.1755
18170W        W34431  10.096   3.728   5.210  0.2064  0.0259 -0.4405
18171W        W34432   9.963  12.889   2.110  0.0967  0.1722 -0.0250
18172W        W34433  11.398   3.510   5.545  0.2272  0.1319 -0.0855
18173W        W34434  10.793   2.766   2.049  0.0619  0.1936  0.0576
18174W        W34435   4.741   0.705  13.742 -0.0713  0.0288  0.1997
18175W        W34436   8.131   2.392  13.709  0.1248  0.0183  0.0218
18176W        W34437  11.399   5.236   3.112 -0.2949  0.1890 -0.2918
18177W        W34438  12.112   8.564   0.065 -0.2400 -0.0811  0.2027
18178W        W34439  14.265  14.976   1.951 -0.2775 -0.0115  0.2640
18179W        W34440   0.026  15.062  16.597 -0.0166 -0.2964 -0.0164
18180W        W34441   0.440   5.805  12.508 -0.0885  0.0549  0.1604
18181W        W34442   2.306  17.036  15.220  0.2018 -0.1412 -0.0091
18182W        W34443   8.745   0.014   0.831 -0.1129 -0.0310  0.0317
18183W        W34444  11.491  14.587  16.331  0.0270  0.0490  0.3023
18184W        W34445  16.597  17.400   0.849 -0.3369 -0.0325 -0.0475
18185W        W34446   0.409   4.126  15.367  0.0223  0.1836  0.1767
18186W        W34447  12.600  15.329  15.884  0.0616  0.0010  0.0426
18187W        W34448   8.036   9.666   3.145  0.0113 -0.0408  0.2314
18188W        W34449   3.900   3.598   0.109  0.1724 -0.1072 -0.0379
18189W        W34450   5.536  15.325   1.223  0.0799 -0.2233  0.1468
18190W        W34451   1.535   6.439   3.817  0.1167  0.2101 -0.1838
18191W        W34452  12.333   4.728  15.891 -0.0831  0.1310 -0.1356
18192W        W34453  16.828  10.796  12.637 -0.0195  0.0556 -0.1556
18193W        W34454   3.908  11.178  16.533 -0.0851 -0.0963 -0.0237
18194W        W34455  11.450   0.256  11.394 -0.0772  0.0498 -0.0152
18195W        W34456   2.537  17.162  11.707  0.1066  0.1170 -0.3015
18196W        W34457   2.107   3.029   0.753 -0.0314  0.1267  0.0497
18197W        W34458   7.383   1.319  12.952 -0.2133 -0.1786  0.1091
18198W        W34459  17.492  12.187  14.414  0.1335 -0.0571  0.0457
18199W        W34460   0.706   7.646  12.528 -0.0422  0.1743 -0.3909
18200W        W34461   4.050  17.268  14.929 -0.1865 -0.2550 -0.2042
18201W        W34462   3.053  10.789   1.613  0.1335 -0.0464  0.2783
18202W        W34463   9.729   3.972   2.271  0.1934  0.0911 -0.3226
18203W        W34464   6.318   5.498  16.106  0.1773 -0.0334  0.3217
18204W        W34465   9.603   5.980   0.511 -0.0730  0.1642 -0.0039
18205W        W34466  12.893   2.695  16.512 -0.2162  0.1378 -0.0509
18206W        W34467   5.794   9.017  16.794 -0.0186 -0.0144  0.0709
18207W        W34468  14.872  17.403   0.205  0.0813  0.1770  0.0577
18208W        W34469   4.845   9.515  15.624  0.1871  0.0664 -0.3424
18209W        W34470   1.281  15.870  13.588 -0.2855  0.2321  0.1711
18210W        W34471   5.123  13.423   3.123  0.0852 -0.0183  0.2217
18211W        W34472   3.343   1.210  12.751 -0.0054  0.0862  0.2538
18212W        W34473  13.114   5.462  14.971  0.2138 -0.0085 -0.0165
18213W        W34474  17.740   0.786   4.836 -0.0511 -0.0424 -0.4175
18214W        W34475  10.008   7.996  12.375  0.0486 -0.0355 -0.1483
18215W        W34476  10.880  10.303  11.977 -0.0962 -0.2295  0.0757
18216W        W34477   3.610  11.727   0.228  0.1995 -0.0173  0.2106
18217W        W34478   6.753  10.457   0.805  0.1496  0.1088 -0.1033
18218W        W34479   0.013   5.165   5.597  0.2348  0.0893 -0.1073
18219W        W34480   6.054  12.704   0.962 -0.0454  0.2509  0.2181
18220W        W34481   9.570   1.459  16.805  0.0371  0.1779 -0.1332
18221W        W34482  12.132  14.951  11.445 -0.0220  0.3536 -0.2014
18222W        W34483   0.020   6.080   2.506 -0.0567  0.1246  0.3017
18223W        W34484   4.906   7.849  14.032  0.1668  0.0667  0.0801
18224W        W34485  15.196  14.762  14.355 -0.0565 -0.0392 -0.0560
18225W        W34486  16.910   1.061   3.889  0.0913  0.4794  0.2629
18226W        W34487  10.332   8.495  12.844 -0.1462 -0.1384 -0.1774
18227W        W34488  10.064  12.399  15.213 -0.1072  0.3598  0.0180
18228W        W34489  10.163   9.358  13.198  0.2660  0.1228  0.2170
18229W        W34490  10.302  11.313  15.568 -0.1734  0.3760  0.1462
18230W        W34491   5.420   3.374  14.565 -0.1899  0.2250 -0.2659
18231W        W34492   0.664  11.073  11.867  0.1361  0.2258  0.1186
18232W        W34493   1.599   9.349  13.462 -0.1776  0.3337  0.1013
18233W        W34494   0.398  14.375  15.346 -0.0669  0.3518 -0.0064
18234W        W34495  13.782   6.797   3.256  0.0596 -0.1944 -0.1701
18235W        W34496   0.162   6.739  12.319  0.0955 -0.0511  0.2043
18236W        W34497   8.863  15.331  11.000  0.1774  0.1355  0.2298
18237W        W34498  14.580   6.110  15.495 -0.1240  0.3160  0.2200
18238W        W34499   1.344   1.075  14.018  0.1730  0.0184 -0.0437
18239W        W34500  16.938   3.243   0.328  0.1285  0.1035  0.2417
18240W        W34501   1.498   4.165   4.572 -0.0481 -0.1136 -0.2881
18241W        W34502  12.597   6.150  15.045 -0.0656 -0.6570 -0.1009
18242W        W34503  10.949   0.775   3.166 -0.1266  0.0219 -0.0707
18243W        W34504  13.034   5.939   2.900 -0.1419  0.2566  0.3714
18244W        W34505   5.934  15.584  16.717  0.1149 -0.0072 -0.1336
18245W        W34506   3.788   7.475   5.505  0.0696 -0.2705 -0.0544
18246W        W34507  16.278   1.808   0.459 -0.0012 -0.0835  0.0058
18247W        W34508  13.007   9.454  13.630  0.2795 -0.0144 -0.0947
18248W        W34509   3.850   6.302  16.639  0.4367  0.0212  0.1206
18249W        W34510  14.208  11.357   2.937  0.2707  0.0014 -0.0708
18250W        W34511   2.129  16.349  15.378  0.0044 -0.2469 -0.1569
18251W        W34512   1.744  11.805  11.611  0.0996 -0.0609 -0.0651
18252W        W34513  17.394  11.867   5.017  0.2888 -0.2029 -0.2677
18253W        W34514  12.094  13.384  14.173 -0.0199 -0.3165  0.0339
18254W        W34515   4.192  13.438  13.506  0.2670  0.0993  0.1416
18255W        W34516   2.478   3.306   3.286  0.2016  0.1597  0.0245
18256W        W34517  16.946  12.610  15.912  0.2152 -0.3509 -0.1146
18257W        W34518   4.243   5.457   6.192 -0.2460 -0.1277 -0.0584
18258W        W34519   9.476   1.951  16.799  0.4381 -0.2352 -0.0746
18259W        W34520   0.276   6.635  13.430  0.2020 -0.1009 -0.1017
18260W        W34521   1.554   1.778   0.903 -0.2371 -0.1260 -0.0527
18261W        W34522  12.790  12.431   1.815  0.0803 -0.1882  0.0450
18262W        W34523   4.246  17.207  12.882 -0.0173  0.0048 -0.1515
18263W        W34524   2.805   4.782   6.145  0.0820 -0.1766  0.0875
18264W        W34525  17.545  11.513  14.488 -0.1127  0.0070 -0.0058
18265W        W34526  10.526   8.421  11.563 -0.0276 -0.0153  0.1243
18266W        W34527   3.387   1.401  13.887  0.2224 -0.1124  0.1152
18267W        W34528   5.094  10.378   0.926  0.1736  0.0085  0.4964
18268W        W34529   8.974   6.135  14.294  0.0020  0.0061 -0.0395
18269W        W34530   4.904  16.183  11.746 -0.2327 -0.0176  0.0536
18270W        W34531   3.109   6.584  14.898 -0.2572  0.2463 -0.0966
18271W        W34532   1.038  11.640   1.480  0.0508 -0.1219  0.1188
18272W        W34533   8.959   7.111  13.402  0.1111 -0.1618 -0.0452
18273W        W34534   6.956  13.635   4.746 -0.1655 -0.0889  0.1949
18274W        W34535   0.490  17.081   0.209  0.0405  0.2966 -0.0666
18275W        W34536  17.688   2.226  13.115  0.3482  0.0261  0.1063
18276W        W34537   5.537   6.719   3.475  0.3626  0.0770 -0.1438
18277W        W34538   7.701  12.060   0.853  0.1012  0.0041 -0.2291
18278W        W34539  16.139   2.026   5.469 -0.0401 -0.4297 -0.0731
18279W        W34540  17.704  15.063   3.807 -0.1370  0.2692 -0.1828
18280W        W34541  12.556  15.885  11.745 -0.0366  0.2444 -0.1058
18281W        W34542   3.033  17.211  12.061  0.2252  0.1994 -0.2243
18282W        W34543  15.866  11.032  13.450 -0.0889  0.0001  0.2287
18283W        W34544  10.061  11.241  15.055  0.0397  0.0570 -0.0865
18284W        W34545   1.056  16.004  13.974  0.1166 -0.1001 -0.0046
18285W        W34546  11.174   1.249  12.318  0.1376  0.0990  0.5582
18286W        W34547  10.272  15.073  12.774 -0.0280 -0.1964 -0.1402
18287W        W34548  14.229   8.766   0.917  0.0460 -0.1157  0.2415
18288W        W34549  14.625  17.592   1.423  0.1593 -0.0526 -0.1867
18289W        W34550  11.545   0.101  12.753 -0.0291 -0.0496  0.0631
18290W        W34551  10.227   7.411   4.825  0.1205 -0.1841 -0.1546
18291W        W34552   6.600  15.475  11.551 -0.1337 -0.1101 -0.2616
18292W        W34553  15.360  13.211   1.133  0.0410 -0.1619  0.1734
18293W        W34554   5.667  15.085  11.642  0.0027 -0.1489  0.0964
18294W        W34555  16.127  15.166   3.136  0.0987  0.2937 -0.0432
18295W        W34556   3.257   0.677   1.670 -0.1473  0.1415  0.1068
18296W        W34557   7.936  10.895  11.911  0.2534 -0.1123  0.0882
18297W        W34558   7.020   4.087   2.293 -0.0907 -0.3619 -0.0277
18298W        W34559   9.182  15.188   0.956  0.3797 -0.2706 -0.1253
18299W        W34560   0.270   8.758  14.736  0.2791 -0.3915  0.0902
18300W        W34561   8.034  13.323   4.937 -0.2414  0.0517 -0.2086
18301W        W34562   4.262   5.652   3.765 -0.0567  0.0094 -0.0101
18302W        W34563   9.084  16.305   0.680  0.1076  0.1851  0.1871
18303W        W34564   4.897  12.199   4.366  0.0718 -0.0303  0.2838
18304W        W34565   7.065  17.755  13.876  0.1272 -0.1968 -0.0814
18305W        W34566  13.248  13.077  15.157  0.0012 -0.0307  0.0777
18306W        W34567   8.753   3.121   2.683 -0.1940 -0.2866 -0.1295
18307W        W34568   7.657   7.149  11.321  0.0295  0.0346 -0.0993
18308W        W34569  13.109  11.609   5.201  0.0789  0.3961 -0.0777
18309W        W34570  16.788   2.066   6.186  0.1008  0.2846 -0.3059
18310W        W34571   0.011   7.604  11.581  0.0474  0.1026  0.0495
18311W        W34572  13.400   6.321   1.091  0.0536  0.1705 -0.1698
18312W        W34573   9.610  16.262   0.575 -0.2677 -0.1313 -0.1259
18313W        W34574   3.528   2.898  16.577  0.0068  0.1131 -0.1080
18314W        W34575   0.196  14.355   4.136 -0.2609  0.0690 -0.1838
18315W        W34576  16.322  15.532  12.909 -0.1884  0.0849  0.2699
18316W        W34577   4.849  11.616   0.398 -0.2536 -0.2013  0.2455
18317W        W34578  15.159   9.020   2.970 -0.3650 -0.3343  0.2860
18318W        W34579  11.234   6.150  14.540 -0.0287 -0.0492 -0.0517
18319W        W34580  10.826  16.246  12.393 -0.3154  0.0222  0.2194
18320W        W34581   6.390   7.707   2.898 -0.3397  0.3190 -0.1092
18321W        W34582   7.694   8.270   6.318 -0.2349  0.0357  0.0030
18322W        W34583   4.078   2.833  13.270  0.1907 -0.2488  0.1087
18323W        W34584   7.737   3.139  10.703  0.0165  0.1777 -0.3145
18324W        W34585   2.448   9.911  14.786  0.2230 -0.0306 -0.0272
18325W        W34586  14.136   6.129   1.635 -0.3599 -0.0407 -0.1299
18326W        W34587   9.005   2.002  11.911  0.4736  0.1531 -0.0373
18327W        W34588   5.044  17.521   2.841 -0.2606 -0.0007  0.1169
18328W        W34589   9.506  14.491   0.605 -0.4153  0.3148  0.2557
18329W        W34590   2.292  11.569  16.152 -0.0017 -0.2758 -0.3355
18330W        W34591  15.646  16.452   3.487 -0.3095 -0.0867  0.0988
18331W        W34592   0.739   5.161  12.741 -0.1388 -0.0906 -0.0808
18332W        W34593  14.581   7.334  16.214  0.4566  0.1977 -0.0386
18333W        W34594   2.154   4.953   4.378  0.2606  0.3501  0.1017
18334W        W34595   6.215  11.168   4.396  0.0539 -0.0612  0.0702
18335W        W34596   2.629   0.557  15.219 -0.0938 -0.0934 -0.2655
18336W        W34597   1.084   7.299   4.012  0.2036 -0.2073 -0.2811
18337W        W34598   9.039  17.543   0.992  0.1835  0.0452 -0.2664
18338W        W34599   9.840   4.107   1.238 -0.0158  0.1592  0.1641
18339W        W34600   0.664  15.973  15.149  0.0964  0.0007 -0.0130
18340W        W34601  16.890   9.148   5.542 -0.0108 -0.1057  0.0308
18341W        W34602   4.030   2.145   2.724  0.0047 -0.5229  0.0389
18342W        W34603   4.329   0.614   0.170 -0.5765  0.2581 -0.0938
18343W        W34604  17.248  14.947   3.670  0.0275 -0.0003  0.0013
18344W        W34605   4.917  15.635   0.443 -0.2547 -0.0353 -0.0407
18345W        W34606  16.006   6.843  16.621 -0.1043 -0.1041 -0.1395
18346W        W34607  10.635  15.444  12.667  0.0623 -0.0814 -0.1039
18347W        W34608   3.079  14.563   0.255  0.1468  0.0632 -0.0085
18348W        W34609  10.639   1.345   2.472  0.2695 -0.2758  0.0413
18349W        W34610   9.056   1.188  13.818 -0.3580  0.1350 -0.0616
18350W        W34611  11.613  11.959   2.036  0.0363  0.3128 -0.3759
18351W        W34612  16.772  12.270   5.340  0.0019 -0.0149 -0.2197
18352W        W34613   4.780  16.389  14.732  0.2268  0.1186  0.3645
18353W        W34614   9.689   2.766  14.758 -0.0683 -0.0733  0.2904
18354W        W34615   6.484   4.131   4.820 -0.3121 -0.0045  0.2132
18355W        W34616   6.251  10.889  13.968  0.2836 -0.0536 -0.0136
18356W        W34617  11.854   3.719   0.202 -0.2295  0.1509 -0.0317
18357W        W34618  15.827   5.922  14.293 -0.2485 -0.1227 -0.2360
18358W        W34619   4.333  14.193  15.649 -0.0344  0.3009  0.1936
18359W        W34620  13.897  10.555   5.474  0.2313 -0.1729  0.2417
18360W        W34621  16.478  10.601  16.414 -0.3783  0.2720 -0.3017
18361W        W34622   0.274  15.066  14.246  0.0201 -0.1699 -0.3228
18362W        W34623   2.852  14.898  12.542  0.2748  0.2958  0.2884
18363W        W34624  13.600   6.533  13.082  0.0478 -0.0446  0.1900
18364W        W34625  17.123   7.625  16.266 -0.3103  0.0032  0.0971
18365W        W34626  10.521   5.540   2.584 -0.0484  0.3834  0.2603
18366W        W34627   3.434  14.779   3.400 -0.2666 -0.0596  0.2381
18367W        W34628   6.288  11.072  16.005 -0.0139 -0.2738 -0.3113
18368W        W34629   3.806   6.976   5.339 -0.0038  0.1417 -0.1550
18369W        W34630  15.865   7.217   3.517  0.3236  0.0041  0.0174
18370W        W34631   7.184  10.070  13.878 -0.0049 -0.4888  0.0017
18371W        W34632  10.546  11.136   1.823 -0.1453  0.1324 -0.2652
18372W        W34633   6.040   5.128   0.865 -0.0981 -0.1436  0.0332
18373W        W34634   0.093   2.979   3.196  0.0881 -0.0440 -0.2429
18374W        W34635  10.007  11.818  15.306  0.0474  0.1079 -0.1974
18375W        W34636   0.344   8.453   5.886  0.0098 -0.3409  0.1378
18376W        W34637   6.314   4.672  12.259  0.2138  0.1104 -0.1778
18377W        W34638   8.591   8.518   6.050 -0.3456 -0.1395 -0.3442
18378W        W34639  13.289  11.139   0.794  0.1201  0.1017 -0.0957
18379W        W34640   6.809  14.678  13.711 -0.0757  0.2692  0.0149
18380W        W34641   2.019   9.481  12.475  0.3334 -0.1991 -0.0892
18381W        W34642   0.821  12.514  15.816 -0.0914 -0.2733  0.0046
18382W        W34643   9.022  15.767  14.107 -0.0586 -0.1378  0.0866
18383W        W34644  10.852  10.625  12.340 -0.0625 -0.1859 -0.0488
18384W        W34645   3.064   7.730   2.826  0.1693  0.0876 -0.0882
18385W        W34646   6.759   8.682   1.846 -0.0619 -0.1471 -0.2869
18386W        W34647   8.415  16.697  14.288 -0.0510 -0.0277  0.1755
18387W        W34648   0.831   1.463  11.948 -0.1380 -0.0210 -0.1946
18388W        W34649  13.298   0.681   0.331  0.0372  0.0240 -0.2178
18389W        W34650   0.370   3.805   1.738 -0.2049  0.0132  0.4774
18390W        W34651   7.001  15.427   2.150  0.2518 -0.0717 -0.0268
18391W        W34652   5.746   4.969  14.423  0.0617 -0.0773  0.4178
18392W        W34653   7.842  12.406  16.551  0.1164  0.3053 -0.0497
18393W        W34654  15.002   8.121   0.699 -0.0326 -0.0804 -0.0361
18394W        W34655  11.684   8.790   1.805 -0.1583 -0.1163  0.0162
18395W        W34656   8.707  16.215  15.561 -0.0241  0.0746  0.0277
18396W        W34657   3.929  11.223  13.308 -0.2224 -0.1184  0.0947
18397W        W34658   0.175   6.914   5.052 -0.1781  0.0606 -0.0163
18398W        W34659  10.554   1.151   3.169 -0.2558  0.1606 -0.3043
18399W        W34660   9.021   6.841   0.215  0.3873  0.1294  0.0289
18400W        W34661   1.622  15.938  12.871 -0.1300 -0.0634  0.1462
18401W        W34662   9.122  14.962  14.325  0.2519  0.1998  0.2430
18402W        W34663   1.953  17.688  13.071  0.1124  0.2682  0.0276
18403W        W34664   9.317   6.804   1.328 -0.0192  0.2540  0.1722
18404W        W34665  12.691   5.661   2.647  0.0415  0.0171 -0.4638
18405W        W34666  15.580   0.291   5.053  0.0881 -0.0814 -0.0675
18406W        W34667  17.807   4.669   1.683 -0.3508  0.3040  0.1706
18407W        W34668   3.086   9.545   2.710 -0.0241 -0.0658  0.0077
18408W        W34669   0.216   3.293   4.097 -0.2519  0.0719  0.2050
18409W        W34670   5.719  11.825  16.198  0.1343  0.1343  0.2332
18410W        W34671  13.782   2.792  14.445  0.1740  0.1976 -0.1268
18411W        W34672  10.761   2.358   4.051 -0.1835 -0.3197 -0.1399
18412W        W34673  10.122  10.894  14.721 -0.2455  0.0977  0.1670
18413W        W34674   9.450   6.850  16.096  0.0915 -0.0889 -0.1796
18414W        W34675   8.791   9.135  15.932  0.2348 -0.2065 -0.0991
18415W        W34676   8.701  15.092  11.360  0.2308  0.1715  0.2079
18416W        W34677  10.053   8.276   3.385 -0.0910  0.1168 -0.0940
18417W        W34678   7.904   7.470   2.218 -0.1416  0.3053 -0.0662
18418W        W34679  16.843   4.869  11.908 -0.1396  0.2925 -0.1526
18419W        W34680  10.273   2.273   5.900  0.1362 -0.0444 -0.1262
18420W        W34681   2.602  10.570  13.670  0.1037 -0.1799 -0.1478
18421W        W34682  11.638   2.522  16.209  0.0547 -0.2935 -0.3944
18422W        W34683   4.751  13.723  16.218  0.0438 -0.1490 -0.0475
18423W        W34684   7.778   6.818   3.846 -0.0699  0.0780 -0.1303
18424W        W34685   8.945  13.485   1.131 -0.1402 -0.2703 -0.0840
18425W        W34686  11.008  16.565   2.982  0.0495  0.1501  0.2758
18426W        W34687   5.015  11.517   1.529  0.0692 -0.0854  0.0391
18427W        W34688  15.730   3.069   3.537  0.0764 -0.0531 -0.0120
18428W        W34689  13.067   7.821   0.751  0.2468 -0.4951 -0.1118
18429W        W34690  12.259  12.185  16.082  0.1502 -0.0266  0.4970
18430W        W34691   0.155   1.426  12.624 -0.0360  0.2152  0.1060
18431W        W34692  15.821   4.857   1.706  0.1462  0.1027  0.0851
18432W        W34693   8.157   7.425   5.235 -0.0462 -0.2186  0.0371
18433W        W34694  17.247  13.138  16.674 -0.2309 -0.1890  0.0057
18434W        W34695   7.132   4.957  13.322  0.2355  0.2565  0.0266
18435W        W34696   5.915   9.820   2.285 -0.3160  0.0915 -0.0536
18436W        W34697  11.644   5.674   4.048  0.1296  0.3465 -0.1236
18437W        W34698   3.470  16.744   5.595 -0.2859 -0.0003  0.0679
18438W        W34699  15.885  12.706  12.077 -0.0741  0.0355 -0.1523
18439W        W34700   6.430   0.391   0.010  0.0981  0.1808 -0.1387
18440W        W34701   3.804  11.327   4.282  0.1342  0.0416 -0.0342
18441W        W34702  15.246   9.560  14.787  0.0548 -0.1344 -0.2563
18442W        W34703   6.446   2.054   1.439 -0.4986 -0.0663 -0.0455
18443W        W34704   0.596  14.162  12.323  0.1176  0.0037 -0.2075
18444W        W34705   0.618  13.480   3.862  0.2915 -0.0560 -0.0414
18445W        W34706  12.505   4.035   2.058 -0.0976  0.1943  0.3556
18446W        W34707   1.802   3.149   4.733 -0.1577  0.0813  0.2117
18447W        W34708  16.413   7.575  14.118 -0.2142  0.3985  0.0353
18448W        W34709   3.726  11.650  16.220 -0.0817 -0.3057 -0.2726
18449W        W34710   3.888   8.786  15.979 -0.0332 -0.0567 -0.3712
18450W        W34711   6.979  16.122  15.498 -0.0852  0.1185  0.0977
18451W        W34712  10.021  15.079  11.990  0.1389  0.0943  0.0465
18452W        W34713  17.200  13.086   2.008  0.1542 -0.3369 -0.1110
18453W        W34714  15.594   4.967   3.890 -0.1054 -0.3542 -0.1044
18454W        W34715   8.320   9.122  15.698 -0.0192 -0.0028 -0.1374
18455W        W34716  13.544  14.284   3.757 -0.3083  0.1870 -0.3064
18456W        W34717   1.309  16.077  14.797  0.1900  0.3186 -0.1544
18457W        W34718   3.429  13.944   2.330  0.1634  0.0171  0.0307
18458W        W34719  15.323   0.108  14.379  0.0209  0.2104 -0.3249
18459W        W34720  15.898  12.723   4.356  0.2653  0.0236  0.2300
18460W        W34721  10.226   5.694  11.695  0.1212  0.2985 -0.1701
18461W        W34722   2.367  16.137  14.022 -0.1310  0.2766  0.3852
18462W        W34723  17.853   0.543  16.117 -0.3091  0.1550  0.1825
18463W        W34724   1.837  12.899  12.483 -0.0974  0.0744 -0.1414
18464W        W34725   8.226   4.361   3.055  0.1177  0.3161 -0.0923
18465W        W34726   3.956  17.543   0.241  0.0238  0.2488  0.1482
18466W        W34727  16.559  16.872   5.784  0.0998 -0.1558 -0.0149
18467W        W34728   6.184  10.832   4.037  0.1129 -0.1039  0.3888
18468W        W34729   6.297  15.664  13.844  0.1123 -0.2124 -0.0513
18469W        W34730   4.228  12.845   2.168 -0.2516 -0.2221 -0.0087
18470W        W34731   9.907  10.165  11.657  0.1577  0.2056  0.3887
18471W        W34732   1.114  17.415   4.687 -0.1512 -0.1678 -0.2512
18472W        W34733   2.059   9.492   4.735  0.2323  0.0140  0.1683
18473W        W34734   2.654   2.918  16.101  0.0613  0.0258  0.4661
18474W        W34735   9.349   3.522  11.910 -0.1484 -0.0827  0.0942
18475W        W34736   9.623   1.823   2.459 -0.1014  0.2016 -0.1355
18476W        W34737   1.565  16.506   3.522  0.2946  0.1434 -0.0902
18477W        W34738   4.254   8.361  13.498  0.3089 -0.1618 -0.0236
18478W        W34739  10.865  10.740  12.839  0.0582 -0.0024 -0.0230
18479W        W34740  13.734  10.399   2.196  0.2693 -0.0177 -0.0852
18480W        W34741  16.983   0.046  16.170 -0.0831 -0.0192  0.2594
18481W        W34742   6.917  10.190  15.265  0.0784  0.0260  0.2235
18482W        W34743   8.284  12.294  12.675 -0.0539 -0.3332  0.0952
18483W        W34744  15.735  10.871   6.023 -0.0524  0.0681  0.3395
18484W        W34745   4.343  14.115   5.611  0.0226  0.0690  0.1779
18485W        W34746   9.688  11.806   5.920  0.2679  0.3305  0.1684
18486W        W34747  10.367  12.872  16.885  0.2760  0.3400  0.2889
18487W        W34748   5.767   6.693   1.041  0.1340  0.0010 -0.1713
18488W        W34749  15.159   6.313   2.237  0.2223  0.4626  0.3410
18489W        W34750   8.916  14.158   2.204 -0.0062 -0.0982 -0.1326
18490W        W34751   4.060  17.712   2.736 -0.1242 -0.1788  0.1793
18491W        W34752   5.200  12.764   1.913  0.3316 -0.1024 -0.0472
18492W        W34753  14.573   6.350   4.856 -0.0188  0.0560  0.2435
18493W        W34754  11.326  14.362   4.203  0.0500 -0.0274 -0.0493
18494W        W34755  14.353   2.058  12.574 -0.0863 -0.1619 -0.0598
18495W        W34756   2.748   2.948   2.361 -0.2058  0.0749  0.2036
18496W        W34757  17.410   8.065  13.256  0.0444 -0.2043  0.1602
18497W        W34758   4.623  15.575  13.681  0.0799 -0.0780 -0.0991
18498W        W34759  13.252  12.651   3.178 -0.2067  0.1134  0.0587
18499W        W34760   5.230  12.571  12.261 -0.0350  0.3300  0.0618
18500W        W34761   1.179  17.300   3.659  0.1330  0.0232 -0.1346
18501W        W34762   9.044   6.574  15.884 -0.0707 -0.0091 -0.1410
18502W        W34763   2.006  16.887   4.733 -0.1394  0.0291 -0.0158
18503W        W34764   1.640   0.825   0.661  0.1554  0.2596  0.1927
18504W        W34765   9.961  10.922   3.374  0.1989 -0.1519  0.1255
18505W        W34766   9.466   2.818  13.882 -0.1515  0.1212 -0.2015
18506W        W34767   6.289   2.194   5.793  0.2787  0.0370 -0.0537
18507W        W34768  11.043   2.842   0.507  0.1172  0.1401  0.0959
18508W        W34769   7.989  13.405   1.808 -0.0828  0.2446 -0.1991
18509W        W34770  11.621   3.747  12.304  0.0315 -0.0172 -0.0494
18510W        W34771   4.588  15.775   3.198  0.2503 -0.1197 -0.0123
18511W        W34772  14.838   4.917   4.415 -0.0014  0.2586  0.0126
18512W        W34773   9.182  16.239  13.895  0.0060  0.1626  0.2542
18513W        W34774  10.523   4.861  16.505  0.0360  0.1708  0.0849
18514W        W34775   5.892  10.243  15.707  0.0015  0.1633 -0.1021
18515W        W34776   2.938  13.839   5.122 -0.2122 -0.0086 -0.0637
18516W        W34777  13.660   6.116  16.542 -0.1467  0.0973  0.0900
18517W        W34778   2.070  17.372   5.087  0.1994 -0.0468  0.0786
18518W        W34779   6.034   9.969   5.448  0.2278  0.3986  0.2872
18519W        W34780   3.403   4.102   2.641  0.2155  0.0759  0.1487
18520W        W34781   6.690   6.382  13.438  0.1871  0.0804  0.0547
18521W        W34782   1.652  10.350   5.106  0.0731 -0.1671  0.0812
18522W        W34783  12.532   2.782   1.660 -0.1397 -0.3238 -0.0156
18523W        W34784  15.194  13.036  16.165 -0.1312  0.0975  0.0886
18524W        W34785  12.012   1.261  15.720 -0.0722 -0.3625  0.0899
18525W        W34786  11.291   0.258   2.568 -0.1634 -0.2959 -0.0683
18526W        W34787   6.307  14.482  16.729 -0.3334 -0.0103 -0.1362
18527W        W34788  13.386  15.921  16.928 -0.0536 -0.3161  0.1750
18528W        W34789   2.362   5.722  13.190  0.2217 -0.3536 -0.0727
18529W        W34790  10.940  10.878   2.098 -0.1339  0.0561  0.0913
18530W        W34791   3.901   6.958  14.663  0.0089  0.3063 -0.4137
18531W        W34792   7.568  15.998   1.774  0.0715 -0.0248  0.1119
18532W        W34793   1.026   2.267   3.656  0.0556  0.2323 -0.0778
18533W        W34794   2.349   9.745   3.749 -0.1284  0.1814  0.2153
18534W        W34795   6.131   4.212  16.322 -0.0544  0.0711  0.0153
18535W        W34796  14.026   0.902  16.396 -0.2011 -0.2966  0.1827
18536W        W34797   8.552   6.596   6.289  0.2410  0.0662  0.1242
18537W        W34798   6.756   8.002  16.647  0.3340  0.0385 -0.1406
18538W        W34799   7.910   6.233  13.610  0.0450  0.1011  0.0449
18539W        W34800  12.066   6.220  15.070  0.0134 -0.0250  0.0222
18540W        W34801   1.184   6.013  12.725 -0.2023 -0.0039 -0.0286
18541W        W34802  15.905  15.047  13.944  0.1254  0.0099 -0.1922
18542W        W34803   7.941  13.063   1.431  0.0611  0.2194 -0.3527
18543W        W34804   1.740  11.169  12.286  0.2602 -0.3031  0.1191
18544W        W34805  11.153  11.252   1.875 -0.1300 -0.0665  0.2396
18545W        W34806  15.128   2.126   4.634 -0.1032 -0.0421 -0.0676
18546W        W34807  13.850  13.523  14.246  0.1341  0.0561  0.3068
18547W        W34808  10.168   6.258  13.964  0.1988  0.1770  0.1989
18548W        W34809   3.387   4.804   3.937  0.1398 -0.2638 -0.0798
18549W        W34810  12.222  11.451  14.071  0.1948  0.2273 -0.0750
18550W        W34811   6.729   6.186   2.286 -0.1123 -0.0932  0.0340
18551W        W34812   5.055  13.356   4.801  0.2235 -0.2146  0.2319
18552W        W34813   4.659  10.452  11.704  0.0347 -0.3031  0.1060
18553W        W34814  10.451   8.043   3.633  0.0463 -0.0103  0.4200
18554W        W34815   2.510  12.319   2.505  0.1319 -0.2033 -0.1314
18555W        W34816  11.950  11.055  11.239  0.2760  0.5025 -0.0629
18556W        W34817  16.189  12.980   1.627  0.2184 -0.0312  0.2280
18557W        W34818   7.289  13.725   4.340  0.1842  0.0289  0.1767
18558W        W34819   9.130  16.397  14.803  0.0816  0.1640  0.0928
18559W        W34820  11.234   5.900   2.467 -0.0130  0.1625 -0.3076
18560W        W34821  16.741   5.482   2.662  0.1513  0.0648  0.0658
18561W        W34822  12.802   4.717  13.546 -0.3930  0.1055  0.0164
18562W        W34823  11.724  14.712  13.612  0.0429  0.2016 -0.0076
18563W        W34824  11.033  11.066   5.392 -0.2103 -0.1784  0.1000
18564W        W34825   9.400  10.572  16.147  0.0818 -0.0410  0.1095
18565W        W34826   3.548   4.968  11.477  0.0972  0.1043 -0.1926
18566W        W34827   9.874   4.946   4.065  0.1091  0.0882  0.1417
18567W        W34828  15.275   7.120  15.069  0.2761 -0.0706 -0.2174
18568W        W34829   8.809  10.328   3.442  0.3660  0.0281  0.1191
18569W        W34830  10.830   2.026  16.724 -0.0521 -0.3449  0.0638
18570W        W34831   9.359  10.063   2.871  0.0614  0.0274 -0.1600
18571W        W34832   3.078   9.692  16.841  0.1512 -0.5858 -0.2093
18572W        W34833  15.209   0.572  15.738 -0.0053  0.1373 -0.1940
18573W        W34834   1.465   8.460   0.609  0.1658  0.1949  0.0722
18574W        W34835  16.218  12.039  15.721 -0.2057 -0.5907  0.1623
18575W        W34836   9.001  12.812  15.294  0.1012 -0.2292  0.3750
18576W        W34837   5.239   5.806   4.797 -0.2316 -0.1276  0.1054
18577W        W34838   1.793  16.346   3.953  0.0236  0.1780 -0.0711
18578W        W34839  16.833  12.067   0.190  0.3918 -0.2859 -0.1149
18579W        W34840  16.326   1.141  12.493  0.3005  0.0677 -0.2041
18580W        W34841   6.108  15.320   2.667  0.1245 -0.2402 -0.0312
18581W        W34842  17.237   3.993   1.797 -0.0626 -0.0605 -0.1086
18582W        W34843  16.293   2.742   1.452 -0.0661 -0.2539 -0.1951
18583W        W34844   5.025   5.656   5.693  0.1881  0.1704 -0.1714
18584W        W34845   3.297   1.879  11.797 -0.1217  0.2461 -0.1478
18585W        W34846  12.225   6.279  11.860  0.1049  0.2304 -0.1089
18586W        W34847  11.520   2.583   2.721  0.0822  0.0577  0.2100
18587W        W34848   8.691   5.270  11.699  0.0270 -0.0012  0.0381
18588W        W34849  15.356   1.108  12.794 -0.0310 -0.0203 -0.2093
18589W        W34850   4.101   9.691  14.588  0.2971  0.2355  0.0787
18590W        W34851   8.106   1.007   2.039 -0.0504  0.0119 -0.1011
18591W        W34852   7.816  11.592  13.241  0.0729 -0.2436  0.1524
18592W        W34853  15.154   6.308   1.739 -0.1316 -0.2152 -0.1427
18593W        W34854   0.952  15.633   0.267  0.2008 -0.0190 -0.3229
18594W        W34855  10.497  14.474   4.098  0.0659  0.0738 -0.0939
18595W        W34856   5.299  15.158  15.699 -0.0153  0.1875  0.0096
18596W        W34857   9.098   3.110  13.947 -0.0586  0.0695 -0.4023
18597W        W34858  16.967   9.431   0.173 -0.1980  0.3818  0.2541
18598W        W34859   8.497  12.595   4.034  0.1479  0.1443  0.1335
18599W        W34860   5.504  12.968  14.102 -0.1017  0.1273  0.1496
18600W        W34861  12.368   6.378   4.568  0.0164 -0.1768  0.1280
18601W        W34862   3.942  15.986  11.959 -0.2049  0.0766  0.0987
18602W        W34863  16.761  17.605   3.897 -0.0046 -0.0074  0.1225
18603W        W34864   4.675  16.740   4.550 -0.3789 -0.0037 -0.0280
18604W        W34865  13.880   9.557   5.867  0.3341  0.0009  0.0115
18605W        W34866  10.801   4.916   5.840  0.2173  0.2011  0.0319
18606W        W34867   8.526   8.218  14.079 -0.1088 -0.4143  0.1839
18607W        W34868   7.920   7.498  16.325  0.1045  0.0597  0.0712
18608W        W34869  14.700  10.691   3.746  0.0628  0.1520  0.0814
18609W        W34870   0.195   2.303  15.049  0.1824  0.0700  0.0958
18610W        W34871   1.367   9.754  13.035 -0.1795  0.0175 -0.4262
18611W        W34872  11.432   9.355   5.127 -0.0933 -0.1206  0.1248
18612W        W34873   3.387   4.365   2.137 -0.2500 -0.2027 -0.1692
18613W        W34874   9.708   7.378   4.512 -0.1659 -0.2779 -0.0238
18614W        W34875  16.466  11.360   0.225  0.1309  0.2592 -0.0335
18615W        W34876   9.022  15.897  14.592  0.0554 -0.2630  0.0910
18616W        W34877  16.505   9.640  15.799  0.2025 -0.1785 -0.0804
18617W        W34878   6.700  10.846   2.820  0.0799 -0.1645  0.0188
18618W        W34879   7.280  11.599  14.049  0.0346  0.0471  0.3008
18619W        W34880  12.541  10.821  12.970  0.0454  0.2658 -0.2046
18620W        W34881   7.412   4.125   3.661  0.1317  0.0307 -0.1820
18621W        W34882  10.042  16.377  16.151  0.1058  0.2147  0.0264
18622W        W34883  11.743  14.710   0.089 -0.0749  0.0604 -0.3092
18623W        W34884   0.971   9.663   5.430  0.1780  0.2591  0.0564
18624W        W34885   6.779   7.872   3.219  0.2045 -0.2408 -0.0406
18625W        W34886  16.568  17.595  15.380  0.0021 -0.3660 -0.1102
18626W        W34887   6.763  15.476  14.058 -0.0879 -0.0120 -0.3506
18627W        W34888   1.476  15.478  12.196 -0.0558  0.1192  0.1812
18628W        W34889  13.834  12.478  14.291  0.2127 -0.1300 -0.1872
18629W        W34890   9.880   5.090  11.718 -0.0789  0.1855  0.2764
18630W        W34891  11.130   6.187   1.325 -0.0899  0.0725 -0.1871
18631W        W34892  12.474   2.701   0.327 -0.0540  0.2561 -0.1927
18632W        W34893   7.632   9.432   4.885  0.1014 -0.0563  0.1840
18633W        W34894   8.683  16.407   1.350 -0.0012 -0.3833 -0.1666
18634W        W34895  16.097  11.847   2.229  0.0494  0.2765 -0.1202
18635W        W34896   5.296  11.763   4.709 -0.1479 -0.0531  0.1826
18636W        W34897  14.463  16.427   3.179 -0.0924 -0.0347  0.0703
18637W        W34898  16.237  17.031  14.769 -0.1750 -0.0871 -0.2860
18638W        W34899  14.020   3.268  15.350  0.1180 -0.2277 -0.1195
18639W        W34900  14.752  13.918   1.596  0.0426 -0.0647  0.0247
18640W        W34901   0.214  17.427  16.344 -0.1714 -0.0586 -0.1922
18641W        W34902   7.678   1.264   3.113 -0.2594  0.0194 -0.0156
18642W        W34903   4.762   4.750   2.001  0.0627 -0.1538  0.0695
18643W        W34904  11.628  11.563   0.721 -0.0625  0.1368 -0.0506
18644W        W34905   6.696   7.421  13.715  0.2579  0.0745 -0.1612
18645W        W34906   8.566  13.217  12.584 -0.3133  0.0465 -0.0178
18646W        W34907  10.881  11.310   0.510 -0.1413  0.0239  0.2147
18647W        W34908   5.796   3.243  13.736  0.2080 -0.0831  0.0614
18648W        W34909   7.557   0.620  11.719  0.1503  0.1017  0.0218
18649W        W34910   8.796   4.581   2.915  0.1001 -0.0094 -0.0270
18650W        W34911  14.601   4.558  14.676 -0.0709 -0.0125  0.0858
18651W        W34912   2.421   6.095  16.179  0.2055  0.1872 -0.3783
18652W        W34913  17.661   5.924  12.237 -0.1829  0.1013  0.0354
18653W        W34914  11.531   5.084   2.640  0.0253 -0.0606  0.3531
18654W        W34915   1.848   1.259   3.300  0.2055  0.0845 -0.0915
18655W        W34916   1.642   1.484   5.451  0.0899 -0.1713  0.1005
18656W        W34917   0.269  14.009  12.695 -0.2740  0.0806 -0.1269
18657W        W34918  11.126  15.058   1.961 -0.3076 -0.0343 -0.0406
18658W        W34919   6.722  12.553   4.764 -0.0894 -0.0266  0.0798
18659W        W34920   1.238  14.169   3.135  0.3529  0.2348  0.1245
18660W        W34921   9.204  12.834   2.084 -0.3070  0.0578  0.0170
18661W        W34922   8.786   8.059   5.637 -0.0177  0.1243  0.0269
18662W        W34923  16.892  10.818  16.739  0.1214  0.2889  0.0858
18663W        W34924  17.740   7.347   3.876 -0.1443 -0.2177  0.1445
18664W        W34925  15.711   8.536  16.377 -0.0565  0.1745  0.2163
18665W        W34926   7.906   7.549   5.650 -0.0478  0.1274 -0.2463
18666W        W34927   0.444   6.076   2.795  0.1284  0.2242 -0.0477
18667W        W34928  12.790  13.954  11.873 -0.2227 -0.1341  0.0045
18668W        W34929   6.600   7.916  13.898  0.1462  0.2403 -0.1003
18669W        W34930   5.329   5.467   3.676 -0.0499 -0.1085  0.1308
18670W        W34931  16.625  11.590   5.834  0.0684  0.1320 -0.0797
18671W        W34932  15.008   9.274   0.192 -0.2501 -0.4502 -0.2106
18672W        W34933   1.140   1.762  16.918 -0.2416  0.1331 -0.0574
18673W        W34934   7.455   3.500  16.729 -0.0688  0.1801 -0.2646
18674W        W34935  10.685  15.376   1.988 -0.2533 -0.2461 -0.1181
18675W        W34936   9.374  12.047   0.624 -0.0982 -0.2432  0.0103
18676W        W34937  12.976  13.163   1.563  0.0343 -0.2602 -0.2277
18677W        W34938   9.935   0.467   0.101 -0.0136 -0.0592 -0.2305
18678W        W34939   6.803  10.988  15.014 -0.2523 -0.3319  0.2364
18679W        W34940   4.013   1.212   5.551  0.0670  0.0951  0.0117
18680W        W34941   6.798  11.580  14.436 -0.0343 -0.0732 -0.0425
18681W        W34942   4.993  16.574  11.491  0.0753  0.0593 -0.1734
18682W        W34943   2.828  13.307  14.859 -0.0681  0.0326 -0.1774
18683W        W34944  10.973   4.079   4.279 -0.0645 -0.1345  0.0071
18684W        W34945   6.192   6.955  16.193  0.1137  0.5318 -0.1155
18685W        W34946  16.499  14.355   3.767  0.2174  0.0586 -0.0126
18686W        W34947   1.144   9.230   1.645 -0.3362  0.0927  0.2061
18687W        W34948  14.968  17.213  12.650  0.1101 -0.2242 -0.0376
18688W        W34949   6.671   5.272   5.898  0.2002  0.0376 -0.2186
18689W        W34950   9.444   0.053   5.378  0.0539  0.0252 -0.0561
18690W        W34951  15.843   5.459  14.530  0.0554  0.0369 -0.0769
18691W        W34952  17.309  15.045   1.920  0.5064 -0.0546 -0.0559
18692W        W34953   2.545  16.172   0.232  0.0283 -0.3555 -0.1994
18693W        W34954   3.060  11.308  12.968 -0.0041 -0.1295 -0.1054
18694W        W34955  15.491   9.936   4.015  0.1148  0.0122  0.2461
18695W        W34956  15.024  14.864   3.102  0.1701  0.3192 -0.1338
18696W        W34957  11.307   1.724   1.335  0.0416  0.0825 -0.0149
18697W        W34958   9.020  13.938   0.835 -0.0329 -0.0875  0.0776
18698W        W34959  13.809   8.532   2.773  0.1288 -0.1987  0.1767
18699W        W34960   4.852   1.175   3.962  0.0420 -0.3434 -0.1373
18700W        W34961  10.044  17.859  16.839  0.1155  0.1100 -0.0739
18701W        W34962   8.978  12.654   4.292 -0.0423  0.4255  0.0041
18702W        W34963  11.235  14.395  15.461  0.2438 -0.0888  0.0925
18703W        W34964  10.041   8.754   3.601 -0.0741  0.0953  0.2547
18704W        W34965   3.413   1.145  16.282 -0.2359  0.2598  0.0598
18705W        W34966  11.659  10.328   5.345  0.0802  0.2410 -0.0670
18706W        W34967   8.330   5.484  13.733  0.4378 -0.0733  0.1453
18707W        W34968   2.565  10.569   2.781 -0.0593  0.0275 -0.1326
18708W        W34969   5.087   4.381   4.981 -0.2796  0.0502 -0.0697
18709W        W34970   7.332   8.904  10.802 -0.0130  0.1886  0.3831
18710W        W34971  14.996   9.560   1.255  0.0641 -0.2635  0.2528
18711W        W34972   9.533   9.063   2.992 -0.1981 -0.1034  0.0585
18712W        W34973   3.355  13.588   0.832  0.0559  0.3887  0.0905
18713W        W34974  14.531   6.075  11.993 -0.1426  0.1650  0.0035
18714W        W34975   7.069  14.601   0.322  0.0115 -0.1737  0.1720
18715W        W34976   3.632   2.740  15.731  0.1560 -0.1371 -0.2190
18716W        W34977  11.634   0.220   3.423  0.0829 -0.3596 -0.0115
18717W        W34978  10.939   2.092   1.209 -0.0352 -0.0088 -0.1563
18718W        W34979  11.826   8.428  14.722 -0.3022 -0.0430  0.3591
18719W        W34980   7.121   3.852   0.036 -0.1779  0.2900 -0.2127
18720W        W34981  12.838   2.597   2.602  0.1732 -0.1815 -0.0268
18721W        W34982  16.938  16.300  12.742  0.0525 -0.1094 -0.0889
18722W        W34983   0.441   7.007  14.776 -0.0246 -0.0154  0.1091
18723W        W34984  13.574  14.387   6.832 -0.1182 -0.1863  0.2165
18724W        W34985  13.935  12.512  16.055 -0.1932  0.0404  0.2944
18725W        W34986  10.322  11.125   2.273 -0.1525 -0.0109 -0.1024
18726W        W34987  14.777  17.246   4.237  0.0672  0.2859 -0.2051
18727W        W34988  11.474  10.727   2.857  0.1220 -0.2188 -0.0442
18728W        W34989  13.811   6.470  13.788  0.1702  0.1092 -0.2273
18729W        W34990   5.669  13.472  16.298 -0.1507 -0.0414  0.1121
18730W        W34991  16.605   0.234  14.581  0.1691  0.0963  0.0184
18731W        W34992   3.712  16.769  14.861  0.1439 -0.4373 -0.3970
18732W        W34993   7.876  12.005  16.828 -0.2153  0.0750 -0.3809
18733W        W34994   4.970   8.143  12.057 -0.2569 -0.1771  0.1484
18734W        W34995   8.279   9.932  12.248  0.2012 -0.1221 -0.1478
18735W        W34996  17.139   5.533  13.175 -0.1098  0.2739  0.2946
18736W        W34997   0.375   9.420   2.353  0.2225 -0.1030 -0.4051
18737W        W34998  12.040  12.663   0.626 -0.3867 -0.1043 -0.1009
18738W        W34999   1.876   5.573   3.727 -0.0736  0.1850 -0.1151
18739W        W35000   9.154  14.774   2.734  0.1950 -0.2948  0.2224
18740W        W35001   4.701  12.677   2.021  0.2873 -0.0500 -0.1311
18741W        W35002   5.819   9.102  12.333  0.3019  0.1213 -0.0637
18742W        W35003  11.506  16.175   5.078  0.1804 -0.0259 -0.0158
18743W        W35004   9.237  16.759   5.742 -0.1102  0.0080 -0.0214
18744W        W35005  12.255   6.740   5.786 -0.0278 -0.1914 -0.2731
18745W        W35006   7.370  17.748   0.346 -0.0030  0.1043  0.1809
18746W        W35007   0.675  16.208  13.575  0.0107  0.1246 -0.1324
18747W        W35008   3.690   4.200   0.833 -0.0308  0.1892  0.2003
18748W        W35009  10.666  13.882  15.299 -0.1223 -0.4136  0.2282
18749W        W35010   6.752  13.094   3.907 -0.3144  0.0360  0.0989
18750W        W35011   8.538   1.892  14.988 -0.4297  0.5036 -0.0197
18751W        W35012  17.125  14.243   0.427  0.0765 -0.2694 -0.3253
18752W        W35013   7.023   6.038  16.085  0.1917 -0.0209  0.0591
18753W        W35014   8.502   4.791   4.528  0.0055  0.3753  0.2222
18754W        W35015  17.002   8.033   2.907 -0.3115  0.1005 -0.2551
18755W        W35016  16.725   9.780  13.663 -0.1566  0.0711  0.1995
18756W        W35017  14.159  10.289   0.146  0.1073  0.2089  0.3695
18757W        W35018  11.173  10.969  13.143 -0.1170 -0.0389  0.0817
18758W        W35019   8.872   2.407  15.060 -0.1137 -0.0522 -0.3156
18759W        W35020   8.962   6.280  12.683 -0.0169 -0.2876  0.0970
18760W        W35021   7.730   2.763   5.937 -0.1218  0.1659 -0.2291
18761W        W35022   1.353   5.603   3.613 -0.2664  0.0070  0.0895
18762W        W35023   6.372   9.219   2.026 -0.2075  0.1818  0.0037
18763W        W35024   6.950   6.526   1.178 -0.0571  0.0182  0.0728
18764W        W35025   4.948   6.666  13.035  0.0085  0.3427  0.2141
18765W        W35026  12.101   7.781   3.786 -0.2759 -0.0161  0.0416
18766W        W35027   8.801   9.447  12.723  0.0157 -0.2307 -0.0596
18767W        W35028  13.639  14.111   4.696  0.4298 -0.1061 -0.0602
18768W        W35029   6.700  15.604   5.529  0.0715  0.0477  0.4184
18769W        W35030  17.258  15.102   0.330  0.1396 -0.0341 -0.0747
18770W        W35031  14.688  15.193  12.678  0.0836 -0.0259  0.2047
18771W        W35032  16.397   9.489  13.874 -0.2153  0.1636 -0.2905
18772W        W35033   4.233  15.636  14.027  0.1944 -0.0450 -0.0999
18773W        W35034   3.247   2.687   3.287  0.0660 -0.0004 -0.0014
18774W        W35035   7.467  12.057  16.594 -0.1572 -0.0722 -0.0692
18775W        W35036   9.866  13.228   0.395 -0.0472  0.0777  0.1420
18776W        W35037  13.284   8.647   1.613  0.0427  0.4344  0.1122
18777W        W35038   8.150   6.483   1.302 -0.2949  0.1454 -0.3056
18778W        W35039  12.435   8.128   1.885  0.2990 -0.0374  0.0565
18779W        W35040   0.211   4.218   0.370 -0.2540 -0.0859 -0.3068
18780W        W35041  11.888  11.120   4.760  0.5780 -0.1673 -0.0112
18781W        W35042   6.242   9.795   1.337  0.0362 -0.0329 -0.0042
18782W        W35043  17.464   2.246   2.481 -0.1838 -0.0835 -0.0993
18783W        W35044  10.485   6.078   3.178  0.0459 -0.1314 -0.0123
18784W        W35045   0.870   0.801   5.130  0.2944 -0.1187 -0.1711
18785W        W35046   4.280   8.705   2.078  0.1026  0.2440  0.0242
18786W        W35047  11.532  12.550   0.870 -0.2112  0.1081 -0.1386
18787W        W35048  14.248   8.524   4.548 -0.0918  0.1696 -0.1625
18788W        W35049  14.949   8.529   5.124  0.1731 -0.4333 -0.2622
18789W        W35050  10.071   6.318   3.492 -0.1562  0.0441  0.1223
18790W        W35051   4.175  10.506  11.781  0.1458 -0.3147 -0.0951
18791W        W35052   3.421  13.865  13.333  0.1453  0.0232  0.0385
18792W        W35053   3.073  14.951   4.634 -0.2126 -0.0050 -0.0232
18793W        W35054  11.665  15.121   1.507  0.1146  0.1506 -0.0886
18794W        W35055  16.448   1.679   5.894 -0.0679 -0.1144  0.0474
18795W        W35056  13.328  11.087   3.686 -0.5994  0.0954  0.0163
18796W        W35057   1.329   2.738   6.511 -0.3582 -0.0322 -0.0135
18797W        W35058   9.657   3.113   4.469 -0.0470 -0.1049  0.0906
18798W        W35059   3.447   6.067   5.074 -0.0090  0.0732 -0.1140
18799W        W35060   3.855   4.648  12.981 -0.0249 -0.1683  0.1090
18800W        W35061   9.212   9.862   1.954  0.1366 -0.0778 -0.6184
18801W        W35062  15.931   2.287   1.426  0.1994  0.0926  0.4745
18802W        W35063   2.062  13.869  14.774 -0.0404  0.0983  0.4047
18803W        W35064  12.259  15.927  15.717 -0.2998  0.0979 -0.2346
18804W        W35065   7.898  14.878   5.746  0.0134  0.1836 -0.0168
18805W        W35066  10.384  16.668   5.294  0.0781 -0.1481  0.2779
18806W        W35067  10.325   6.628   3.153  0.1651 -0.0022  0.1806
18807W        W35068  14.460  15.179  14.087  0.1866 -0.0790 -0.1094
18808W        W35069   0.476  17.784   1.831 -0.2465  0.0212 -0.1092
18809W        W35070   6.214   0.319   5.490  0.0855  0.1907  0.2939
18810W        W35071   8.332   6.342   4.195  0.0150  0.1077  0.1249
18811W        W35072   6.436   3.615   1.666 -0.0545 -0.1508 -0.0690
18812W        W35073   8.457   2.585  16.307  0.0118  0.1002 -0.1610
18813W        W35074  17.645  16.094  15.111 -0.1704 -0.2829 -0.0412
18814W        W35075  14.668   0.031  14.039  0.3162  0.0491 -0.2238
18815W        W35076  12.057   1.831   3.114 -0.0385  0.1854  0.1262
18816W        W35077   5.878  17.459  13.782  0.3147  0.1049  0.1559
18817W        W35078   1.051   3.019   4.372 -0.0949 -0.3196  0.1432
18818W        W35079  10.995  12.765  13.031 -0.1200  0.0822  0.0822
18819W        W35080   3.667   2.044   3.933  0.1678  0.1284  0.1407
18820W        W35081  16.529   5.547   5.103 -0.1147  0.0911  0.1912
18821W        W35082   0.239   2.301  13.585 -0.1455  0.1313 -0.1141
18822W        W35083   1.831   1.975   1.674 -0.2639  0.2982 -0.1217
18823W        W35084  15.401  11.306  12.908 -0.0013  0.2474  0.0696
18824W        W35085   8.374   6.629   3.750 -0.3492 -0.0805  0.1623
18825W        W35086  11.546  11.579  16.745  0.0685  0.0494  0.1600
18826W        W35087   9.693   8.336  14.551  0.3050  0.1899  0.0267
18827W        W35088   8.920   8.605  14.794 -0.1169  0.1981  0.1026
18828W        W35089   3.172  15.725  15.196  0.2578 -0.0973  0.3961
18829W        W35090  11.714   7.533   3.566  0.3036 -0.2626  0.3844
18830W        W35091   4.633   7.558   1.086 -0.1662  0.1390 -0.0269
18831W        W35092   3.756  17.280   5.297  0.0402  0.1569  0.1440
18832W        W35093  13.735   4.421  13.173  0.0308  0.0297  0.1778
18833W        W35094   3.970   8.969   5.760 -0.1939 -0.2237 -0.4040
18834W        W35095  16.409   1.305  11.759 -0.3744 -0.0487  0.0831
18835W        W35096  11.608   9.050  12.028  0.0865 -0.0144 -0.1858
18836W        W35097  12.735  11.939  13.371  0.0252  0.0312  0.1578
18837W        W35098  15.594   8.525  15.208  0.1654  0.3102 -0.2701
18838W        W35099  11.583  12.489  12.773 -0.1864  0.3220 -0.0166
18839W        W35100   2.675   6.007  14.100 -0.2344 -0.0599  0.1539
18840W        W35101   4.439  15.478  16.944  0.1689  0.0554 -0.2455
18841W        W35102   1.453   8.596  14.508  0.0238  0.2440  0.2881
18842W        W35103   0.505  13.868   3.488  0.2048 -0.2179  0.1427
18843W        W35104  14.675   4.980  15.687  0.1909 -0.1091  0.1489
18844W        W35105   8.558  17.406   1.076 -0.1419 -0.1020  0.1212
18845W        W35106   5.944   9.419   6.361 -0.1341 -0.0875  0.1861
18846W        W35107  16.991  16.119   3.177  0.2311 -0.0098  0.0584
18847W        W35108  17.638  12.810  16.436 -0.1270 -0.2435  0.3152
18848W        W35109   7.692  12.877  15.701 -0.2109 -0.0958 -0.0670
18849W        W35110   4.691   4.298   2.813 -0.1755 -0.1248  0.2623
18850W        W35111   3.509  17.088   6.077  0.2400 -0.2033 -0.2143
18851W        W35112   7.526   3.900  16.273  0.0301 -0.0404  0.1559
18852W        W35113   5.874  11.344  16.102  0.0832 -0.0299  0.2685
18853W        W35114  12.800   6.903  14.838 -0.0215  0.3394 -0.2623
18854W        W35115  12.970   8.225   1.865 -0.1598  0.0106 -0.2245
18855W        W35116   9.673   7.321  13.746 -0.0012  0.1559 -0.0073
18856W        W35117   2.852  15.421   3.861  0.4819 -0.0848  0.1906
18857W        W35118   1.354   1.801   5.823 -0.2846 -0.2617 -0.0089
18858W        W35119   9.730  10.797  12.223 -0.0074 -0.0217  0.0124
18859W        W35120  11.358   7.547  13.496 -0.1213 -0.2064  0.0885
18860W        W35121   9.656  16.479  12.787  0.0318  0.0329 -0.3429
18861W        W35122   9.657  13.137  16.476 -0.0846 -0.1351 -0.2727
18862W        W35123  10.233   7.747  16.735 -0.3006 -0.0173 -0.1072
18863W        W35124   0.583   0.839  14.012 -0.0788  0.1511 -0.1630
18864W        W35125   1.262   1.780  13.055  0.2763 -0.2866  0.1421
18865W        W35126  12.239  14.447   3.161 -0.2238  0.0144  0.0221
18866W        W35127   4.141   4.818   5.018 -0.0479 -0.1325  0.1429
18867W        W35128  16.958   0.835   1.044 -0.0024 -0.4027 -0.0188
18868W        W35129  10.395  12.001   0.190  0.2633  0.0556 -0.3493
18869W        W35130   7.438   5.763  15.374 -0.0636 -0.0497 -0.1440
18870W        W35131   1.587   3.353   3.375 -0.1504  0.0666 -0.2207
18871W        W35132   9.020  12.851   3.717  0.1186 -0.0509  0.1374
18872W        W35133   7.165  10.700   2.576 -0.2860  0.0567  0.3421
18873W        W35134   7.730   0.172  14.491 -0.0460 -0.0839  0.2382
18874W        W35135  17.072   8.969  15.483 -0.0491 -0.0376  0.1891
18875W        W35136   2.233   5.544  15.982  0.0918 -0.0573  0.1677
18876W        W35137  14.390  13.195   6.458  0.1544 -0.2637 -0.0197
18877W        W35138  10.377  14.008  12.038  0.1063 -0.1181 -0.1620
18878W        W35139   7.813   6.536  16.270 -0.1170  0.1158 -0.0632
18879W        W35140  10.979   3.820   1.020 -0.0426 -0.0537 -0.0885
18880W        W35141  12.997  17.596   5.546 -0.0795 -0.0108  0.3820
18881W        W35142   8.923   1.663  14.820  0.0624 -0.2822  0.0598
18882W        W35143  10.534   8.971  14.977 -0.3344 -0.1231  0.1143
18883W        W35144   6.469  15.217   5.818  0.0191  0.1344  0.0307
18884W        W35145   6.542   4.661  16.000  0.1673 -0.0836  0.0177
18885W        W35146  12.969   7.906   3.568 -0.1936  0.1486 -0.1477
18886W        W35147   9.941  10.478   3.612  0.0490  0.3309  0.0850
18887W        W35148   7.522  15.031   1.823  0.2409 -0.1653 -0.2128
18888W        W35149  16.748   6.891   3.162 -0.1337  0.1929  0.0238
18889W        W35150   3.834  13.311  14.079  0.1380  0.1506 -0.1020
18890W        W35151   9.972  15.432   1.239  0.2025  0.0460 -0.1038
18891W        W35152   4.246  11.777   0.377  0.2977  0.0588  0.0555
18892W        W35153   2.752  12.473   3.983 -0.1965 -0.0549 -0.0068
18893W        W35154  15.474  17.073   5.099 -0.2402 -0.1840 -0.4075
18894W        W35155   0.943  14.273   3.475  0.3076 -0.2403 -0.4615
18895W        W35156   0.082   3.150   2.714  0.2465 -0.2288  0.0551
18896W        W35157   5.615  11.425  15.344 -0.0636  0.0074  0.0949
18897W        W35158   3.026   9.819  12.480  0.0583 -0.2942 -0.3093
18898W        W35159  14.786   8.202   5.480 -0.2265 -0.1264 -0.1689
18899W        W35160  13.315   6.330  13.823  0.2471 -0.1104  0.0301
18900W        W35161  13.898   5.851   3.566 -0.2301  0.1234 -0.1863
18901W        W35162  16.049   5.844  13.778  0.0087  0.0126 -0.1992
18902W        W35163   1.820   8.384   3.036  0.0274  0.1563  0.1310
18903W        W35164  15.859   6.517   4.144 -0.0076 -0.0891  0.0563
18904W        W35165   2.955  11.232   4.064  0.1874 -0.0338 -0.1818
18905W        W35166  12.899  12.846  12.753  0.0349  0.1482  0.3966
18906W        W35167   1.334   9.997   5.419  0.0008 -0.2457 -0.0431
18907W        W35168   3.251  10.360  13.938 -0.0119  0.1874  0.1528
18908W        W35169   0.198  11.268  15.955 -0.0233  0.0261  0.2403
18909W        W35170   5.576   1.453  16.850 -0.0419 -0.0977  0.3710
18910W        W35171  10.516   0.876  15.000  0.0768 -0.2112 -0.0382
18911W        W35172   2.103  12.933  15.400 -0.2421 -0.0270 -0.2699
18912W        W35173   4.607  15.322  11.500  0.3281  0.0359 -0.2506
18913W        W35174  11.354   4.885  14.901  0.2117 -0.2142 -0.1762
18914W        W35175   7.067   5.527  13.920 -0.1908 -0.0639  0.2078
18915W        W35176  15.516  11.680   4.618 -0.1206 -0.0635  0.0719
18916W        W35177   2.027  15.361   2.029  0.1544  0.0309 -0.3185
18917W        W35178   7.165  17.230  13.676 -0.0200  0.4628  0.0062
18918W        W35179  10.675  12.919   1.879 -0.2510 -0.2696  0.0634
18919W        W35180   4.762  14.087   4.328  0.1406  0.1278  0.1962
18920W        W35181   3.456   7.859   5.202 -0.0374 -0.1831 -0.0759
18921W        W35182   7.429   2.797   1.573  0.1827  0.1583  0.3032
18922W        W35183   5.605   1.015   0.257  0.1545  0.0709 -0.0271
18923W        W35184   3.461   3.906  13.946  0.1059  0.0320 -0.0913
18924W        W35185  11.061   5.695  16.832  0.1298  0.2721  0.1578
18925W        W35186   0.060  11.425  15.483 -0.0069 -0.1413 -0.0958
18926W        W35187  17.063  11.907  14.400  0.0891  0.0513  0.1770
18927W        W35188   1.864   9.981   5.537  0.1290 -0.1313  0.4324
18928W        W35189  14.061   3.021  14.019 -0.3045  0.1285 -0.0043
18929W        W35190  10.566  14.270   1.745  0.2166  0.0864 -0.0824
18930W        W35191   8.104   8.547  14.807 -0.1874  0.0402 -0.1161
18931W        W35192  11.611   8.542   4.867 -0.1205  0.1694 -0.3856
18932W        W35193  15.869   0.396   2.933  0.0146 -0.1593  0.1984
18933W        W35194  10.196  15.656  13.980 -0.0045  0.2444  0.2358
18934W        W35195   8.645   9.232  12.322 -0.0236  0.1026  0.0546
18935W        W35196   9.347  10.405  13.626 -0.0019 -0.1378  0.2792
18936W        W35197  13.676  16.537  15.085  0.3802  0.2281 -0.2410
18937W        W35198   6.095   6.458   3.265 -0.0560  0.0182  0.0006
18938W        W35199  16.472   2.600  12.057  0.1537 -0.1863  0.0194
18939W        W35200   6.703   0.444   4.809 -0.1761 -0.2179  0.1924
18940W        W35201   0.687  15.631  14.399  0.1661  0.1185 -0.0272
18941W        W35202   1.180   4.969  16.535 -0.0867 -0.1026 -0.0592
18942W        W35203  16.273   1.439   5.533  0.0566 -0.0116  0.1347
18943W        W35204   8.426  15.243  12.794 -0.0681  0.0222  0.1233
18944W        W35205   9.847   8.435  16.855  0.0666  0.0582 -0.3134
18945W        W35206   5.498  12.546   0.688  0.0334  0.0347  0.1565
18946W        W35207  12.906   3.872  15.741  0.0369 -0.0451 -0.1163
18947W        W35208   8.412  10.406   4.390 -0.3075  0.0628  0.3284
18948W        W35209  17.702   6.320   4.546 -0.0660 -0.1029  0.1524
18949W        W35210  13.722  10.514   1.722 -0.0574  0.0734  0.1114
18950W        W35211   7.373  17.719   2.593 -0.0996  0.1986  0.0067
18951W        W35212   2.022  12.371  12.460 -0.2518 -0.0653  0.0060
18952W        W35213   9.077   3.546  15.732  0.0411 -0.0086 -0.0945
18953W        W35214  13.327  16.804   1.078 -0.0647  0.5947  0.1395
18954W        W35215   2.583  11.616   2.880 -0.0971  0.0363 -0.2029
18955W        W35216  11.603   2.147  13.478 -0.0174  0.1483  0.2559
18956W        W35217   0.926  15.223   1.666 -0.3794  0.2030 -0.0950
18957W        W35218  10.713  17.422   0.035  0.0533  0.2430 -0.0741
18958W        W35219  15.506  15.161   3.091 -0.1913  0.2759 -0.0234
18959W        W35220   1.061   3.046   2.840 -0.3186  0.2020  0.5056
18960W        W35221  16.621   0.903  12.982  0.1654 -0.0672  0.0255
18961W        W35222   3.799   1.206   4.549  0.2838 -0.0324  0.2486
18962W        W35223   3.699   5.904   5.891 -0.0237  0.1174 -0.2518
18963W        W35224  10.851  11.358   2.346 -0.2169  0.1664 -0.2142
18964W        W35225   8.627  15.111  12.347  0.1245 -0.0848 -0.0038
18965W        W35226   8.875   5.896   1.530 -0.0774  0.1218 -0.1907
18966W        W35227  17.702   9.612   4.787 -0.0640 -0.1328  0.0649
18967W        W35228  16.817   5.760  10.975 -0.1552  0.2636  0.0178
18968W        W35229   1.712  14.428  15.681 -0.0573  0.4788 -0.2494
18969W        W35230   1.671  15.148   1.087  0.2661 -0.1055 -0.1798
18970W        W35231   0.027  14.534   0.539  0.1989  0.4067 -0.1455
18971W        W35232  15.955   1.932   3.444 -0.1476 -0.0876 -0.2575
18972W        W35233   3.856   6.877   6.239 -0.0565 -0.1219  0.0737
18973W        W35234   1.653   7.993   5.909  0.0466  0.1493 -0.2078
18974W        W35235   2.177  15.114   2.990  0.0480  0.0377 -0.2314
18975W        W35236  11.753   6.037   5.794  0.3579  0.0292  0.0498
18976W        W35237   7.862   1.310   2.519  0.0533 -0.0585 -0.0007
18977W        W35238   4.263  16.315   3.816  0.0064 -0.0369 -0.1447
18978W        W35239  12.056  10.789   5.230 -0.1087  0.3945  0.1827
18979W        W35240   6.402  11.589  13.539 -0.1633  0.3214 -0.2802
18980W        W35241   1.932   1.213  16.383  0.0345  0.1978 -0.2854
18981W        W35242   0.539  13.856  16.895  0.2816 -0.0312  0.1425
18982W        W35243   0.892  15.561  15.470 -0.2471  0.0629  0.0237
18983W        W35244   7.707   2.528  12.862 -0.1561  0.3947 -0.0346
18984W        W35245  14.875   3.071   4.745  0.3009  0.0113  0.1689
18985W        W35246   8.215  16.866   5.474  0.1862  0.0150  0.5232
18986W        W35247  12.125  13.173   2.008 -0.2075  0.2693 -0.1346
18987W        W35248   7.504   0.588   3.715 -0.2772  0.0076  0.1275
18988W        W35249   7.876   5.903  14.510  0.0308  0.1483  0.0700
18989W        W35250   9.220  11.771  11.189  0.1502  0.1610  0.2332
18990W        W35251  12.758   0.396   4.687  0.1354  0.0317  0.0632
18991W        W35252  16.157  17.805  14.386  0.3064 -0.1003  0.1114
18992W        W35253   7.202   7.340   0.722  0.4283  0.2256 -0.0511
18993W        W35254  17.080   0.586  13.123  0.3709  0.1615 -0.0144
18994W        W35255   7.187  12.015   2.595 -0.2119 -0.1889  0.0281
18995W        W35256  13.568   0.279  12.531  0.3301  0.2112 -0.0753
18996W        W35257   5.437   3.818   3.692  0.1835  0.2598  0.1351
18997W        W35258  15.015   1.769  14.996  0.0394 -0.1135  0.0993
18998W        W35259  13.674   4.424  13.763  0.0344 -0.2034  0.0581
18999W        W35260   7.456   7.748   4.212 -0.3937  0.0406 -0.0544
19000W        W35261  14.939   6.718   1.924 -0.0984  0.0937  0.1064
19001W        W35262  12.852   0.622   0.022 -0.0833 -0.1527 -0.0152
19002W        W35263   8.690   6.892  14.264 -0.0891  0.1873  0.3073
19003W        W35264   4.747   9.535   0.002  0.0334  0.0469  0.1639
19004W        W35265  12.525   5.182   2.701  0.0497  0.2673 -0.3363
19005W        W35266  10.202  13.699  16.729  0.1226  0.0329  0.0197
19006W        W35267  13.366   1.410  15.296 -0.1863  0.3188 -0.1175
19007W        W35268  16.394   9.443   2.385 -0.2035 -0.1557 -0.2334
19008W        W35269   8.575   0.831   1.345  0.1617  0.3078 -0.3410
19009W        W35270   9.848  13.085   4.205 -0.1958  0.1869  0.0369
19010W        W35271   6.450   8.137  13.253 -0.2358 -0.1688 -0.1239
19011W        W35272  14.044   8.936  13.127 -0.2063  0.0999  0.2152
19012W        W35273   8.312   1.784   1.574 -0.2005 -0.1984 -0.2780
19013W        W35274  17.834   4.502   4.747 -0.3171 -0.1671 -0.1292
19014W        W35275   8.381  17.459   0.611  0.0691 -0.0740  0.0919
19015W        W35276   1.777   5.334   1.132  0.0633 -0.2249  0.2850
19016W        W35277  16.182   0.748  12.745  0.0891  0.2101 -0.1624
19017W        W35278   6.496   0.670   1.675  0.1299 -0.1082  0.3252
19018W        W35279  16.351   1.221   1.841  0.1227  0.0225  0.0960
19019W        W35280   3.003  14.439   4.399 -0.1751 -0.1924  0.0809
19020W        W35281  10.509   2.143   2.799 -0.0468 -0.0742  0.1035
19021W        W35282   3.212  14.969   0.532  0.1842 -0.1796 -0.1849
19022W        W35283   9.546   0.816   1.702  0.2281  0.0218 -0.0807
19023W        W35284  10.227   9.447  13.789  0.1589  0.0103 -0.2443
19024W        W35285   2.459  14.528   3.609 -0.0132 -0.2154  0.3168
19025W        W35286   6.732   4.516   3.937  0.1167  0.0425 -0.2189
19026W        W35287  10.304   1.390  13.132  0.0759  0.0647  0.3736
19027W        W35288   7.387  15.045   3.117  0.1544  0.1162 -0.0846
19028W        W35289   7.929   7.810   0.148  0.0173 -0.1840 -0.3641
19029W        W35290  15.180   7.897   5.405 -0.1885  0.3166 -0.0272
19030W        W35291  16.644  12.208   5.795 -0.1384 -0.0085 -0.0176
19031W        W35292   9.208   8.493  11.961  0.0340  0.1488 -0.1746
19032W        W35293  15.622  16.584   5.035 -0.0199 -0.0738 -0.1272
19033W        W35294   1.105   6.391  13.566 -0.1151  0.1125  0.1156
19034W        W35295  12.537   2.441  13.945 -0.1531  0.2608  0.1034
19035W        W35296  13.668  15.350   1.235 -0.2601  0.1717  0.2041
19036W        W35297  10.943  15.172  13.523  0.1436  0.2057  0.0625
19037W        W35298  16.468   8.183   2.531 -0.1271 -0.1349 -0.1555
19038W        W35299  16.921   9.856   3.883  0.3695  0.3518 -0.4013
19039W        W35300  17.437  16.012  14.632 -0.0866 -0.0354  0.1129
19040W        W35301   9.296   7.441   4.143 -0.2408  0.0807 -0.1287
19041W        W35302   5.099  14.566  15.935 -0.1243 -0.1012  0.0721
19042W        W35303   8.109   8.290   5.134  0.1303 -0.0361  0.0506
19043W        W35304  14.962   6.164  14.972  0.2405 -0.0288 -0.2606
19044W        W35305  13.974   8.142  13.386 -0.2215  0.0547 -0.0859
19045W        W35306   3.093   9.839  12.967  0.0070  0.2835 -0.0777
19046W        W35307  17.574  15.178  11.526 -0.0756  0.1230  0.1212
19047W        W35308  10.291   7.110   2.802  0.3241 -0.3372  0.3245
19048W        W35309   2.962  14.743  15.569 -0.3890  0.1768 -0.3820
19049W        W35310  11.017  12.573   1.038 -0.0953  0.1480 -0.0261
19050W        W35311  17.329   7.330   2.526  0.2940  0.0284 -0.1491
19051W        W35312  16.675   2.673  14.339 -0.0815  0.2645  0.1181
19052W        W35313  11.671  14.951  14.092 -0.3924 -0.0087  0.0385
19053W        W35314   6.519   4.097  16.655  0.2070  0.2180 -0.1392
19054W        W35315   3.633  14.178  15.380 -0.2003 -0.0223 -0.1260
19055W        W35316  13.679  15.246   4.748 -0.1449  0.1628 -0.1356
19056W        W35317  10.708   1.735  11.674  0.2799  0.0781  0.3930
19057W        W35318   4.694   8.669   4.720 -0.0275  0.4377  0.1013
19058W        W35319   0.437   8.923  11.773  0.4616 -0.0515  0.0359
19059W        W35320  12.201  17.703   2.357 -0.1990  0.3415  0.0700
19060W        W35321  15.413  17.849   4.581  0.0041 -0.2355 -0.0351
19061W        W35322  16.973   2.376  15.929 -0.0047  0.0977  0.1998
19062W        W35323  11.284  16.485   2.471 -0.0221  0.0265  0.0855
19063W        W35324   1.230  17.310  12.923 -0.1263 -0.2528  0.1571
19064W        W35325  12.790   9.439  12.756 -0.0281 -0.2846 -0.2146
19065W        W35326   2.311  14.511   2.188 -0.1392 -0.0231  0.2594
19066W        W35327  17.410   2.455  12.483 -0.1518  0.0996 -0.0297
19067W        W35328   3.664  12.283   0.934  0.1183  0.2166 -0.0751
19068W        W35329  10.250   2.023  14.669 -0.3734  0.0093  0.0976
19069W        W35330   9.813  14.827   2.092  0.1268 -0.0028  0.0272
19070W        W35331  11.903   2.300  15.825  0.1099  0.1509 -0.2807
19071W        W35332   1.614  16.554  13.722  0.1267  0.1165  0.0939
19072W        W35333   9.211   2.688   5.079  0.1635 -0.1618  0.1831
19073W        W35334   0.302   6.184   2.102 -0.1668  0.0414  0.3863
19074W        W35335   0.738   7.499  16.716  0.2631 -0.1270  0.1347
19075W        W35336  10.538  13.326  16.660 -0.2006  0.1486 -0.1564
19076W        W35337   0.857  12.699  15.242  0.3462 -0.0351 -0.0214
19077W        W35338  13.064  14.834  16.636  0.0701  0.3808 -0.0379
19078W        W35339   2.384  11.421  14.527  0.2194  0.0183  0.2892
19079W        W35340   9.331   8.929  13.936  0.1095  0.1536  0.0934
19080W        W35341   8.667   0.280   4.218 -0.1166 -0.0564  0.0402
19081W        W35342   1.659   4.343  13.668 -0.0100  0.1390 -0.1761
19082W        W35343   7.165  14.825  12.403 -0.0484  0.1259 -0.1352
19083W        W35344   9.346   6.177   5.741  0.2597 -0.0166 -0.1767
19084W        W35345  15.480   3.622  12.755 -0.0364 -0.2085 -0.2041
19085W        W35346  11.308   5.455  15.872  0.0031 -0.2342  0.3226
19086W        W35347   6.007   6.543  14.142 -0.0447 -0.1691 -0.6030
19087W        W35348  16.234   5.941  15.322 -0.0806 -0.0512  0.0907
19088W        W35349   7.338   5.907   6.310  0.0759 -0.0579  0.0066
19089W        W35350   8.655   4.773  12.464  0.1235  0.0341 -0.0712
19090W        W35351   3.916   7.554   0.176  0.2354 -0.0097  0.1312
19091W        W35352   6.521   5.566   1.652 -0.0562  0.1909 -0.0764
19092W        W35353   3.884  16.649  13.290 -0.2202  0.0939 -0.2563
19093W        W35354   4.492   2.789   2.738  0.2256  0.3259  0.4116
19094W        W35355  12.395   3.321   5.477  0.0883 -0.1295  0.2474
19095W        W35356  17.550  15.117  15.368 -0.2723 -0.2664 -0.0461
19096W        W35357  14.055   7.369  15.967 -0.0484  0.0282  0.0180
19097W        W35358  12.540  15.208  16.403 -0.2696  0.0761  0.1467
19098W        W35359  14.656  10.041   3.712  0.3107 -0.0778  0.1285
19099W        W35360   6.569   0.766  14.006  0.0613  0.1576  0.0076
19100W        W35361   6.562   9.094   0.053 -0.3012  0.0562  0.2522
19101W        W35362   9.679   0.393   1.904 -0.1337  0.0172  0.1080
19102W        W35363   1.582  16.592   1.179  0.1238 -0.1092  0.0101
19103W        W35364  16.779   7.446   2.674 -0.0139 -0.2811 -0.1074
19104W        W35365   3.913   0.420   5.850 -0.1788  0.3191  0.1985
19105W        W35366  17.856   7.620   5.568  0.0447 -0.3011  0.0048
19106W        W35367   9.155  13.535  16.472 -0.0910  0.2869 -0.4931
19107W        W35368   8.596  17.812  13.186  0.1290  0.1124  0.2888
19108W        W35369  12.697   2.597  15.632 -0.1641 -0.0715 -0.3280
19109W        W35370   4.160  17.796   4.350  0.1930 -0.3381 -0.1572
19110W        W35371   5.521  14.882   2.954 -0.1513  0.1698  0.0810
19111W        W35372   9.247  10.510   2.982  0.0246 -0.1686  0.0587
19112W        W35373  11.044  12.479   5.071 -0.1130  0.2020 -0.3369
19113W        W35374  15.304   9.395  15.546  0.0363  0.1511  0.1991
19114W        W35375   3.427  13.406   2.394  0.0307  0.1709 -0.2142
19115W        W35376   5.145   4.013  15.185 -0.1224  0.0301  0.0325
19116W        W35377   3.138  13.179  16.229  0.2425 -0.0729 -0.2781
19117W        W35378   1.445   3.888  13.756  0.2697  0.0592 -0.0780
19118W        W35379   7.882   3.167   4.020 -0.2664 -0.1020 -0.1393
19119W        W35380   7.734   6.522   2.538 -0.0247  0.0752  0.0333
19120W        W35381   8.865  14.688   2.335 -0.2617 -0.0893  0.1756
19121W        W35382   6.630   8.954  12.118 -0.1041  0.0220 -0.1066
19122W        W35383  16.161  10.202  16.581 -0.2912 -0.3694  0.0471
19123W        W35384  13.934   9.963  13.396  0.6385 -0.0391  0.0501
19124W        W35385   5.416  14.171   5.440 -0.2100  0.1855  0.1075
19125W        W35386   1.748   5.769   1.472 -0.1151  0.2989 -0.1952
19126W        W35387   1.569   1.540  14.895  0.1212 -0.0109 -0.1154
19127W        W35388   5.418   9.094  16.501 -0.1107 -0.1969 -0.1122
19128W        W35389   8.770  11.511  13.471 -0.0683  0.1231  0.0059
19129W        W35390  13.076   0.833   3.967  0.0514  0.0936  0.0833
19130W        W35391  16.438  13.420  16.538 -0.0301 -0.0500 -0.2192
19131W        W35392   8.316   4.265  13.728 -0.0053 -0.0825  0.1208
19132W        W35393   9.950   8.981  11.925  0.0012  0.0219 -0.0714
19133W        W35394  16.287   5.902  15.839  0.0291 -0.0040  0.0875
19134W        W35395  10.412   0.081   5.109  0.2424  0.1878 -0.2274
19135W        W35396  16.513   7.082   4.458  0.1504  0.1516 -0.0385
19136W        W35397   2.025   0.462  12.462  0.2357  0.0328  0.2070
19137W        W35398   2.863   1.900   4.334  0.0175 -0.4305 -0.0595
19138W        W35399  16.639   9.843   0.177 -0.0332 -0.0312  0.1117
19139W        W35400  14.332  16.996  15.572  0.1061 -0.3534  0.2701
19140W        W35401   1.591   8.764  16.077  0.0538  0.0776 -0.0096
19141W        W35402  13.208   3.114   5.277 -0.2964 -0.0839  0.2569
19142W        W35403   8.002  13.714  14.672 -0.1013  0.2846  0.0103
19143W        W35404  10.330   8.897  14.021 -0.1310 -0.1878  0.2121
19144W        W35405  12.456   5.223  12.778  0.0997 -0.0333 -0.1379
19145W        W35406   1.552   3.747   1.491  0.0276  0.0144 -0.3587
19146W        W35407   2.789   1.428  14.719  0.2529  0.1507 -0.0137
19147W        W35408   1.842   9.675  16.205  0.1234  0.0910  0.0884
19148W        W35409  15.916   2.796  12.490 -0.1521  0.0412 -0.1934
19149W        W35410  11.127   9.630   1.794  0.1044 -0.2001  0.1680
19150W        W35411   8.447  12.055  11.828 -0.1450 -0.1022  0.0273
19151W        W35412   3.068  12.120  15.708  0.0559 -0.2634 -0.1473
19152W        W35413   1.042   1.893  12.602  0.0819  0.0750  0.2009
19153W        W35414  15.190  16.456   0.655 -0.0013  0.2158  0.0091
19154W        W35415  17.768   1.393  13.010 -0.0448 -0.2238  0.2485
19155W        W35416  12.864   7.234   5.651 -0.0056  0.0825 -0.0458
19156W        W35417   7.987  14.155  15.336  0.0756 -0.3132 -0.2061
19157W        W35418  16.980   6.651   1.726  0.1462  0.0164 -0.2074
19158W        W35419  11.980   2.541  14.277  0.3437  0.0746  0.0635
19159W        W35420   1.473   5.262   0.044 -0.2497  0.0625 -0.1523
19160W        W35421   0.275  17.541  15.842 -0.2792 -0.0623 -0.1038
19161W        W35422  12.518   1.800  14.202  0.1172  0.2709 -0.0811
19162W        W35423  11.797   5.491  15.649 -0.2377 -0.1120 -0.0307
19163W        W35424   1.376   4.634   3.910  0.1075  0.1039  0.1697
19164W        W35425  17.725   0.031   4.360  0.1139 -0.1168 -0.2194
19165W        W35426   0.747   8.029   0.449  0.0047  0.0751  0.0712
19166W        W35427  14.429   2.311   1.050  0.2692 -0.3430  0.0235
19167W        W35428   3.890   9.421  12.515 -0.0327 -0.3204 -0.0710
19168W        W35429  15.403   9.180   2.442  0.0685  0.1546 -0.1198
19169W        W35430  16.784   9.513   2.805  0.0534  0.0759 -0.2205
19170W        W35431   2.170  14.048  13.072 -0.0030  0.2979  0.0227
19171W        W35432   3.240  11.486   2.253  0.1546  0.0351  0.0678
19172W        W35433   7.501   6.777  15.244  0.0413  0.2708 -0.1694
19173W        W35434   5.044  13.875   4.702 -0.2540 -0.0884  0.1890
19174W        W35435  13.509  16.185  12.655 -0.1551 -0.1985 -0.0692
19175W        W35436   2.726   0.407  16.641 -0.0965  0.1620 -0.0580
19176W        W35437   1.508   6.045  16.948  0.0280  0.0945 -0.0693
19177W        W35438  15.497   1.651   3.254  0.0280  0.2196 -0.2686
19178W        W35439   3.395   3.339  12.186 -0.1243  0.0320 -0.0876
19179W        W35440   3.876  16.051   0.264  0.0101  0.0133  0.0514
19180W        W35441  13.161  17.443   1.574  0.2246  0.2621 -0.0057
19181W        W35442   5.911   7.924   3.805 -0.0055  0.2675  0.1505
19182W        W35443   4.904  16.407   5.454 -0.0381  0.1244 -0.0903
19183W        W35444   8.797   9.531   5.665  0.3849 -0.0197 -0.1044
19184W        W35445   4.933   3.992  13.905 -0.2723 -0.2356 -0.0118
19185W        W35446   5.770  10.728  13.226  0.1194  0.1632 -0.1059
19186W        W35447   0.204   9.582   3.781 -0.3022  0.0993 -0.0530
19187W        W35448   2.029   2.578  14.331 -0.1433  0.2079  0.1250
19188W        W35449   9.468  14.498   2.342 -0.1988 -0.1488 -0.2335
19189W        W35450   1.060   2.640   3.293  0.1169 -0.1337 -0.1338
19190W        W35451   9.780  14.086   3.676  0.0691 -0.0263 -0.1939
19191W        W35452   0.803  12.600   2.707  0.1702  0.0758 -0.1014
19192W        W35453   8.589   8.353   6.565  0.1274 -0.1022  0.1821
19193W        W35454  13.387  12.076   4.268 -0.0332 -0.1398 -0.1758
19194W        W35455   3.719  16.736  11.971 -0.4536 -0.5114  0.3277
19195W        W35456   1.294  15.239   0.646  0.0550  0.1506  0.0686
19196W        W35457  11.170  11.593   2.729  0.0327  0.1134  0.0698
19197W        W35458   5.248   4.382  16.852  0.4002 -0.0361  0.0296
19198W        W35459   0.542   2.167  16.141  0.3488 -0.2170 -0.0486
19199W        W35460   0.756   0.553   2.370  0.0588  0.0673 -0.1421
19200W        W35461   9.096   8.683   4.631  0.0884 -0.2068 -0.1217
19201W        W35462  10.814  15.639   4.389  0.0289 -0.1177 -0.1780
19202W        W35463   8.480   2.096  13.535 -0.2078 -0.0533 -0.0138
19203W        W35464   9.439   7.712   3.699  0.0456 -0.0668 -0.0672
19204W        W35465  11.804  11.431   5.695  0.1150 -0.2852 -0.2761
19205W        W35466  14.850  17.174   1.139 -0.0352 -0.0764 -0.0936
19206W        W35467  13.811  11.937   0.361  0.0271 -0.0535  0.1229
19207W        W35468   4.947   7.210   4.645  0.0359 -0.3094  0.0866
19208W        W35469   7.093   7.132   5.154  0.0594  0.1987  0.1590
19209W        W35470   9.442   9.774  11.955 -0.2046  0.0348  0.0697
19210W        W35471  11.359  16.907  11.509 -0.1365 -0.0119 -0.5130
19211W        W35472   0.331   9.721   2.796 -0.2803 -0.2530 -0.0841
19212W        W35473  13.883  13.667  12.408 -0.0962  0.1609 -0.0151
19213W        W35474  17.826  11.784   0.771  0.0524 -0.0477 -0.0483
19214W        W35475   6.203  16.285   6.150  0.0089  0.0485 -0.0102
19215W        W35476  10.283  10.266   4.925 -0.3177  0.0587 -0.0709
19216W        W35477   3.020   0.945  14.071 -0.2110 -0.2876 -0.2487
19217W        W35478   5.978  12.193   0.891  0.1594  0.0832  0.1252
19218W        W35479   0.930  15.128   0.123 -0.2282  0.0119  0.0050
19219W        W35480   2.635   1.284  13.428  0.0174  0.3072  0.2475
19220W        W35481   6.209   9.930   2.709 -0.2210  0.1710  0.0571
19221W        W35482   5.354   5.843   0.136 -0.1443 -0.1524  0.0076
19222W        W35483   6.533   7.799   5.438  0.1705 -0.0247 -0.3302
19223W        W35484   7.714   1.229  13.397  0.1267  0.2276  0.3096
19224W        W35485   4.956   5.047  15.487 -0.1669  0.3466  0.1125
19225W        W35486  15.734  14.591   0.829 -0.3355 -0.0632  0.1979
19226W        W35487   4.434   4.372   1.979 -0.2114  0.0782  0.0135
19227W        W35488   3.760  16.987   0.847  0.0524  0.2492  0.1726
19228W        W35489   2.827  17.187  12.983  0.0364 -0.1941 -0.1925
19229W        W35490   2.027  16.258   2.118  0.0632  0.0482 -0.1402
19230W        W35491   3.893   2.318  13.605 -0.2807  0.1353  0.0112
19231W        W35492   2.175   4.973  14.456  0.0666 -0.1079  0.1323
19232W        W35493  16.046  16.456   5.385 -0.0139  0.1401  0.0096
19233W        W35494   0.483  11.578   3.013 -0.1658 -0.1661  0.1918
19234W        W35495   3.810   2.481  14.074  0.0907  0.0331  0.2803
19235W        W35496  11.796  12.210  14.700  0.0680 -0.2210  0.0732
19236W        W35497  14.893  10.509   5.106  0.2205 -0.1377  0.0187
19237W        W35498   9.828  17.431  16.194 -0.0586  0.2304 -0.0564
19238W        W35499   7.200   1.596  12.180  0.1393  0.1119  0.0588
19239W        W35500   4.311   8.421   0.231  0.1059  0.1004 -0.0630
19240W        W35501   8.102   3.580  15.561  0.0220  0.0935  0.1392
19241W        W35502   8.397  12.219  15.366 -0.3947 -0.0219  0.1738
19242W        W35503  12.847  12.063   0.666  0.0830 -0.1409 -0.0329
19243W        W35504  13.562   8.034   0.644 -0.0062  0.0323  0.1350
19244W        W35505  12.188   6.918  13.818 -0.1599 -0.0005  0.4576
19245W        W35506   7.827  17.569   4.092 -0.0692 -0.1524 -0.3641
19246W        W35507   5.197  13.483  12.546 -0.1917 -0.1519  0.0952
19247W        W35508   5.277  14.663   0.498  0.0110 -0.0803 -0.1388
19248W        W35509  17.425   6.355  11.915  0.0418  0.1752 -0.0061
19249W        W35510   3.435  14.167  12.429  0.0807  0.1928 -0.0411
19250W        W35511  13.390   1.221  14.299 -0.0998 -0.4841  0.1263
19251W        W35512  11.400   0.585  16.025 -0.0375 -0.1445 -0.1443
19252W        W35513   9.463   8.546  13.575  0.4135 -0.3568 -0.1036
19253W        W35514   2.569   6.586  10.849 -0.0269  0.2757  0.1258
19254W        W35515   2.839   2.711   3.670  0.1577 -0.2455  0.1320
19255W        W35516  13.753  15.866  13.442  0.0859 -0.1959  0.0693
19256W        W35517  10.080  15.101   3.366  0.2345  0.2762 -0.0688
19257W        W35518  15.022   9.293  13.528  0.4117 -0.0212  0.0327
19258W        W35519   8.485   8.931   0.003 -0.0435  0.1724  0.0218
19259W        W35520   9.622  14.555  14.830  0.1914 -0.1788  0.0875
19260W        W35521   8.221   0.396   0.669  0.1003 -0.0708  0.1316
19261W        W35522   1.167   7.757  13.463  0.1542  0.1490 -0.0699
19262W        W35523  15.472   1.938   0.753  0.0235 -0.1529 -0.1055
19263W        W35524  13.465   5.848   4.838 -0.1131  0.2414 -0.1214
19264W        W35525   1.861   6.031  12.262 -0.0398  0.2660 -0.1047
19265W        W35526   4.095  11.988  16.963  0.1284  0.3581 -0.1266
19266W        W35527  17.331  12.839  15.665 -0.2701  0.1451 -0.1501
19267W        W35528   8.471  17.660  15.127  0.0131 -0.1698 -0.1515
19268W        W35529   9.926   1.355  13.943  0.3269  0.0831 -0.2395
19269W        W35530   5.892  12.379  13.452 -0.0940 -0.1945 -0.3545
19270W        W35531  16.071   7.800   0.848 -0.3375 -0.1086  0.0768
19271W        W35532   9.029   4.121   4.775 -0.1810 -0.2161 -0.0813
19272W        W35533   4.093  12.544   0.786 -0.1448  0.2131 -0.0012
19273W        W35534  13.284  12.300   1.928  0.1714 -0.1444  0.1552
19274W        W35535  10.076   6.667   5.806  0.0192 -0.0512  0.4926
19275W        W35536   7.322   9.815   2.048  0.2611  0.0813 -0.0122
19276W        W35537   3.509   5.367   3.929  0.0084  0.3328 -0.1112
19277W        W35538   0.471  10.994   0.948  0.0813  0.1618 -0.0930
19278W        W35539  11.900  11.984   4.428  0.2617  0.0439  0.1756
19279W        W35540  13.284  17.756  13.626  0.3113  0.1744 -0.0091
19280W        W35541  10.176   7.445   2.003  0.0575  0.1217 -0.1539
19281W        W35542  10.772  16.270  15.488 -0.2570  0.1564 -0.0944
19282W        W35543  14.476   7.361  16.710 -0.2429 -0.1349  0.1298
19283W        W35544  11.687  12.028  16.823  0.2178 -0.1219 -0.1766
19284W        W35545  11.622  16.149   1.812  0.1110 -0.0180 -0.0025
19285W        W35546  16.952   1.303   3.463 -0.1893 -0.0884 -0.0038
19286W        W35547   4.267   6.128  14.739 -0.1475 -0.2179  0.0682
19287W        W35548   2.116   5.344   4.103 -0.0942 -0.2019  0.0069
19288W        W35549   3.373  14.191   0.533 -0.3108 -0.1417 -0.1414
19289W        W35550   9.300  17.347  16.522 -0.0219 -0.2236  0.2180
19290W        W35551  15.544  13.880  13.954 -0.0441 -0.0150  0.0151
19291W        W35552   1.885   6.988   2.860 -0.1399  0.0927 -0.1294
19292W        W35553  13.932   7.724  13.702  0.2127 -0.2433  0.1814
19293W        W35554  15.969   2.056  15.516  0.0373  0.0366  0.2292
19294W        W35555  16.141   5.827   4.998 -0.2517 -0.3510  0.0019
19295W        W35556   8.035  17.227  11.630 -0.1700  0.1105  0.1415
19296W        W35557  11.139  16.006  11.524  0.1722 -0.0951 -0.1952
19297W        W35558   6.887  13.508  12.050  0.2479  0.0323 -0.1274
19298W        W35559   2.047  11.088  14.696 -0.0820 -0.2479  0.0345
19299W        W35560  15.049  10.224   2.084  0.1367 -0.0380  0.4845
19300W        W35561  13.619  14.114  16.545 -0.2279  0.2512 -0.0455
19301W        W35562  13.847  16.826  16.778 -0.2627  0.2488 -0.0714
19302W        W35563   5.309   6.454  12.640  0.1000 -0.1876  0.0716
19303W        W35564  16.984  13.088   6.105  0.4675 -0.1632 -0.0211
19304W        W35565   3.509   4.387   4.417 -0.2119  0.0893  0.0337
19305W        W35566   5.517   8.766  12.437 -0.0028  0.1938  0.2056
19306W        W35567   2.187  15.853   3.468  0.0699  0.0249 -0.0308
19307W        W35568   0.009   1.377   3.077 -0.2098 -0.0739  0.2881
19308W        W35569   6.512  10.277  15.584  0.1149  0.1904 -0.0958
19309W        W35570   7.414  16.656   5.895  0.3329 -0.3077 -0.2411
19310W        W35571   3.441  17.694  12.575 -0.0079 -0.2711  0.1784
19311W        W35572   4.929  11.373  11.753 -0.2293 -0.1698 -0.1994
19312W        W35573  10.724   6.977  14.772 -0.0037 -0.1232  0.1162
19313W        W35574   8.763  13.577   1.610 -0.2003 -0.3437 -0.1956
19314W        W35575  10.064  11.294   4.172  0.4459  0.2023  0.0112
19315W        W35576   9.742   7.798   2.697  0.1800  0.4445 -0.0825
19316W        W35577   4.269  11.880  11.424 -0.2049 -0.0468 -0.2875
19317W        W35578  13.893   9.882  14.562  0.0488 -0.0351  0.2104
19318W        W35579  11.196   1.291  13.551  0.1606 -0.1173  0.5030
19319W        W35580   4.426  10.309  16.596  0.1225  0.0206 -0.1923
19320W        W35581   2.942   8.874  14.348  0.1980 -0.1088 -0.0023
19321W        W35582   4.035  17.183   4.347  0.0806 -0.0740  0.1934
19322W        W35583   9.993   5.927  12.164  0.1690  0.0069 -0.1896
19323W        W35584  16.436  11.885   2.992 -0.2740  0.1267  0.0728
19324W        W35585  13.677  13.394   0.245  0.1804 -0.1517 -0.0827
19325W        W35586   3.645   5.283  13.881  0.0026 -0.1954 -0.0013
19326W        W35587  17.531   4.229  14.940  0.1154 -0.1302  0.0525
19327W        W35588   4.396   0.588  15.507 -0.1759  0.0060  0.1452
19328W        W35589   9.771   6.714   1.668 -0.1094  0.2449 -0.2176
19329W        W35590   4.761   3.007  12.075  0.0853  0.0108 -0.2365
19330W        W35591  12.526   4.828  12.414 -0.0181  0.1941  0.2964
19331W        W35592  12.898   4.246   1.683 -0.0212  0.1064  0.1818
19332W        W35593   5.032  10.772  11.669 -0.2166 -0.1047 -0.2545
19333W        W35594   5.030   8.672  14.393  0.0924  0.0458  0.3398
19334W        W35595  11.037   8.117  16.050 -0.1274  0.0117  0.1287
19335W        W35596   9.701  11.558   1.436 -0.1349  0.0976  0.0030
19336W        W35597  16.955  16.810   1.641  0.2197  0.0905 -0.0953
19337W        W35598   4.245   0.694  14.554  0.2299  0.1891 -0.3015
19338W        W35599   7.892   4.928   0.526  0.0334 -0.1650 -0.1209
19339W        W35600  12.106  13.380   5.456 -0.1333  0.0831  0.2465
19340W        W35601   2.439   6.855  14.393  0.1794 -0.3702  0.4348
19341W        W35602   3.469  15.870   2.575  0.2893  0.0837 -0.1251
19342W        W35603  17.651  10.850   5.379  0.1965 -0.3079 -0.2320
19343W        W35604  15.236   4.459  12.575  0.0957 -0.1127  0.0147
19344W        W35605  17.428   7.585  13.676 -0.2179  0.2756 -0.2176
19345W        W35606   4.166  17.252  15.518 -0.3886  0.0063 -0.2504
19346W        W35607  14.746  12.861   4.196 -0.0861 -0.2355  0.0267
19347W        W35608  17.453   9.596   0.050 -0.1283 -0.3555  0.1497
19348W        W35609   9.899   3.541  13.062 -0.2325  0.1712  0.2308
19349W        W35610   1.124   7.055  15.855  0.2611 -0.0088 -0.0229
19350W        W35611  13.603   0.867   5.049 -0.1234 -0.0113  0.0373
19351W        W35612   6.096   6.449  15.717  0.0648  0.1027 -0.3290
19352W        W35613   7.120   1.055  16.195 -0.1561 -0.1734  0.0352
19353W        W35614  17.177  12.957  16.206  0.0617 -0.0113  0.1106
19354W        W35615   7.749   8.263  12.491 -0.2134 -0.0780  0.2639
19355W        W35616  16.811   1.387   0.876 -0.2934  0.0674 -0.2320
19356W        W35617   8.751   9.921   1.546 -0.1111 -0.0971 -0.0724
19357W        W35618   3.512  11.562  13.055 -0.0114 -0.1063  0.1471
19358W        W35619  11.829  14.052   5.124 -0.0227  0.1291 -0.0766
19359W        W35620   3.158  11.094   5.344 -0.1107 -0.1972 -0.3032
19360W        W35621   8.245   9.698  14.600 -0.1680  0.0957  0.1322
19361W        W35622  11.883   6.117  16.755  0.0867 -0.0278 -0.1134
19362W        W35623  14.462   2.375   1.680  0.1320  0.0614 -0.1954
19363W        W35624   9.216   1.808  13.880 -0.1095 -0.0354 -0.0519
19364W        W35625   9.288   0.555  16.819  0.4843 -0.1208 -0.0419
19365W        W35626   4.474   0.120   2.199  0.2173  0.1175 -0.2221
19366W        W35627  13.881   2.393   1.774 -0.0458 -0.0690  0.0251
19367W        W35628  13.794  12.361  15.586  0.1561  0.1228 -0.1978
19368W        W35629   2.568   9.416   5.605 -0.2337 -0.2197  0.1791
19369W        W35630  14.751  12.030  14.797  0.1270 -0.0334 -0.1568
19370W        W35631  17.629   5.046   3.908  0.2034  0.0267 -0.1835
19371W        W35632   4.648   1.686  13.479  0.1961 -0.1557 -0.1690
19372W        W35633  13.005  12.641   1.290 -0.1133 -0.0330  0.0367
19373W        W35634   8.818  11.899  15.400  0.1088  0.0788 -0.0011
19374W        W35635   7.643   6.360  10.654 -0.0298  0.1753  0.0164
19375W        W35636   7.391  12.864  14.792 -0.0263 -0.2846 -0.2889
19376W        W35637   7.392  15.584   4.065 -0.1262 -0.0358  0.0246
19377W        W35638  15.278   3.008   1.840  0.2787 -0.1142 -0.2294
19378W        W35639  16.548   9.015  12.263  0.2090 -0.0711  0.1469
19379W        W35640  17.055  11.398  14.431 -0.0523 -0.1334  0.0363
19380W        W35641  12.944  17.424  12.865  0.1989 -0.0777  0.1336
19381W        W35642  14.079  11.755  14.944  0.0935 -0.1971  0.1540
19382W        W35643  14.266  10.157   5.533 -0.2159  0.1777  0.1976
19383W        W35644  11.689  11.626  11.664  0.1902  0.4724  0.0062
19384W        W35645   1.582   1.066  16.715  0.1303  0.3205  0.0103
19385W        W35646   4.026   7.767  14.541 -0.0840 -0.0320  0.1052
19386W        W35647   8.199   5.040   0.947  0.0701  0.0165  0.4761
19387W        W35648   7.081  11.485  15.842 -0.0099 -0.0625  0.0229
19388W        W35649  11.424   3.457  16.069 -0.2238 -0.1215  0.2038
19389W        W35650  13.410  14.324   3.218 -0.1213 -0.2869 -0.0928
19390W        W35651  16.809  11.873  12.677  0.0716  0.0202 -0.1980
19391W        W35652   7.322  11.770   6.076  0.1137  0.0676  0.1222
19392W        W35653   6.750  15.971   0.705  0.1049 -0.3761  0.3445
19393W        W35654   5.727  16.469  15.382  0.0735  0.0625 -0.2899
19394W        W35655   6.558  16.523   3.666  0.0650 -0.0422 -0.3305
19395W        W35656   2.285   4.664  12.273 -0.0924 -0.0336  0.2624
19396W        W35657  14.656  17.606  16.594 -0.0338 -0.1292  0.0163
19397W        W35658  10.890   6.852   2.991 -0.1294 -0.1132 -0.0308
19398W        W35659   3.492  13.380  14.448  0.0977 -0.1510  0.1847
19399W        W35660  16.813   9.539  16.221 -0.0517  0.0843 -0.2777
19400W        W35661   0.594   8.490  13.064 -0.0551  0.1947 -0.0445
19401W        W35662   4.671   7.808   5.794  0.0464  0.2734  0.2816
19402W        W35663   3.408  16.194   5.523  0.0681 -0.0219  0.0860
19403W        W35664   2.030  16.344   3.399  0.0366 -0.0418  0.1852
19404W        W35665  11.093  17.534  16.270  0.1197  0.2209  0.0333
19405W        W35666  12.996  16.753   5.749 -0.1610 -0.0976 -0.2337
19406W        W35667   5.432   3.609   0.967 -0.1969  0.0086 -0.1541
19407W        W35668   0.475   1.071  14.436 -0.0521  0.0210  0.2733
19408W        W35669  11.997   9.747   3.375 -0.3478 -0.2138 -0.2936
19409W        W35670  17.387   3.487   5.481  0.0200 -0.1137 -0.2344
19410W        W35671  17.428  12.588   2.019  0.0133 -0.2158  0.1734
19411W        W35672   6.525  16.215  15.486  0.0691  0.0792 -0.0554
19412W        W35673   3.226   9.055   1.300 -0.3251 -0.3173 -0.1028
19413W        W35674  13.634  11.405   1.850  0.0583 -0.1323 -0.0281
19414W        W35675   9.593  17.592  12.600 -0.0145  0.0239 -0.4852
19415W        W35676   0.166   4.448   6.314  0.2565  0.0400  0.3447
19416W        W35677  11.564  14.164   5.539  0.0376 -0.0550 -0.1651
19417W        W35678   0.285   0.034   2.330 -0.1645 -0.1138 -0.1576
19418W        W35679   1.368  15.887   3.885 -0.0746 -0.1624  0.0285
19419W        W35680  15.243   5.471  12.628  0.2730  0.1009  0.3714
19420W        W35681   4.330   9.044  13.992 -0.3232  0.2026  0.2093
19421W        W35682   5.635   8.309   4.081 -0.1288 -0.1291  0.1480
19422W        W35683  17.101   1.738   5.211  0.1224 -0.1107 -0.0706
19423W        W35684   5.388  16.107   3.194  0.0609 -0.0153  0.2324
19424W        W35685   7.087  13.304  11.361 -0.3358 -0.4148 -0.1821
19425W        W35686  12.578  12.057  10.772 -0.2709 -0.0357  0.0131
19426W        W35687   8.096   5.424   0.601 -0.0249  0.1156  0.2415
19427W        W35688   1.082  10.970  16.473  0.1816 -0.0760  0.0357
19428W        W35689   0.803   3.201  12.922 -0.1546 -0.1123  0.0967
19429W        W35690   2.685   1.302   4.370  0.0811 -0.1643 -0.1552
19430W        W35691  12.322  15.085  13.159 -0.0726 -0.0786 -0.0919
19431W        W35692   8.942   4.339   1.363  0.0157 -0.0526  0.3366
19432W        W35693   0.842  14.559   0.961 -0.0053  0.2890 -0.3486
19433W        W35694  14.702   5.801  14.708 -0.0830  0.0624 -0.0141
19434W        W35695   2.235  12.506  13.687 -0.1953 -0.1293 -0.0308
19435W        W35696  17.359  12.355   5.197  0.0146  0.2025  0.0229
19436W        W35697  16.874   6.186   1.897 -0.0141  0.0330 -0.1009
19437W        W35698   4.126   2.064  14.843 -0.0425  0.1456 -0.3721
19438W        W35699  15.822   5.469  13.221 -0.0541  0.0620  0.1909
19439W        W35700   4.739   8.303  12.581 -0.3236 -0.1238 -0.1046
19440W        W35701   1.315   8.057  11.713 -0.1031 -0.0415 -0.1557
19441W        W35702   1.436   5.002   4.335  0.1150  0.0442 -0.3143
19442W        W35703   5.753  10.763   2.403 -0.2470 -0.0093  0.0872
19443W        W35704  16.086  11.251  13.904 -0.3789 -0.1091 -0.0096
19444W        W35705   8.944   0.702  14.539 -0.1235 -0.1610 -0.0250
19445W        W35706   6.772  14.763  16.927 -0.1445 -0.1626 -0.0453
19446W        W35707  11.338  12.695  11.913 -0.2591  0.2120  0.0159
19447W        W35708  10.530   5.726  16.206  0.0133 -0.1482 -0.1490
19448W        W35709   8.785  15.357   2.940  0.4267  0.2019  0.2618
19449W        W35710   9.813   2.206   4.624  0.1698 -0.1146  0.0462
19450W        W35711   4.979  14.279  11.641  0.0008 -0.1449  0.0589
19451W        W35712   7.858   4.378  15.331  0.2190  0.2975  0.0113
19452W        W35713  15.215  11.388  15.256 -0.3048  0.0720 -0.1300
19453W        W35714  12.732  15.097   2.830  0.0492  0.1466  0.0148
19454W        W35715  11.164  16.708   0.168  0.0782  0.1973  0.0600
19455W        W35716   0.412  13.868  16.399  0.0487 -0.2137 -0.1815
19456W        W35717   2.098  16.942   1.411 -0.4357 -0.1362 -0.0806
19457W        W35718   1.563  10.363   5.707  0.3351  0.0921  0.0123
19458W        W35719   6.937  17.062   6.040 -0.1076  0.2124  0.0112
19459W        W35720  14.182   1.445   6.780 -0.1118 -0.1208  0.0099
19460W        W35721   4.138  13.927   4.999 -0.2117 -0.1494  0.2005
19461W        W35722  16.516   0.001  11.861  0.0528 -0.1224  0.0799
19462W        W35723  12.515   0.221   6.030 -0.1075 -0.1215  0.2861
19463W        W35724   4.261  15.962  13.552  0.2645  0.1662 -0.0457
19464W        W35725   0.104  15.727   5.539  0.1143  0.1922  0.3115
19465W        W35726   3.509   7.519   2.884  0.0651 -0.2386  0.3381
19466W        W35727   5.355   0.647  12.196  0.4195 -0.0063 -0.0233
19467W        W35728   9.148  12.796  13.260  0.0689 -0.0885 -0.0966
19468W        W35729   5.718   3.511  13.225 -0.1666 -0.0431  0.0161
19469W        W35730   0.878   1.514  13.421 -0.3272  0.0974  0.3080
19470W        W35731  16.353   5.430  14.701 -0.0109  0.3787  0.0863
19471W        W35732   0.410   2.203   4.566 -0.0858 -0.3567  0.0659
19472W        W35733  17.753   2.542   0.493 -0.1758  0.2316 -0.0058
19473W        W35734   9.343   9.143  16.598  0.1452  0.1298 -0.2782
19474W        W35735   1.421   4.574  16.315 -0.0813  0.3696  0.1902
19475W        W35736   4.430   6.032   2.762  0.0615 -0.1348  0.3346
19476W        W35737   6.137  13.966  14.632 -0.2254  0.0473 -0.0443
19477W        W35738   4.677  12.299   0.970  0.0389 -0.0513 -0.3149
19478W        W35739   4.906   9.231   1.993  0.2321 -0.1241 -0.2964
19479W        W35740   8.052   0.874  11.750 -0.0123 -0.2468 -0.0938
19480W        W35741   6.655   1.087  15.024 -0.3428  0.1030 -0.1513
19481W        W35742  12.105  15.418   5.624 -0.0715  0.1548  0.1571
19482W        W35743  15.205  16.431   2.186 -0.1499 -0.4335  0.3521
19483W        W35744  15.444  16.063   5.005  0.0727  0.1427  0.1034
19484W        W35745   0.920   9.867  14.237 -0.0650 -0.0683  0.0647
19485W        W35746   5.507  11.555  15.863  0.0941  0.2246 -0.0966
19486W        W35747  15.090  16.217  14.122  0.1088 -0.3497 -0.0134
19487W        W35748   4.486  13.586  12.939  0.1870 -0.0307 -0.1275
19488W        W35749   4.390   5.254   5.436  0.0920  0.2969 -0.2697
19489W        W35750   6.297   4.991  13.094 -0.1005  0.1641  0.2632
19490W        W35751  16.088   2.623  15.611  0.0136  0.2041  0.3573
19491W        W35752  12.524  13.361   0.351 -0.1717 -0.0225 -0.0958
19492W        W35753   7.076   2.990  13.355  0.2396  0.0008  0.0236
19493W        W35754   2.726   7.038  13.185 -0.1256 -0.0464 -0.0668
19494W        W35755  13.975   1.865  14.609  0.3871 -0.1407  0.2627
19495W        W35756   6.563  11.168  13.727 -0.0612  0.1892 -0.1536
19496W        W35757  14.462  14.233   1.291  0.3641 -0.2402 -0.3073
19497W        W35758  16.747   6.012   2.698 -0.0582 -0.1670  0.0032
19498W        W35759   1.731   3.364  15.350 -0.1338  0.0791  0.1097
19499W        W35760  14.041  17.205  11.755 -0.0704 -0.4963  0.0250
19500W        W35761   7.655   7.766   4.665  0.2152  0.0612 -0.0943
19501W        W35762   5.938   5.974  15.436 -0.0103  0.3518 -0.0579
19502W        W35763   6.068   5.645  14.995  0.1866  0.3744 -0.0943
19503W        W35764   7.403   7.392   2.119  0.2212 -0.3555  0.0300
19504W        W35765  13.375  13.469   1.188 -0.0810 -0.0827 -0.2094
19505W        W35766  15.265  16.311  13.093 -0.0395  0.2422 -0.2496
19506W        W35767  11.940  11.859   2.432  0.3698 -0.1275  0.1516
19507W        W35768   9.298   5.684  11.808 -0.1061 -0.2509  0.0665
19508W        W35769   7.372   0.965   3.992  0.0330 -0.1247  0.0786
19509W        W35770  11.782   2.950   1.108  0.1123  0.1057  0.0146
19510W        W35771  16.237   7.058   1.498  0.0804 -0.1628 -0.0505
19511W        W35772   7.039   6.733  16.056 -0.2463 -0.3714 -0.0934
19512W        W35773   0.372   4.447   5.890  0.3402  0.0419  0.0342
19513W        W35774  16.846   2.234   3.765  0.1262  0.0167  0.1122
19514W        W35775   3.261   8.606  12.640  0.3397  0.2064  0.0487
19515W        W35776   1.187   9.715   2.941  0.1212  0.4739  0.2220
19516W        W35777   5.815   6.933  11.848  0.0233 -0.0080  0.1084
19517W        W35778  15.308   6.444   4.114  0.2589  0.0465 -0.2002
19518W        W35779   9.018   8.177  13.399  0.2535 -0.0626 -0.0223
19519W        W35780  16.841  15.129  13.686 -0.1895 -0.1840  0.3246
19520W        W35781   1.957   6.987  16.142  0.2185 -0.0426 -0.0066
19521W        W35782   5.917  10.797   0.009 -0.1783 -0.2368 -0.2547
19522W        W35783  13.829   6.695  16.628 -0.1991  0.0506 -0.0186
19523W        W35784  14.996  13.694  12.830 -0.2553 -0.0219 -0.1591
19524W        W35785  13.404  14.025  12.319  0.1505  0.2106 -0.1753
19525W        W35786   7.578   1.735   3.856 -0.2735  0.1201  0.1629
19526W        W35787   0.581  15.177  15.484 -0.1436 -0.0039  0.0308
19527W        W35788   8.268   7.690  16.091  0.0875 -0.2502  0.2520
19528W        W35789   1.596   9.041   1.824  0.3079 -0.0696  0.1426
19529W        W35790  17.729  12.649  14.438 -0.3720  0.0215  0.0638
19530W        W35791  10.843  10.139  12.450  0.0014  0.1476 -0.2835
19531W        W35792   8.854   5.598   4.835 -0.1739 -0.0153  0.2538
19532W        W35793   3.699  15.560   2.148  0.1790 -0.1195  0.0639
19533W        W35794   4.343  14.974  16.746 -0.2661 -0.0991  0.1066
19534W        W35795  11.775   3.709  16.334  0.2159  0.0441 -0.1022
19535W        W35796  11.237   5.687  13.372  0.0521  0.1507 -0.1578
19536W        W35797   6.491   2.518   4.340 -0.2049  0.0846  0.1321
19537W        W35798   2.167   4.567   2.404 -0.0564  0.0999  0.2196
19538W        W35799  15.123  11.212  14.315 -0.1005 -0.0917 -0.0983
19539W        W35800  13.907  15.252  12.854 -0.0267 -0.2145 -0.1349
19540W        W35801   2.096   8.743   2.688  0.0683 -0.1044 -0.3901
19541W        W35802  13.381   6.815  16.461  0.1175  0.1997 -0.0482
19542W        W35803   2.631   1.389   2.228 -0.2949  0.3044  0.2198
19543W        W35804  12.289  12.472   5.171 -0.0496  0.3161 -0.3033
19544W        W35805   5.608   2.460  12.021 -0.0118 -0.1283 -0.3371
19545W        W35806   3.645  17.220   2.742  0.2627  0.0085 -0.0645
19546W        W35807  13.643   0.560  16.392  0.4100 -0.2138 -0.2307
19547W        W35808   2.410   7.297  14.782 -0.2785 -0.0759  0.1495
19548W        W35809  11.231  17.241   3.774 -0.0844 -0.0788 -0.0478
19549W        W35810   8.771   2.098   1.410 -0.2514 -0.1075  0.2490
19550W        W35811   4.183  11.389   3.457  0.0030 -0.1868 -0.0201
19551W        W35812   2.875   8.009   3.230  0.0567  0.1233 -0.2533
19552W        W35813   2.531   8.309   5.701 -0.0514  0.0162  0.1568
19553W        W35814  17.149   1.326  12.308  0.0564 -0.0090 -0.1677
19554W        W35815   9.853  13.650   4.441  0.0649  0.2528 -0.1594
19555W        W35816  10.773  16.753  16.446 -0.0704 -0.1579 -0.1420
19556W        W35817   0.381  10.195   3.782 -0.0127  0.0876 -0.0737
19557W        W35818   6.622   7.840   0.159  0.1646  0.3026 -0.1331
19558W        W35819   4.719   9.418   3.194 -0.2758  0.0858 -0.0949
19559W        W35820  16.007  13.198   4.433  0.0488 -0.3083  0.4497
19560W        W35821  15.499   9.391  16.854  0.0261 -0.3695 -0.1928
19561W        W35822   3.128   0.386   0.662 -0.1056 -0.1902  0.1726
19562W        W35823  15.990  16.950   5.115 -0.0923 -0.0415  0.0032
19563W        W35824   4.862  10.027  13.092  0.1650 -0.3232  0.1426
19564W        W35825   7.073   5.222   2.718  0.0350  0.0419  0.0382
19565W        W35826   9.359  14.839  16.685  0.0127 -0.0740  0.1449
19566W        W35827  13.528   4.926   1.917 -0.0629 -0.1546 -0.0824
19567W        W35828   6.624  15.710   1.161  0.2288  0.1007 -0.1701
19568W        W35829  16.867  14.686   0.574  0.1297 -0.1388 -0.3134
19569W        W35830   3.650  17.240  12.097 -0.2225 -0.0605  0.1599
19570W        W35831   6.661  14.512   5.190 -0.3787 -0.1991 -0.0163
19571W        W35832  17.388  17.402   5.127  0.3424  0.2800  0.0911
19572W        W35833   2.722  15.130   0.273 -0.2444  0.1089  0.0514
19573W        W35834  12.085  14.601  13.224 -0.1500  0.0973 -0.1593
19574W        W35835  10.791  16.721  12.254  0.1029 -0.0641 -0.0371
19575W        W35836   4.316   6.770   5.157 -0.0318  0.0184 -0.3335
19576W        W35837   9.098  10.721  13.229  0.0561 -0.2865  0.0752
19577W        W35838   2.304   9.419  12.983 -0.1273  0.1533 -0.0094
19578W        W35839  17.300  12.857  14.679  0.0813 -0.0311 -0.0783
19579W        W35840   0.921  15.538   1.272 -0.0406  0.0193 -0.2459
19580W        W35841  17.753   8.515   3.338 -0.2174  0.0912 -0.1357
19581W        W35842   9.566   0.452  13.441 -0.1633 -0.3507  0.0223
19582W        W35843  17.583   5.707   5.694  0.0656 -0.0716  0.0772
19583W        W35844   9.397   9.422   5.640 -0.2728  0.1119  0.0512
19584W        W35845  15.663  10.860   1.284  0.0601  0.3847 -0.1720
19585W        W35846   1.925   5.621  15.196 -0.2155  0.3054 -0.1274
19586W        W35847   6.362   7.349   1.969  0.0537 -0.0647  0.0318
19587W        W35848   5.570  17.358  16.190  0.0999 -0.0621 -0.0746
19588W        W35849   5.577   9.922   5.635 -0.0650  0.0894  0.2020
19589W        W35850  13.803  13.456   2.949 -0.0635  0.0588  0.0246
19590W        W35851  13.822  11.323  14.842 -0.0367  0.2681  0.0674
19591W        W35852   0.389   9.168   2.824 -0.2896  0.4663 -0.0119
19592W        W35853   7.106   0.258   5.280 -0.2309  0.3461  0.2026
19593W        W35854   9.770   6.762  16.648  0.0126  0.0684  0.2085
19594W        W35855   4.457  10.673   2.408  0.0776  0.1146  0.1565
19595W        W35856   9.554  10.202  12.158 -0.0358  0.1394 -0.0954
19596W        W35857  11.627  14.935  12.468  0.1047 -0.1624 -0.1255
19597W        W35858   0.522  15.865   5.184 -0.3138 -0.2882  0.1624
19598W        W35859   9.554   0.779  12.630 -0.1820  0.0673 -0.1131
19599W        W35860   3.999   9.524   1.367  0.3478 -0.0352 -0.0867
19600W        W35861   6.274   2.092   5.296 -0.2315 -0.0172 -0.2618
19601W        W35862   2.891  14.171  16.278  0.1739  0.1214 -0.2847
19602W        W35863   9.872   7.840   1.839 -0.0217 -0.3798  0.1412
19603W        W35864   9.805  12.772   5.579 -0.1449  0.0301 -0.3231
19604W        W35865   5.171   8.691   3.754 -0.2903 -0.1253  0.1630
19605W        W35866   5.929  13.915   4.016 -0.0068  0.0557  0.1566
19606W        W35867   2.154   8.249   2.621 -0.0787 -0.2203  0.1574
19607W        W35868  16.834   7.205   5.412  0.1859  0.3674  0.3043
19608W        W35869   3.982  14.139   2.330  0.0948  0.0371 -0.0776
19609W        W35870  17.731  13.808   4.247  0.4344 -0.1307  0.2619
19610W        W35871  13.420  14.471  12.687 -0.0710  0.1372 -0.4949
19611W        W35872   0.123  10.839   2.086  0.0773 -0.1257 -0.0489
19612W        W35873  13.136   3.175  13.324  0.0816 -0.0168 -0.0492
19613W        W35874   4.421  15.902   4.115  0.0526 -0.0657 -0.0883
19614W        W35875  11.775   6.639   4.563 -0.0204 -0.0955 -0.1092
19615W        W35876   9.693   9.920   5.740 -0.2057 -0.1129 -0.0979
19616W        W35877   0.115  15.273  15.126  0.4263 -0.0740  0.1726
19617W        W35878  13.033   5.602   3.662  0.0806 -0.0681 -0.0593
19618W        W35879  14.834  16.009   3.109 -0.1788 -0.0306  0.0406
19619W        W35880   5.460  15.071  12.338  0.0021 -0.1397  0.1983
19620W        W35881  13.542  14.372  11.965  0.0927  0.2297 -0.2033
19621W        W35882   3.407  12.706   6.207 -0.3319  0.1730 -0.1010
19622W        W35883  14.659   2.257   3.846 -0.2571  0.3204 -0.0225
19623W        W35884  14.843   0.812  12.739  0.0132  0.1830  0.0995
19624W        W35885   1.807  12.293  11.665 -0.0474 -0.0814 -0.1270
19625W        W35886  15.318   1.591  15.772 -0.0100  0.0924  0.1541
19626W        W35887  15.131  14.779   1.718  0.0620 -0.0526 -0.0781
19627W        W35888   7.523  14.754   3.509 -0.3401 -0.0437  0.0353
19628W        W35889   8.141  13.472  15.621  0.0837 -0.1098  0.0919
19629W        W35890   6.580   5.373   3.579 -0.3560  0.1081 -0.1154
19630W        W35891   4.333   9.519   4.048 -0.0477  0.0120  0.2486
19631W        W35892  13.806   1.328  16.624  0.2986 -0.2131  0.1558
19632W        W35893   6.523  11.039   0.788  0.1459  0.0118 -0.1503
19633W        W35894   9.554  10.470   2.562  0.1658  0.1717 -0.0434
19634W        W35895  15.169  14.281   1.752  0.1944 -0.0984 -0.1693
19635W        W35896   9.254  16.301  13.060  0.0097 -0.3252  0.0569
19636W        W35897   6.017  13.689  14.140 -0.0816  0.0957 -0.0058
19637W        W35898  11.169   0.123  16.007  0.0730 -0.0101  0.0730
19638W        W35899   6.446  17.785  13.326 -0.0498 -0.2253 -0.1192
19639W        W35900  16.593   0.408  15.013 -0.1444 -0.2373  0.0066
19640W        W35901   5.579   9.224   0.249 -0.0661 -0.2108  0.0605
19641W        W35902   3.543  16.305  15.592 -0.0527 -0.4257  0.1336
19642W        W35903  12.300   1.157  14.843 -0.2243  0.0608  0.0595
19643W        W35904  16.863   5.779   4.708  0.1429  0.0122 -0.0309
19644W        W35905   4.799   8.385   3.635 -0.0497 -0.0996 -0.1281
19645W        W35906  10.887   2.800  15.251  0.0602 -0.2439 -0.0168
19646W        W35907   2.477   7.183   3.704 -0.2733  0.2675  0.0582
19647W        W35908  10.684   4.192  13.470 -0.1446  0.1843 -0.0537
19648W        W35909   4.495  17.421   2.999  0.0615 -0.1461 -0.0011
19649W        W35910  15.693  13.395   3.189 -0.2411 -0.1045  0.3719
19650W        W35911  15.239   1.574  12.660  0.0845  0.1083 -0.3129
19651W        W35912   4.800  16.929  15.208 -0.2238  0.4119 -0.2307
19652W        W35913   1.804  13.349  16.816  0.0448 -0.2286  0.0956
19653W        W35914  16.811   6.531  13.303 -0.1757  0.2480  0.1509
19654W        W35915  12.275  12.535  13.965  0.3055 -0.0629  0.3939
19655W        W35916   5.780  12.347   3.431  0.1912 -0.1631  0.2172
19656W        W35917  11.143   8.327  11.860 -0.0332  0.0786 -0.0343
19657W        W35918   6.337   8.710  14.833 -0.0602 -0.2761 -0.2155
19658W        W35919  14.481  10.456   3.398 -0.1306 -0.1218  0.3610
19659W        W35920   9.388  14.010  16.137  0.0215 -0.3670  0.1795
19660W        W35921  14.964   4.726   3.165  0.2127 -0.0416  0.0273
19661W        W35922  10.528  16.959  13.624  0.0683  0.1125  0.1670
19662W        W35923  17.312   8.979   3.272  0.0233 -0.0398 -0.1321
19663W        W35924  10.078  14.445  13.280  0.0003  0.0447  0.0867
19664W        W35925   9.044  10.514  16.632 -0.1307 -0.0192 -0.1658
19665W        W35926  11.228   0.764   0.950  0.0540  0.0865  0.0050
19666W        W35927   2.328  12.551  11.704  0.0594 -0.1721  0.0497
19667W        W35928  13.284   3.562  15.059 -0.0263  0.2270 -0.0147
19668W        W35929   8.984   5.371   3.361  0.4930  0.2611 -0.2889
19669W        W35930  17.601   0.772  15.137 -0.0571  0.1813  0.0163
19670W        W35931  15.229   0.886  16.566 -0.0529  0.0580  0.0670
19671W        W35932   3.289  12.270  15.111 -0.1918 -0.0638 -0.0254
19672W        W35933   7.759   4.224  13.419 -0.1822  0.0208 -0.0089
19673W        W35934  17.639   8.402   2.412  0.1953  0.1427  0.0040
19674W        W35935   4.152  10.060  12.799  0.0221 -0.0523  0.1607
19675W        W35936  14.622  14.209  10.949 -0.1138 -0.0088 -0.1004
19676W        W35937  16.717   8.406   5.037  0.0642 -0.3939 -0.2094
19677W        W35938   6.760   9.589   1.425  0.4307  0.0607  0.2125
19678W        W35939   7.389   5.256  13.617  0.0857  0.0553  0.1006
19679W        W35940  14.092  13.191   3.690 -0.0708  0.2264 -0.2467
19680W        W35941  14.488  10.313  12.263 -0.2883 -0.0082 -0.0585
19681W        W35942  14.206  12.489  13.298 -0.1029 -0.0452 -0.0414
19682W        W35943  13.109  14.416   1.007  0.0597 -0.3012  0.4940
19683W        W35944  16.975  10.452   2.973  0.0927  0.0607 -0.1022
19684W        W35945   3.075  12.207   1.598  0.0699  0.0114 -0.4139
19685W        W35946  12.135   1.937   0.511 -0.0362  0.1942  0.0737
19686W        W35947  16.240   1.135  15.649  0.0860 -0.0993  0.2329
19687W        W35948  13.791  11.451   0.205  0.1716  0.2747 -0.0496
19688W        W35949   8.350   3.837  11.658  0.2465 -0.4022 -0.0215
19689W        W35950   4.439   8.566   5.152 -0.2040  0.0488 -0.3202
19690W        W35951  15.866  14.617  15.714  0.1234 -0.0210  0.0664
19691W        W35952   9.239   6.119   4.074 -0.2481  0.2446  0.0503
19692W        W35953   3.608  12.369  12.491 -0.2614  0.0791  0.0841
19693W        W35954   1.447  16.651   3.062 -0.1164  0.0110 -0.0567
19694W        W35955   7.657   8.110  16.643  0.2626  0.0359 -0.0241
19695W        W35956  11.599  13.275   1.465 -0.1020 -0.2291 -0.1682
19696W        W35957   9.123   9.011   5.614 -0.0392  0.3227 -0.0685
19697W        W35958   2.278  16.201   0.723 -0.1490  0.0757 -0.0182
19698W        W35959  12.961  13.700   1.439  0.2370  0.0980  0.1697
19699W        W35960   6.984   1.568   0.000 -0.0247 -0.2295  0.2183
19700W        W35961   7.424   5.357  12.114 -0.4381  0.1058 -0.2122
19701W        W35962   1.819   4.483  14.619  0.1664  0.0101  0.1836
19702W        W35963   7.940   3.974  13.881  0.0060  0.0261 -0.0787
19703W        W35964   7.986   8.960   3.518 -0.0739 -0.1564  0.0487
19704W        W35965   1.881   3.872  15.109 -0.1485  0.0688  0.2520
19705W        W35966   5.913   1.908  14.558 -0.1484  0.0344 -0.0062
19706W        W35967   2.107  16.246  11.582 -0.5005 -0.1479 -0.0568
19707W        W35968  13.466   5.875  16.144 -0.3476 -0.1893 -0.1692
19708W        W35969   8.195  16.237   3.678  0.1496  0.3446  0.2924
19709W        W35970  12.123   2.371  13.129 -0.0229 -0.1417  0.1683
19710W        W35971   8.808   5.206  15.536  0.1658 -0.0747 -0.2236
19711W        W35972   8.120  16.210  13.590  0.3833  0.1354  0.0391
19712W        W35973   5.370   6.695  11.781  0.0059 -0.2052 -0.0991
19713W        W35974  16.184   1.675   5.052  0.4061 -0.1865 -0.0169
19714W        W35975   3.345  15.988   3.118  0.0656  0.1662  0.0148
19715W        W35976   0.468   6.619   6.341  0.1733  0.0198  0.1026
19716W        W35977   7.226   5.229  16.877 -0.0428  0.0023 -0.0318
19717W        W35978   9.658  16.534  16.576  0.0973  0.3199  0.2406
19718W        W35979   2.572  12.902  14.978  0.0863  0.0145 -0.1543
19719W        W35980  13.152  16.128   0.965 -0.0454 -0.2787 -0.2983
19720W        W35981  17.115   2.225   0.324  0.0255 -0.0573  0.1615
19721W        W35982   1.462  15.974  14.258 -0.3552 -0.0172  0.1586
19722W        W35983  11.639   4.583  14.612 -0.0530  0.1511  0.0850
19723W        W35984  13.761   3.471   0.476  0.0886  0.0666 -0.0435
19724W        W35985   6.478   3.161  14.761 -0.2952 -0.0784 -0.0261
19725W        W35986  13.096   2.578  11.691  0.1355  0.0355 -0.1376
19726W        W35987  14.139   1.353   3.518 -0.0290 -0.1650  0.0763
19727W        W35988   8.848  17.507  15.496  0.1497 -0.1436 -0.0991
19728W        W35989   3.400   9.636  16.407  0.3815  0.2790 -0.2433
19729W        W35990   5.364  14.189  15.725 -0.0078  0.0754  0.1675
19730W        W35991  12.755   7.441   3.619  0.2008 -0.0230  0.0557
19731W        W35992   3.895   5.793   3.485 -0.1789 -0.0268 -0.2079
19732W        W35993  17.213   7.837  12.825 -0.0800  0.1655  0.2542
19733W        W35994  11.540   3.399  14.251 -0.1667 -0.3477 -0.0388
19734W        W35995   4.231   6.863  14.282  0.0539  0.2065  0.1208
19735W        W35996  13.280   9.804   4.425  0.0956  0.0739 -0.0587
19736W        W35997   8.779  12.804  15.919  0.3972  0.0354  0.0739
19737W        W35998  16.887  16.330  13.752 -0.0451  0.2603 -0.2350
19738W        W35999  14.337  15.677  14.201 -0.1290 -0.0180  0.1340
19739W        W36000  13.789   6.330   3.761 -0.2604  0.2656 -0.0166
19740W        W36001   5.153   2.851   3.498  0.0407  0.1519 -0.1587
19741W        W36002  17.472  12.257   2.393  0.2150 -0.0507 -0.0518
19742W        W36003   3.209  10.719   4.963  0.0727 -0.2236 -0.2312
19743W        W36004  15.271  11.399   3.400  0.0334 -0.0406  0.3246
19744W        W36005  17.838  10.858  16.171 -0.0220 -0.3767 -0.1697
19745W        W36006   8.504   3.832   2.494  0.2144  0.0599 -0.0685
19746W        W36007  11.433   6.015   0.144  0.1884 -0.1542 -0.0762
19747W        W36008  12.500  16.654  12.591 -0.1806  0.0811 -0.0493
19748W        W36009   9.476  17.666  14.704 -0.1445 -0.4048  0.0497
19749W        W36010  11.078   9.234   1.353 -0.2682 -0.2001 -0.1739
19750W        W36011   4.377   7.064   2.251 -0.1064 -0.0094  0.0636
19751W        W36012   1.366   4.218  14.354  0.0905 -0.0593  0.0835
19752W        W36013  14.811  11.550  12.831  0.2166  0.0597 -0.2483
19753W        W36014   6.249   8.079  14.265  0.1276  0.1442  0.1825
19754W        W36015   0.719   8.480   4.691 -0.1193  0.2113  0.2423
19755W        W36016  16.199  17.433   4.574  0.4002 -0.4991 -0.3225
19756W        W36017  11.123   3.180   4.616 -0.3729 -0.1662 -0.0577
19757W        W36018  14.207   4.015   4.091  0.0826 -0.6373 -0.1610
19758W        W36019   6.247  16.535  11.883  0.1728 -0.0330  0.0210
19759W        W36020   7.184  16.844   2.386  0.0753 -0.1938  0.2017
19760W        W36021  15.141  15.003   0.707 -0.1379  0.0480  0.1050
19761W        W36022  12.834   6.620   2.182 -0.2396 -0.2917  0.2131
19762W        W36023  13.136  11.715   0.897  0.2616 -0.2382 -0.1013
19763W        W36024   4.304   4.831   1.780 -0.1021  0.1617  0.1145
19764W        W36025   5.853   2.951   6.444 -0.0586 -0.3018 -0.0945
19765W        W36026  13.323  17.031   2.096 -0.0160  0.1820  0.1004
19766W        W36027  16.874   1.903  13.251  0.2260 -0.2371 -0.0973
19767W        W36028   9.189   9.612  14.651  0.2156 -0.1000  0.0694
19768W        W36029   0.878   1.080   4.704  0.1240  0.4137 -0.0911
19769W        W36030   5.967   7.011   2.661 -0.2551 -0.2873  0.0815
19770W        W36031   9.243   9.817   2.472  0.0192 -0.1579  0.1577
19771W        W36032   1.046  13.179  13.587 -0.1439  0.1092  0.0560
19772W        W36033  15.905   3.285  12.482 -0.0551 -0.2099 -0.3229
19773W        W36034   7.704  15.864   4.404  0.1829 -0.0301  0.0465
19774W        W36035   2.967  15.859  13.487  0.3966 -0.0739 -0.3026
19775W        W36036  15.452   0.221  16.686  0.2509 -0.2925  0.0652
19776W        W36037   4.422  14.576   3.003  0.3944  0.0634 -0.1903
19777W        W36038  15.935   0.670   5.994 -0.0713  0.0143 -0.4982
19778W        W36039   1.171  17.313  14.611 -0.0129 -0.0899 -0.3358
19779W        W36040  15.123   2.937   3.172  0.1780  0.0450  0.1996
19780W        W36041  11.972   0.266  13.668  0.3570  0.1374 -0.0182
19781W        W36042   1.470   1.612  12.661 -0.0740 -0.2088  0.0385
19782W        W36043  17.445   1.950   4.361 -0.0572  0.0280 -0.3192
19783W        W36044  15.187   5.228  14.582  0.2275  0.0153  0.0903
19784W        W36045   9.914  14.482   5.579 -0.0496 -0.1855 -0.0667
19785W        W36046   1.426  16.393  12.348  0.0425  0.3837  0.0323
19786W        W36047  17.717  13.950  12.970  0.1474 -0.0700  0.0229
19787W        W36048  16.699  17.056  13.119 -0.1311 -0.1007 -0.1937
19788W        W36049   2.957   4.268   4.422  0.1914  0.0477 -0.1183
19789W        W36050  16.875   7.446  12.723 -0.1695  0.0256 -0.1312
19790W        W36051  17.480   2.144   1.899  0.2018 -0.0904  0.0459
19791W        W36052  10.433  17.820  11.714 -0.0093  0.2651 -0.0170
19792W        W36053   1.399   4.069  16.485  0.0814  0.3174 -0.2115
19793W        W36054   3.451  10.867  15.816  0.2352 -0.1957 -0.4561
19794W        W36055   5.339   7.871   1.833  0.1382 -0.2482  0.0672
19795W        W36056  12.858  10.594  15.394 -0.3449 -0.3537 -0.1307
19796W        W36057  15.552   7.841  15.832 -0.3203  0.2956  0.1330
19797W        W36058   8.011  10.975   4.982 -0.0576  0.3563 -0.0290
19798W        W36059   3.027  11.520   5.112  0.0886 -0.0959 -0.0474
19799W        W36060   6.702   2.988   3.808 -0.3829  0.3165 -0.0284
19800W        W36061   1.170   1.300  14.607  0.1613 -0.2021 -0.1281
19801W        W36062   1.827   5.027  13.168 -0.0166 -0.1242 -0.0769
19802W        W36063  17.633   0.303  14.935 -0.0433  0.2901 -0.2246
19803W        W36064   2.529   5.316   3.717 -0.1197  0.0156 -0.1639
19804W        W36065   3.875  14.553  12.684 -0.1159  0.0145  0.0886
19805W        W36066   8.657  14.256  11.952  0.0882  0.0921  0.1994
19806W        W36067   6.480   3.034   4.247  0.0794 -0.0273  0.0580
19807W        W36068  11.548   9.418   3.401 -0.2397 -0.1858  0.0959
19808W        W36069   4.491  16.821  14.773 -0.2112 -0.1988 -0.1208
19809W        W36070  15.186   8.366  12.394  0.1905  0.1812  0.1291
19810W        W36071  14.041  11.794  12.837 -0.1179  0.0804 -0.2023
19811W        W36072   0.529   3.993  11.760  0.0630 -0.0570  0.0261
19812W        W36073   0.245  15.542  11.553  0.0759  0.0257  0.1137
19813W        W36074   4.003   5.912   5.065 -0.0158 -0.2243 -0.0596
19814W        W36075   7.897   7.997   0.661 -0.1676 -0.2731  0.0056
19815W        W36076   3.724   3.695   3.417  0.1064  0.1978  0.0928
19816W        W36077   0.437   3.080   6.553  0.0789  0.1308 -0.1216
19817W        W36078   6.341  12.100  14.925 -0.1060  0.1711 -0.0388
19818W        W36079   2.672   2.270   0.849 -0.2163  0.0537  0.1007
19819W        W36080  12.592  14.950   1.046  0.1245  0.0118  0.1804
19820W        W36081   8.210   0.053   4.190  0.1826  0.0890  0.0056
19821W        W36082   7.928   5.475  11.882 -0.2182 -0.1685 -0.1194
19822W        W36083   0.340   7.726   0.739  0.0479 -0.0881  0.3208
19823W        W36084   5.818  10.174  12.461 -0.1545 -0.0844 -0.1106
19824W        W36085   5.050   8.502   3.177  0.1160  0.3182 -0.0734
19825W        W36086   3.158   1.600   1.323 -0.1208  0.3415  0.1469
19826W        W36087  15.991   2.700  16.108  0.0835 -0.0720 -0.0881
19827W        W36088  12.683  13.259   3.154  0.0790  0.0374 -0.1979
19828W        W36089   9.730   1.324   4.880 -0.0398  0.0470  0.0517
19829W        W36090  14.156   1.712   4.984  0.1413  0.1088  0.0765
19830W        W36091   5.849   7.248  15.290  0.1417  0.1928  0.0682
19831W        W36092   4.436   7.915   3.828  0.1142 -0.0713  0.4426
19832W        W36093  14.314  17.202   1.127  0.0385  0.1189  0.0797
19833W        W36094   4.044  16.108  12.469  0.1121 -0.0424  0.2665
19834W        W36095   7.556   6.281   4.816 -0.2015  0.1608  0.0621
19835W        W36096   9.705  16.007  15.309 -0.2173 -0.1650 -0.3254
19836W        W36097   0.879  16.629   5.481  0.0759  0.0018 -0.1506
19837W        W36098   9.821   7.752  14.668 -0.1920  0.3119  0.2608
19838W        W36099   9.982   1.787   0.003 -0.0152  0.0758  0.1088
19839W        W36100   1.273   4.965   4.841  0.0811 -0.2376 -0.1556
19840W        W36101   6.734   5.387   4.028 -0.2776 -0.1006 -0.1182
19841W        W36102   1.870  11.684  12.083  0.6773 -0.0570 -0.0475
19842W        W36103  17.544   9.203  12.715  0.0558  0.0623  0.0483
19843W        W36104  13.444  11.113   4.456  0.0554  0.2613 -0.1281
19844W        W36105  12.574   7.608   4.055  0.2367  0.0422 -0.1504
19845W        W36106  14.012   1.332  12.732  0.4619  0.3467 -0.0562
19846W        W36107  14.310  15.941   2.845 -0.4300  0.1780 -0.3322
19847W        W36108  14.395   9.648   5.496  0.1306 -0.3758  0.0108
19848W        W36109   0.276   8.112  15.299 -0.0916 -0.0412  0.2112
19849W        W36110  13.475   0.889   2.659  0.4380 -0.0012  0.1786
19850W        W36111   6.082   8.268  14.717  0.1642  0.2724 -0.1504
19851W        W36112   7.397  11.700   1.698 -0.0392 -0.0484 -0.3110
19852W        W36113  12.028   7.398   4.586 -0.1727  0.2218 -0.0394
19853W        W36114  10.132   9.198   5.211 -0.1947 -0.0689 -0.1076
19854W        W36115   3.003   5.832  15.462  0.0939  0.0323  0.1100
19855W        W36116   7.885  14.516   0.767 -0.0845 -0.0909  0.2082
19856W        W36117  12.910   6.602  12.252 -0.1289 -0.0729  0.1858
19857W        W36118   9.584   2.392   3.007 -0.0994 -0.0300 -0.1770
19858W        W36119   2.432  17.209   2.347  0.0232  0.1520 -0.2312
19859W        W36120   0.586  13.918  15.143  0.2552  0.0200  0.1898
19860W        W36121   0.728  11.489   1.093 -0.0294 -0.1711  0.3289
19861W        W36122  11.354  12.734  10.855  0.2836  0.0902  0.2954
19862W        W36123   3.349  13.497   5.019  0.0898 -0.1642 -0.1962
19863W        W36124   6.781   5.570   1.201 -0.3991 -0.0840 -0.1832
19864W        W36125  14.938   1.045   1.706  0.3123  0.0684  0.1588
19865W        W36126  12.689   9.098  12.393  0.2301  0.3846  0.0150
19866W        W36127   7.039   0.872  14.068 -0.1361 -0.0764 -0.0978
19867W        W36128   0.179   5.086   3.474  0.1954  0.2098  0.1748
19868W        W36129   3.473   7.437  16.393  0.1821 -0.2498  0.0793
19869W        W36130  16.510   1.618  12.973 -0.0661 -0.0447  0.1555
19870W        W36131   8.217   1.961  13.984 -0.0595 -0.0374 -0.2084
19871W        W36132   6.891  12.183  16.834 -0.1616  0.0666  0.3634
19872W        W36133  15.606   0.246  12.383 -0.0997 -0.0974  0.0654
19873W        W36134   4.262  14.371   5.240  0.0092  0.3267 -0.1384
19874W        W36135  10.195  13.419   3.564  0.1583  0.0841  0.3164
19875W        W36136   6.555   9.520  12.826 -0.2992  0.1307  0.0290
19876W        W36137  16.262  16.434  12.470  0.1361 -0.1755 -0.0408
19877W        W36138  15.039  13.986  14.150  0.1491  0.0792 -0.0756
19878W        W36139   1.668  12.791  16.182  0.3031  0.2509 -0.1530
19879W        W36140   0.056  14.630  11.936  0.1972  0.0619  0.2405
19880W        W36141   9.363   3.263   5.323  0.1573  0.2976 -0.1141
19881W        W36142   9.106   3.453   3.511 -0.1909 -0.1286  0.4029
19882W        W36143  15.826   7.391  11.750  0.2316 -0.1100  0.1314
19883W        W36144   4.506   0.801   3.393  0.1832 -0.4406  0.0963
19884W        W36145   5.956   4.149  12.847 -0.1481  0.3287 -0.2196
19885W        W36146  10.993   7.816  12.674 -0.3066 -0.1301  0.3929
19886W        W36147  12.777  16.162   3.941 -0.2762 -0.0155 -0.1962
19887W        W36148  12.442  17.288   2.709 -0.0456 -0.0640 -0.2176
19888W        W36149  15.025  10.517   6.354  0.0436 -0.2946 -0.2001
19889W        W36150   7.157  13.060  13.129  0.1681  0.0985 -0.2711
19890W        W36151  14.728   7.422   3.661  0.0515 -0.1154 -0.1726
19891W        W36152  13.796   8.364  12.425  0.1199  0.1498 -0.0791
19892W        W36153  12.162   8.903  15.396  0.1166  0.1245  0.0504
19893W        W36154   2.860   5.492   5.565 -0.0614  0.0895  0.2169
19894W        W36155   2.278   7.610   1.065  0.0363  0.1442  0.0547
19895W        W36156  14.278  10.071  14.216  0.0660 -0.1943 -0.1150
19896W        W36157   2.450  16.969  14.169 -0.0063 -0.1307  0.1301
19897W        W36158  12.227   6.350   3.092  0.0467  0.3274  0.0831
19898W        W36159   8.184   9.665   4.899  0.0181 -0.0981  0.3008
19899W        W36160  12.299  14.999   4.752 -0.0706 -0.0521  0.1260
19900W        W36161  16.753  10.943   0.981 -0.0715  0.0772 -0.3144
19901W        W36162  17.226  10.599  14.095 -0.0858  0.0834 -0.1765
19902W        W36163  11.239   6.206  11.785 -0.2369 -0.3616  0.0127
19903W        W36164   6.300   3.980   5.732 -0.3044 -0.4424 -0.0095
19904W        W36165  15.997   1.356  14.316  0.1205 -0.2345  0.0029
19905W        W36166   8.432  14.510  14.086 -0.4456  0.1982  0.1266
19906W        W36167   8.095  17.627   3.226  0.3856 -0.0319  0.0352
19907W        W36168   5.128   2.514  14.574 -0.1333 -0.0572 -0.4634
19908W        W36169   8.393  17.484   0.098  0.0340  0.0546 -0.1033
19909W        W36170   4.549  13.954  12.494  0.0160  0.2710  0.2457
19910W        W36171  11.057   8.458  13.254 -0.1161  0.2250  0.0616
19911W        W36172  14.291  11.974   2.095 -0.1503 -0.2169 -0.2936
19912W        W36173  16.616   2.053  16.692 -0.0302 -0.0968 -0.7612
19913W        W36174   6.330  10.834   2.506  0.1263  0.2032 -0.1286
19914W        W36175  13.106   5.077   5.717 -0.0763  0.3842  0.1668
19915W        W36176   6.283   1.763  15.607  0.0748  0.3056  0.2028
19916W        W36177  13.623  17.834  15.042 -0.2223  0.0310  0.2923
19917W        W36178   7.292  16.536  15.596  0.0524 -0.0058 -0.1447
19918W        W36179   1.504   8.009  14.655  0.1976  0.1350  0.3386
19919W        W36180  13.101   0.517   4.348  0.5186 -0.1390  0.2855
19920W        W36181  17.287   6.069  14.514  0.0264  0.1720  0.0530
19921W        W36182   8.972   4.071  15.719 -0.3192 -0.0612  0.1423
19922W        W36183   9.361   7.535  14.058 -0.0509  0.1671  0.0016
19923W        W36184  15.777   9.583  12.022 -0.0051 -0.0018 -0.0132
19924W        W36185   2.210   3.624  15.440  0.1394 -0.1983  0.2290
19925W        W36186   1.887   5.068   2.512 -0.1303 -0.0698  0.0857
19926W        W36187  11.354   5.882   0.951 -0.1503  0.1033  0.0635
19927W        W36188   3.746   7.655  15.279 -0.2165 -0.1098 -0.1412
19928W        W36189  17.201  10.026   1.421 -0.2900 -0.1179 -0.1103
19929W        W36190  12.568   9.131  14.665  0.1444 -0.2290 -0.1695
19930W        W36191   4.017  13.880   0.388  0.1046  0.1183  0.3753
19931W        W36192  11.077   6.200   1.835  0.0681  0.1555  0.1887
19932W        W36193  12.168   1.891   1.102  0.0881  0.0034  0.1695
19933W        W36194   6.291   2.251  13.212 -0.0868  0.0341  0.0503
19934W        W36195  16.350  13.781   4.113 -0.1633 -0.3126 -0.0579
19935W        W36196   1.083  16.946   4.407  0.3354  0.1687  0.0713
19936W        W36197   3.662   7.703   1.224  0.1114 -0.0999 -0.1027
19937W        W36198   3.681   0.833  15.127  0.1792  0.0372 -0.2679
19938W        W36199  12.160  16.434   2.512  0.0104 -0.0788  0.1759
19939W        W36200   4.148  11.058  13.793 -0.1145  0.3669 -0.1789
19940W        W36201  15.813  12.234   1.027  0.0774  0.1218 -0.0254
19941W        W36202   6.247   6.076   0.431 -0.0482  0.1326 -0.0755
19942W        W36203  12.331   9.086   0.748  0.3715  0.2377 -0.0188
19943W        W36204   7.551   3.461  12.861 -0.0174  0.2170  0.1074
19944W        W36205  16.491  14.180  15.821  0.0259  0.1416 -0.0066
19945W        W36206  16.980   9.351  12.248  0.2044 -0.1599 -0.3951
19946W        W36207  17.242   5.736  15.698  0.2068  0.0021 -0.0006
19947W        W36208  11.346  12.011   3.111 -0.0787 -0.1150 -0.3198
19948W        W36209   4.492  10.803  12.071 -0.2839  0.1632 -0.2016
19949W        W36210  16.147  12.441   3.049  0.2028  0.0114 -0.1785
19950W        W36211  10.606  10.149   6.259  0.1199  0.0729 -0.1225
19951W        W36212  12.050   1.917   4.800 -0.0056 -0.0793  0.0801
19952W        W36213  11.827  10.711  13.441  0.0945  0.3903 -0.0850
19953W        W36214  15.500   0.779   1.481 -0.1309 -0.0244 -0.2793
19954W        W36215  13.552   8.661  12.726 -0.1814  0.1419 -0.4146
19955W        W36216   6.007   9.547  11.533 -0.0325  0.2708 -0.1286
19956W        W36217   6.112  15.304  12.960 -0.3572 -0.0096 -0.2276
19957W        W36218   8.863   7.837  12.341  0.0862  0.2198 -0.0952
19958W        W36219   1.606   3.682   5.479  0.1712  0.2462  0.2520
19959W        W36220   3.420   5.600   3.419  0.3873 -0.5515 -0.1539
19960W        W36221  16.462  11.158  12.640 -0.0021  0.0043  0.1791
19961W        W36222  16.406   2.447   5.356 -0.1215 -0.0404 -0.0680
19962W        W36223   9.500  16.951   4.897 -0.4316 -0.1661  0.3586
19963W        W36224   3.564  13.726  12.800  0.0109 -0.2305 -0.0086
19964W        W36225   1.511   2.092   6.562 -0.0952  0.1424 -0.2881
19965W        W36226  15.754   0.147  11.779 -0.0117  0.1202  0.1341
19966W        W36227  17.097   0.373  14.932  0.0022 -0.0781 -0.1086
19967W        W36228   9.046   9.660  15.796  0.1672  0.0455  0.2462
19968W        W36229   8.054   8.527  16.839  0.2468  0.0189  0.1373
19969W        W36230  14.336  10.948   2.185  0.1748  0.0215 -0.2245
19970W        W36231  11.445   7.492   4.545 -0.2551 -0.0621 -0.1114
19971W        W36232   4.262  13.472  10.149 -0.0619 -0.1757 -0.3157
19972W        W36233   2.422  17.484   3.785 -0.1865 -0.0837 -0.0564
19973W        W36234   4.579  17.732  13.199 -0.0508  0.0524 -0.1299
19974W        W36235  17.374  11.117  14.193 -0.2112 -0.0147  0.1459
19975W        W36236   0.420   0.613  15.624  0.0052  0.0604 -0.0081
19976W        W36237  15.787  13.927  14.708  0.0934  0.1041 -0.2481
19977W        W36238   6.723   7.751   1.948  0.2016 -0.0762  0.0381
19978W        W36239   2.408  12.648   4.315  0.0069 -0.2433 -0.1933
19979W        W36240  12.959  11.408   3.649  0.0424 -0.0262 -0.1335
19980W        W36241  10.218   7.780  15.928  0.2492 -0.0067  0.0520
19981W        W36242   6.707  12.281   4.327  0.1560 -0.2273 -0.1466
19982W        W36243  13.417  16.254  13.373 -0.4983 -0.1271 -0.1839
19983W        W36244   2.606   6.045   4.232  0.0933  0.1847  0.3056
19984W        W36245  17.186   4.859   5.764 -0.0369  0.2596 -0.1063
19985W        W36246  14.731   6.884  16.579 -0.2461  0.0394  0.5038
19986W        W36247   6.443   8.039  11.763  0.0053  0.1694 -0.0009
19987W        W36248   6.952   6.977   4.386  0.2284 -0.2749 -0.0562
19988W        W36249   5.935   5.244  16.286 -0.1403 -0.1969 -0.2041
19989W        W36250  11.712  13.563   2.855 -0.0748  0.1121  0.2315
19990W        W36251   8.313  14.094   4.563  0.2911  0.2002  0.1851
19991W        W36252   5.544  13.294   3.372  0.0342  0.0339  0.2680
19992W        W36253  10.316   3.337  14.723 -0.1077  0.0604  0.1048
19993W        W36254  11.279   3.033  15.888 -0.2248  0.2907  0.0949
19994W        W36255  11.194  16.705  12.587  0.2202 -0.0227 -0.2069
19995W        W36256   6.634   4.367   2.258 -0.0187  0.0838 -0.2283
19996W        W36257   7.185   9.135  14.473 -0.1275 -0.1054  0.1416
19997W        W36258   0.743  10.703  15.070 -0.0992  0.1741 -0.1599
19998W        W36259  14.139   2.579   6.033  0.2433  0.0181  0.0192
19999W        W36260  10.782   8.029   4.975  0.4469  0.2448 -0.0211
20000W        W36261   6.082  11.203   2.172 -0.0395 -0.2113  0.1487
20001W        W36262   3.943  12.613   3.141 -0.1403  0.0638  0.0931
20002W        W36263   1.711  11.640  11.103  0.0768 -0.2347  0.1087
20003W        W36264   3.937  16.558   0.543 -0.0343  0.0103  0.0477
20004W        W36265  17.209  15.036   0.804  0.2327 -0.2552  0.2521
20005W        W36266   5.141  13.715  15.925  0.1229  0.3194  0.1871
20006W        W36267  13.756  17.283  16.920  0.1442  0.0335 -0.0192
20007W        W36268   9.368  14.960   1.785 -0.0811 -0.0301 -0.1605
20008W        W36269  17.566   9.708   0.514 -0.0685 -0.0295  0.2298
20009W        W36270  10.752   0.110  15.042 -0.3261 -0.0060 -0.0188
20010W        W36271  11.164   4.726  12.518 -0.0328  0.1134 -0.2631
20011W        W36272   8.662   8.433   4.700 -0.0793 -0.1445  0.2449
20012W        W36273   9.006   6.471  13.328 -0.0121 -0.1288  0.2233
20013W        W36274   3.023   9.087  15.222  0.0133  0.2308  0.0296
20014W        W36275   3.871  14.516   3.108 -0.0491  0.0700 -0.0076
20015W        W36276   2.614  16.097  11.599 -0.0914  0.0514 -0.2024
20016W        W36277   8.463  16.098  13.158 -0.1422  0.1839 -0.0718
20017W        W36278   8.682  12.671  13.521 -0.1343  0.3666  0.1372
20018W        W36279  14.103  10.199  13.755  0.0263 -0.1441  0.0494
20019W        W36280   2.336   0.276   5.055 -0.0647  0.0061 -0.4143
20020W        W36281   1.537   0.659  12.457 -0.0618 -0.2909 -0.0478
20021W        W36282  15.818   7.310  15.129  0.0944  0.0056  0.0412
20022W        W36283   3.602   2.498   5.231  0.2558  0.2913 -0.0579
20023W        W36284   8.031  12.791   4.057  0.0265  0.4042  0.1404
20024W        W36285   0.784   0.927   3.308 -0.1050 -0.2522  0.3577
20025W        W36286  13.213  13.952   3.473 -0.2483 -0.2098 -0.0359
20026W        W36287   5.906   5.004   1.842  0.0885  0.2777  0.2457
20027W        W36288  17.457  13.339   0.158  0.1750 -0.2604 -0.0511
20028W        W36289   0.706   5.638   2.611 -0.2305 -0.2326  0.2164
20029W        W36290   9.283  12.609  16.854  0.0623 -0.2390  0.2200
20030W        W36291   1.667   6.188  14.978  0.0363 -0.1992  0.0942
20031W        W36292  14.651   3.305   5.119 -0.3587 -0.0021  0.1440
20032W        W36293   0.790   8.962   5.291 -0.2825  0.0175 -0.0567
20033W        W36294  17.479  14.172   2.403  0.0049  0.1183 -0.0539
20034W        W36295   3.782   8.280  13.981 -0.1544  0.2998  0.0475
20035W        W36296   7.370  11.427  12.334 -0.0117 -0.0478  0.0012
20036W        W36297   8.607  14.306   0.237  0.1640  0.1923 -0.0386
20037W        W36298  17.216  11.418  13.230 -0.1667 -0.0799 -0.1269
20038W        W36299  14.935  16.111  12.335  0.2271  0.0387  0.0248
20039W        W36300  12.133   3.623  14.350  0.2134 -0.1775  0.1926
20040W        W36301  16.849   0.124  13.063  0.1998 -0.2305  0.0834
20041W        W36302   1.672  12.786   5.027  0.1325 -0.2609 -0.0823
20042W        W36303   4.366  17.197   0.061 -0.1451 -0.3133 -0.2946
20043W        W36304   6.828  10.628   3.970 -0.1931 -0.0755  0.3112
20044W        W36305  10.197  15.841   2.106  0.0223  0.1231 -0.1932
20045W        W36306  11.959  13.180   4.207 -0.1398 -0.0737  0.1650
20046W        W36307  12.562   0.423   3.127  0.1814  0.2042 -0.0367
20047W        W36308  16.320  17.534  16.679  0.0275 -0.0493 -0.1467
20048W        W36309   0.050   9.426  16.432  0.0100 -0.0479 -0.1420
20049W        W36310   1.463   0.125  16.037  0.0156  0.1153 -0.3262
20050W        W36311   0.135  16.932   6.708  0.3006 -0.2043  0.2281
20051W        W36312   4.349   4.842  16.644 -0.0766 -0.0365  0.0043
20052W        W36313  14.644   0.585   1.528  0.2152  0.1225  0.0691
20053W        W36314   0.103  16.431  14.252 -0.1495  0.0031 -0.0914
20054W        W36315   5.537  17.167  12.554  0.1539 -0.2412 -0.0843
20055W        W36316  13.998   3.497   4.124 -0.0096 -0.1063  0.0559
20056W        W36317  14.981  13.127  13.636  0.2416 -0.2479 -0.2112
20057W        W36318   6.270  14.888  14.523 -0.3580 -0.2393 -0.0326
20058W        W36319   0.482  16.839  15.004  0.2770 -0.0415 -0.1796
20059W        W36320   4.483  10.138  13.626 -0.1006 -0.2576  0.1801
20060W        W36321  10.940   4.456  12.062 -0.2790 -0.1108 -0.2615
20061W        W36322  10.581   6.142   3.677 -0.1594  0.2150 -0.0491
20062W        W36323  13.766   5.081   0.971 -0.1424 -0.0172 -0.0110
20063W        W36324  16.373   5.985  12.719 -0.0605 -0.0701 -0.2064
20064W        W36325   3.195   0.885   2.103  0.1019  0.0426  0.0689
20065W        W36326   8.889  14.324  15.341 -0.1326  0.1373  0.0659
20066W        W36327   4.001  16.717   2.236  0.3562 -0.1796  0.0079
20067W        W36328   6.278  11.755   2.218 -0.1602 -0.2413 -0.1465
20068W        W36329   5.638   2.499  16.268 -0.2965  0.1604 -0.0956
20069W        W36330   8.906   8.362   4.296  0.1224  0.0947  0.0096
20070W        W36331   0.537  10.025   4.237  0.1640  0.1280  0.0617
20071W        W36332   3.082   5.864   2.597  0.0436  0.0755  0.2517
20072W        W36333  17.231  10.823  12.314 -0.5394 -0.3055  0.1695
20073W        W36334   4.105  10.628  12.386 -0.0887 -0.0610  0.1098
20074W        W36335   3.983  11.783  13.142  0.0960 -0.0264  0.0378
20075W        W36336  16.195  10.315   2.341 -0.0322 -0.1873  0.1470
20076W        W36337  10.225   9.197   4.663  0.0178  0.0757 -0.3020
20077W        W36338  13.555  11.508  16.298  0.3559  0.1408 -0.0772
20078W        W36339  16.518   5.152   2.407 -0.1998 -0.0876 -0.0806
20079W        W36340  14.683   7.190   5.381 -0.0114 -0.0424 -0.0141
20080W        W36341   1.990   1.117  15.547 -0.0786 -0.0554 -0.2935
20081W        W36342  14.894   5.033   2.590 -0.2452 -0.1238 -0.1276
20082W        W36343   0.972  17.697   5.526 -0.0683  0.0771  0.2051
20083W        W36344  17.485   6.931   3.851 -0.2472  0.2474  0.3409
20084W        W36345   8.374   5.015  16.392  0.0305 -0.5147  0.0178
20085W        W36346  12.014  13.919  14.420 -0.1569  0.0252  0.0049
20086W        W36347   3.430   4.194   1.672  0.1781 -0.0083 -0.0637
20087W        W36348   9.422  11.302   5.617 -0.1026 -0.2748 -0.0783
20088W        W36349   8.470   4.278  15.876  0.0430  0.0322  0.1217
20089W        W36350   8.494   9.615  15.907  0.2266 -0.0477  0.3535
20090W        W36351  13.011  10.110   5.381 -0.0598 -0.0658 -0.1657
20091W        W36352  15.399   8.812   5.277 -0.0189 -0.0277 -0.0152
20092W        W36353   1.109   1.222   3.783 -0.0952  0.0209  0.3566
20093W        W36354   2.779   1.696  16.581  0.1576  0.1593 -0.0134
20094W        W36355   4.104  10.467   5.020  0.2765 -0.3082  0.1139
20095W        W36356   9.789   6.427   5.456 -0.0461 -0.0020 -0.1923
20096W        W36357  15.378  13.516   2.782 -0.2155 -0.1651 -0.0935
20097W        W36358   5.621   5.084  13.068 -0.0892 -0.0083 -0.1144
20098W        W36359  12.633  15.629   3.095 -0.0507 -0.0125 -0.1852
20099W        W36360  17.298   4.021  13.422  0.1179 -0.2284  0.2118
20100W        W36361  14.505   4.654  16.634  0.1257  0.0599  0.2107
20101W        W36362   1.592   2.605  12.514  0.0898  0.2132  0.1436
20102W        W36363   4.643   0.030   2.865  0.1392  0.2741  0.0539
20103W        W36364   9.094   7.056   2.276 -0.0652  0.3045  0.0249
20104W        W36365   5.762  12.956   3.730  0.0859 -0.0009  0.2861
20105W        W36366  13.402   3.563   4.317 -0.0743 -0.3604 -0.1791
20106W        W36367  13.582   1.026   6.011 -0.2430  0.1387  0.0544
20107W        W36368   7.805  17.195   4.681 -0.1952  0.1830 -0.0624
20108W        W36369   6.736   1.816   0.535 -0.3536 -0.2092  0.2458
20109W        W36370   5.182   7.485  13.274  0.1376  0.0325  0.0500
20110W        W36371   2.180   1.993   4.007 -0.0767 -0.0783  0.2476
20111W        W36372  15.539   3.151  16.761  0.3402  0.2017  0.4210
20112W        W36373   7.830  15.429  16.694 -0.2634  0.3958  0.1587
20113W        W36374   4.802   6.595   6.319 -0.1006  0.2526  0.0589
20114W        W36375  15.610  13.785  13.499  0.1064  0.0819 -0.1781
20115W        W36376  16.385   6.780   5.032  0.2709 -0.0701  0.3625
20116W        W36377  17.338  14.101  15.348  0.1690 -0.0770 -0.1164
20117W        W36378   9.255  14.168  14.985 -0.0498 -0.4142  0.1134
20118W        W36379   4.183   9.248   3.451 -0.1120  0.0773 -0.0077
20119W        W36380   0.007   3.886  11.526  0.1797 -0.0215  0.1400
20120W        W36381   3.133   8.995   3.540 -0.1421  0.0211 -0.1188
20121W        W36382  13.062   6.773  13.984  0.0613  0.0581 -0.3699
20122W        W36383  15.623  13.719   1.179  0.0905  0.0044 -0.0546
20123W        W36384   9.717   0.389  16.632  0.1592 -0.0061  0.1161
20124W        W36385   4.170   7.645  12.981 -0.2684  0.0835  0.0312
20125W        W36386   0.788  11.045  15.457  0.0487  0.5367  0.3236
20126W        W36387   7.491  10.366   2.773  0.1759  0.3054 -0.0376
20127W        W36388  17.084  14.794  13.396 -0.0618  0.4667  0.0667
20128W        W36389   1.583   0.427   2.188  0.0318 -0.1238 -0.3016
20129W        W36390   0.843   4.046  16.321 -0.0582 -0.2807  0.0437
20130W        W36391  13.751   2.172   0.614  0.0534 -0.1060  0.4376
20131W        W36392  17.696   9.906   5.501  0.1039 -0.1339 -0.0088
20132W        W36393  16.399   6.230  13.507 -0.0193 -0.1515  0.0293
20133W        W36394   0.563  16.544  14.562 -0.1196 -0.0999 -0.2847
20134W        W36395  17.849   0.398   2.246  0.0138  0.1613 -0.1513
20135W        W36396  16.722  15.092  15.708 -0.3647  0.2554 -0.1034
20136W        W36397  10.784   7.521   3.066  0.1353  0.3044 -0.0319
20137W        W36398   6.030   9.103  13.414 -0.0013  0.0877 -0.1052
20138W        W36399  17.324   9.237  15.044  0.1024 -0.0080  0.4051
20139W        W36400  11.263  16.107   0.820  0.0232 -0.3408  0.0595
20140W        W36401  10.370  15.894  11.605  0.0067 -0.0618  0.1867
20141W        W36402  11.886  10.909  15.609  0.0575  0.0373 -0.0711
20142W        W36403   2.285   2.500  13.075 -0.0564 -0.1584 -0.1995
20143W        W36404   6.406  15.210   1.973 -0.2644 -0.0135 -0.1930
20144W        W36405  16.499   2.758   5.723 -0.0348 -0.0113  0.0090
20145W        W36406   3.221  14.593  12.208  0.3454 -0.1167 -0.2687
20146W        W36407   5.302   9.822   0.793 -0.1637 -0.1214 -0.0259
20147W        W36408   9.611   4.089   0.299  0.0292 -0.0720  0.1975
20148W        W36409   5.348  14.641  13.980  0.0587 -0.2610 -0.3458
20149W        W36410   5.413  13.758   2.396 -0.4517 -0.1891  0.3530
20150W        W36411  11.271  10.681  13.526 -0.0451 -0.0968  0.0305
20151W        W36412  16.820   4.425   3.306  0.1918 -0.2859  0.1449
20152W        W36413   7.744  16.710   5.422  0.1912  0.0912 -0.1095
20153W        W36414  14.621  13.565   5.111  0.0306  0.0237 -0.1579
20154W        W36415  16.708  11.430  12.275  0.4000 -0.0710  0.0415
20155W        W36416   2.588   4.316  16.225  0.1464  0.2014 -0.0867
20156W        W36417   4.326  14.868  12.894  0.1499 -0.1207  0.4061
20157W        W36418  15.153   7.530   3.182  0.0882  0.4719 -0.2172
20158W        W36419  12.510   0.436   0.404  0.1410 -0.0550  0.3088
20159W        W36420  14.653  16.049   4.522 -0.1885 -0.2373 -0.1001
20160W        W36421  10.654  16.727   0.314 -0.1400 -0.2393  0.1027
20161W        W36422   5.390   7.627   0.005 -0.1078  0.0863 -0.2758
20162W        W36423  17.051   6.760  11.910 -0.0554  0.3506 -0.0769
20163W        W36424  16.350   2.108   1.272  0.1933  0.1956 -0.0702
20164W        W36425   4.658  12.396  11.638  0.1553 -0.1494  0.0337
20165W        W36426   2.806   2.255  13.986  0.1703  0.0428 -0.0055
20166W        W36427   0.687   3.108   0.288  0.1645  0.0515 -0.1406
20167W        W36428   0.740   1.049   1.930 -0.2046 -0.3486 -0.1246
20168W        W36429  15.101  11.808   5.089 -0.2272 -0.1044  0.2575
20169W        W36430  17.168   7.389   3.113  0.0461 -0.0736 -0.1897
20170W        W36431   0.958   7.227  13.209 -0.1463  0.2525  0.1214
20171W        W36432  14.780  10.845   1.572  0.5458  0.3412  0.1345
20172W        W36433   9.876  11.686  13.447 -0.1396  0.1254  0.2291
20173W        W36434   9.466  13.251   2.012  0.0188  0.4764 -0.1844
20174W        W36435   7.160   8.316  11.949 -0.2082  0.3177 -0.1272
20175W        W36436   0.083  13.023   4.595 -0.2984 -0.2291 -0.0244
20176W        W36437   1.627  14.721  16.478  0.2384 -0.2578 -0.1173
20177W        W36438   4.858   9.014  15.731  0.0667 -0.0166 -0.0599
20178W        W36439  11.103  11.719  11.519 -0.0056  0.0702  0.0764
20179W        W36440   0.196   4.428   5.179  0.0468  0.1356  0.1807
20180W        W36441  17.626  13.082   2.314  0.0271 -0.1427 -0.2143
20181W        W36442  15.875  17.536   5.961 -0.1003 -0.2173  0.1810
20182W        W36443   7.052   6.754  16.778  0.2373 -0.0906  0.0928
20183W        W36444  10.908  11.344   3.196 -0.2307  0.1870 -0.0692
20184W        W36445  17.506   5.021   0.914  0.1215  0.0833  0.0684
20185W        W36446  11.155  12.413   0.492 -0.3340 -0.1497  0.2221
20186W        W36447   9.699  13.608  16.714  0.0918  0.1221 -0.0733
20187W        W36448   6.732   7.946  15.732 -0.4664 -0.1139  0.0242
20188W        W36449   8.941   4.851   2.477  0.1752 -0.0186  0.4320
20189W        W36450   8.087  17.126  13.369  0.2628 -0.2020  0.3543
20190W        W36451   4.898   0.127  12.906  0.0340  0.1829  0.2811
20191W        W36452   7.588  11.164  13.069 -0.0948  0.1158  0.1456
20192W        W36453   2.033   3.615   3.335  0.1076 -0.0707 -0.0048
20193W        W36454  11.454  14.947   2.428  0.1109  0.0284 -0.0305
20194W        W36455  11.737  15.300  11.688  0.1085 -0.0472 -0.3749
20195W        W36456  14.989  10.052  13.190 -0.2066 -0.0939 -0.0562
20196W        W36457   1.902  16.071  15.928 -0.1369  0.1087 -0.1231
20197W        W36458   3.341  14.518  12.788 -0.1965  0.2244 -0.1017
20198W        W36459   7.267  13.847   2.565 -0.2236  0.0808 -0.1187
20199W        W36460  14.434   0.585   0.014  0.2796 -0.2060 -0.2366
20200W        W36461  15.971   4.479  15.377 -0.2237 -0.2350  0.1048
20201W        W36462  13.031   6.788   0.780  0.0748 -0.0797 -0.1733
20202W        W36463  14.002   0.743  11.894 -0.2738 -0.1312 -0.2745
20203W        W36464   3.510  13.162  12.799  0.2452  0.1025 -0.0635
20204W        W36465   6.084   0.207  16.570  0.1310  0.2293  0.0046
20205W        W36466  14.004  14.226  15.674 -0.4363 -0.0906 -0.0143
20206W        W36467   2.217  10.093  13.213 -0.0693  0.0628  0.3932
20207W        W36468  13.226  15.264   0.538 -0.0759  0.2136 -0.3502
20208W        W36469   6.663   0.875   5.712 -0.0523  0.0183  0.2576
20209W        W36470   2.062   7.959  16.072  0.0724 -0.0743 -0.2281
20210W        W36471  14.486   1.892   1.361  0.2164  0.0210 -0.2207
20211W        W36472  13.062   6.971  11.834 -0.2240 -0.0933 -0.0858
20212W        W36473   1.436  11.588   1.950  0.1268  0.1801 -0.0640
20213W        W36474   1.695   1.461  15.848 -0.1281 -0.0474  0.3005
20214W        W36475  16.378  11.451   0.929 -0.0733 -0.0510  0.0083
20215W        W36476  10.268   7.423  12.982  0.1311 -0.0705  0.2929
20216W        W36477   6.454   0.691   3.201  0.1036  0.1955 -0.3880
20217W        W36478   7.780  10.012   4.893 -0.1924  0.2086 -0.1734
20218W        W36479  10.965   9.330  16.526  0.1059 -0.0565 -0.4047
20219W        W36480  16.438  17.543  13.125 -0.0437 -0.0210 -0.0979
20220W        W36481   0.849   8.699   3.739 -0.3077  0.0575 -0.2425
20221W        W36482  12.092   9.975  15.314 -0.2153  0.2915  0.5844
20222W        W36483   1.799  15.001  13.868 -0.2721 -0.1251  0.0027
20223W        W36484   5.739   3.653  14.956 -0.0066  0.2121 -0.1760
20224W        W36485  11.209  17.516  14.470 -0.0795  0.0684  0.1252
20225W        W36486   2.172  11.175   4.626  0.0821 -0.1861 -0.1486
20226W        W36487  13.591  16.380  16.907 -0.1273  0.0564  0.1914
20227W        W36488  11.758   5.174   1.392 -0.0519  0.0543 -0.1046
20228W        W36489   8.053  15.622  14.989 -0.1827  0.0118  0.1416
20229W        W36490  10.443  16.922   0.752 -0.3267  0.2949 -0.1122
20230W        W36491   7.057   0.786  15.306 -0.0651  0.0089 -0.1573
20231W        W36492  14.329  15.293   5.436  0.1260 -0.2410 -0.1447
20232W        W36493  10.622  13.013  15.545 -0.3172 -0.0986  0.0549
20233W        W36494  14.918   1.597   4.479  0.0934  0.3464  0.1103
20234W        W36495  16.097   7.514   2.879  0.0688 -0.2025  0.3598
20235W        W36496   2.938  15.455  14.378 -0.1862 -0.0464 -0.0641
20236W        W36497   2.474   5.373   0.253  0.1087  0.0502  0.0685
20237W        W36498  17.268   0.117  13.276 -0.1733 -0.1503  0.2532
20238W        W36499  17.240  12.550  16.597  0.0706 -0.0950  0.3384
20239W        W36500   2.281  16.502  14.442  0.5133 -0.2208  0.0444
20240W        W36501   1.967   3.555   5.028  0.2740 -0.1025  0.1630
20241W        W36502  14.609   0.912  15.223  0.1100 -0.1236 -0.2566
20242W        W36503  16.476   2.204   2.216  0.2020 -0.3783  0.1048
20243W        W36504  16.998  11.688  16.596 -0.0272  0.0315 -0.0367
20244W        W36505  13.611   2.286   0.093 -0.0095  0.0360  0.0113
20245W        W36506   9.480  16.442  14.160  0.0343  0.1202 -0.0123
20246W        W36507   3.745   0.324   5.257 -0.1255  0.0102 -0.0719
20247W        W36508   7.214  12.041  15.761  0.0790 -0.1273 -0.1450
20248W        W36509  10.757   4.908  11.913  0.1066 -0.0528 -0.1908
20249W        W36510   6.188   6.936  15.644  0.1810 -0.0742  0.1354
20250W        W36511  15.243   0.127   0.387 -0.0526 -0.2216  0.0001
20251W        W36512   3.467  16.670  15.282  0.2743 -0.1733  0.2218
20252W        W36513   8.131  14.068  15.800 -0.1820 -0.1650 -0.0076
20253W        W36514   5.067   3.923   4.634 -0.2339 -0.2538 -0.0127
20254W        W36515   5.628   1.023  15.326  0.0115 -0.0642 -0.2125
20255W        W36516   5.331   9.142   5.913 -0.2099 -0.2633 -0.1242
20256W        W36517   0.590  14.199   4.396  0.2300 -0.0592 -0.0663
20257W        W36518  13.194   5.513   5.093 -0.1767 -0.2082  0.1394
20258W        W36519  10.490  10.369   0.944  0.1213 -0.0886 -0.1348
20259W        W36520  10.367  13.527  14.601 -0.0873  0.3520 -0.1829
20260W        W36521   1.417  13.247   4.994 -0.3109  0.0085 -0.0550
20261W        W36522  15.893  10.456   4.633  0.0522 -0.1057  0.0883
20262W        W36523  12.112   8.586   0.623 -0.1031 -0.0573 -0.1069
20263W        W36524   8.314   6.066   1.497  0.2015 -0.2737  0.0449
20264W        W36525  12.991   4.375  15.646  0.1000 -0.1173 -0.1620
20265W        W36526  10.794   7.272   2.584  0.0555 -0.2146  0.0981
20266W        W36527  14.672  13.852   0.209  0.3332 -0.2726 -0.4044
20267W        W36528   0.886  13.785   5.105  0.1436  0.0315 -0.0689
20268W        W36529  10.600   9.104  13.603  0.0539  0.0935  0.1448
20269W        W36530  10.236   1.684   0.484 -0.1854  0.0542  0.1208
20270W        W36531   1.586  16.661   4.841  0.2208 -0.5593 -0.0577
20271W        W36532  10.352   5.221   1.293 -0.0494  0.1489  0.1836
20272W        W36533   6.710   9.695   1.919  0.0200  0.2105  0.1595
20273W        W36534   9.264   1.015  13.412 -0.1426  0.0453 -0.0281
20274W        W36535  11.203   1.100   0.057 -0.0426 -0.2214  0.2568
20275W        W36536  11.959   5.263  16.577  0.1684 -0.2282  0.1448
20276W        W36537  10.988  12.435  13.382 -0.2121 -0.0110 -0.1118
20277W        W36538  15.543   1.471  12.243 -0.3555 -0.0170  0.3393
20278W        W36539  13.549   4.883   4.977  0.2108 -0.0270  0.1536
20279W        W36540   0.078  11.173   5.063  0.3874  0.1059  0.3500
20280W        W36541   7.671  14.996  15.717  0.0969  0.1669 -0.1594
20281W        W36542   4.105   1.675   5.689 -0.2842 -0.0141  0.0399
20282W        W36543  16.867   8.278   2.195  0.2141  0.2461  0.0015
20283W        W36544   2.272   2.238   3.085  0.0940 -0.1131  0.3104
20284W        W36545  10.566  16.181   5.244  0.1589  0.1502 -0.0652
20285W        W36546  13.298   0.007   4.543 -0.4050 -0.0872 -0.1135
20286W        W36547   5.534  13.943   1.925  0.2272  0.0810 -0.1101
20287W        W36548   9.814   6.892   1.184  0.0052  0.4164 -0.3917
20288W        W36549  11.019  12.373  14.215  0.2028  0.0187 -0.2611
20289W        W36550  14.581   2.016   0.285 -0.1833  0.0243  0.2189
20290W        W36551   5.718   6.158   5.484 -0.0430 -0.0625 -0.0257
20291W        W36552   2.224  11.737  11.730  0.0093 -0.4333 -0.0819
20292W        W36553   7.555  12.720   4.420 -0.0816 -0.2994  0.1630
20293W        W36554  10.033   6.298  15.685  0.2902 -0.1924 -0.2907
20294W        W36555   3.531   2.923   6.362 -0.1030 -0.1678 -0.0002
20295W        W36556  13.658   2.957   0.080 -0.0507  0.1303 -0.2888
20296W        W36557  16.104  13.858  13.771 -0.1669  0.2037  0.0475
20297W        W36558  16.298  11.518   1.628  0.0143  0.0186  0.3993
20298W        W36559  16.004   5.795   2.051  0.0849  0.2227 -0.2740
20299W        W36560   3.740  10.749  16.174  0.0004  0.3386  0.0714
20300W        W36561   2.890   3.505   3.005  0.3047  0.1014  0.0104
20301W        W36562  12.805   7.484  16.261  0.0599 -0.1900  0.0900
20302W        W36563  14.054   0.383  16.663  0.2206  0.3120  0.0644
20303W        W36564   9.999  12.266   2.816 -0.3553 -0.2949  0.4659
20304W        W36565   6.513   6.471  12.336  0.5461  0.0565 -0.1893
20305W        W36566   0.213  12.940   3.927  0.1117 -0.3587 -0.1744
20306W        W36567   0.579  10.140   0.655  0.1322 -0.3208  0.0473
20307W        W36568   2.208   9.571   0.662  0.1986  0.1509 -0.0423
20308W        W36569  14.556  12.561   5.061 -0.1845 -0.0831 -0.0687
20309W        W36570   4.938   6.559   4.355  0.0661 -0.0984 -0.1689
20310W        W36571  13.074   4.023  14.494  0.0625  0.3304  0.1339
20311W        W36572  17.013   0.959  13.438  0.0703  0.1384 -0.2705
20312W        W36573  15.955   6.685  12.281 -0.1673  0.0378  0.0215
20313W        W36574   9.524   8.647  10.639 -0.2735  0.3994  0.0783
20314W        W36575  16.790  13.848  16.466 -0.5257  0.2217  0.2659
20315W        W36576  15.562   8.588  13.106  0.1685  0.2032 -0.1064
20316W        W36577  14.559  15.858   5.475  0.2743  0.0425 -0.0017
20317W        W36578  14.124   8.583   2.037  0.2532  0.0626 -0.1743
20318W        W36579   7.924  10.573  14.268  0.1605 -0.0948 -0.2665
20319W        W36580   8.925   2.702   2.544  0.0524  0.0572 -0.1344
20320W        W36581   2.423  11.977   0.850  0.3166 -0.2168 -0.0971
20321W        W36582   6.846  13.139   0.196 -0.0780 -0.4483 -0.3742
20322W        W36583   7.651  10.177   2.225 -0.1299  0.0839 -0.2275
20323W        W36584  17.302   2.555  12.967  0.0275  0.0513 -0.0067
20324W        W36585   9.861   0.512  11.220  0.0104  0.1894  0.3507
20325W        W36586  17.402   1.240  13.315  0.1730  0.2595 -0.2708
20326W        W36587   6.070   3.307  11.724 -0.0124 -0.1621  0.1123
20327W        W36588   1.897  15.410  10.285 -0.1610 -0.0575 -0.0459
20328W        W36589  16.520   7.826   2.905  0.1104 -0.1084  0.1968
20329W        W36590   4.350   1.465  16.674 -0.0778 -0.0813  0.3466
20330W        W36591  15.537   2.435  12.436 -0.1855 -0.1170 -0.1326
20331W        W36592   5.097   0.279   2.833 -0.2097  0.3356  0.1731
20332W        W36593   1.777   8.144   2.190  0.0446 -0.2438  0.0596
20333W        W36594  16.753  14.961   2.547  0.2977 -0.0643  0.3052
20334W        W36595   9.090  11.470  11.941 -0.0040  0.0441 -0.1201
20335W        W36596   0.777   7.377   3.172  0.1804 -0.0429  0.1540
20336W        W36597  11.720   2.290  12.455  0.0620  0.0707  0.1846
20337W        W36598   2.101   4.481   3.176 -0.0138  0.1155 -0.1756
20338W        W36599  12.501   6.685  11.790 -0.0874  0.1735  0.1965
20339W        W36600  12.566   8.741  14.395 -0.2176 -0.2962 -0.1212
20340W        W36601  11.588   9.659  13.242 -0.0507 -0.1730 -0.0377
20341W        W36602   9.319   2.535   3.430  0.1546 -0.0358  0.1864
20342W        W36603  12.261  16.842  15.579 -0.1370 -0.2071  0.0776
20343W        W36604  12.845   9.413   2.357  0.1261  0.1067 -0.4216
20344W        W36605  16.105   5.675   5.472 -0.2919 -0.0667 -0.1650
20345W        W36606   9.571   2.751   5.451 -0.0180 -0.2862 -0.0342
20346W        W36607   0.700   0.211   2.810  0.1261 -0.1084  0.0833
20347W        W36608  10.281  16.488   0.584 -0.2114 -0.0880  0.0642
20348W        W36609   3.777  13.694  13.685 -0.1229 -0.1092 -0.0434
20349W        W36610  14.538   3.481  12.186  0.0313  0.0995  0.0122
20350W        W36611   6.440   4.178  15.607  0.1256 -0.0386 -0.0922
20351W        W36612   3.136   0.687   3.424 -0.0414 -0.1851 -0.1503
20352W        W36613   1.129  15.131  13.190  0.0748 -0.0270 -0.2878
20353W        W36614   7.775   5.632  12.797 -0.0629  0.0772  0.0285
20354W        W36615   9.683   4.322  16.281  0.2972  0.2148  0.0297
20355W        W36616   4.972   8.084   2.888 -0.2471  0.1645 -0.1413
20356W        W36617   9.055   9.102   3.775  0.1915  0.1031 -0.3645
20357W        W36618  13.267  17.120   5.550  0.0813  0.0186  0.2534
20358W        W36619  13.558  15.705   0.841 -0.1264 -0.1156 -0.1407
20359W        W36620  14.572  15.438  12.218 -0.1435 -0.0231 -0.0627
20360W        W36621  13.049  15.805   4.247 -0.0938 -0.2126 -0.0165
20361W        W36622   7.074   7.795   4.581  0.0975  0.1778 -0.1055
20362W        W36623  10.012  17.175   3.595 -0.2125 -0.0429 -0.0820
20363W        W36624   3.613   0.211   2.625  0.3439 -0.1961 -0.1491
20364W        W36625  15.370  16.829  14.714  0.1041 -0.0892  0.0494
20365W        W36626   3.930   8.659   2.902  0.1892 -0.0290  0.2411
20366W        W36627   3.782   2.769  12.751 -0.0643 -0.2660 -0.1013
20367W        W36628  13.586   0.994  11.638  0.2717 -0.0513  0.2035
20368W        W36629   0.715  11.997  15.700 -0.0796  0.0049 -0.0742
20369W        W36630   9.904   5.270  12.184  0.1141 -0.2799 -0.1819
20370W        W36631  17.630   3.344   5.004  0.0601  0.0734  0.0183
20371W        W36632   9.929   3.401  12.607  0.0416  0.2922 -0.1720
20372W        W36633   6.594   5.617  13.649 -0.1438 -0.2933 -0.0644
20373W        W36634   8.145  14.777  13.220  0.0552  0.0664  0.0779
20374W        W36635  15.496   7.573   4.373  0.1128 -0.1893  0.0615
20375W        W36636  15.775  10.106   2.582 -0.0108  0.1810 -0.2875
20376W        W36637  12.446   1.539   2.640 -0.2262  0.2537 -0.1208
20377W        W36638  10.432   3.312  11.735 -0.0584 -0.0404 -0.1532
20378W        W36639   4.662  12.881  16.238 -0.2454 -0.0505  0.0695
20379W        W36640   5.115  17.427   0.355 -0.0073  0.1642 -0.0637
20380W        W36641  15.933  14.667   3.083 -0.1221  0.2425 -0.0073
20381W        W36642   5.842  12.296  16.384 -0.0969 -0.0230  0.2010
20382W        W36643  11.676   7.398   0.948 -0.2726  0.0347  0.1370
20383W        W36644  15.626  12.634  16.226 -0.1064  0.1469 -0.0056
20384W        W36645  10.051   1.775  11.628  0.2830 -0.0513 -0.1076
20385W        W36646   1.523  15.223   1.925 -0.0978  0.0578  0.1806
20386W        W36647   5.743   0.864   2.503  0.2138  0.0575  0.0340
20387W        W36648   0.605  15.453  15.000  0.4591 -0.1898 -0.2855
20388W        W36649  11.333   7.203  15.514 -0.2279  0.0555 -0.0529
20389W        W36650  12.884  15.295   4.099 -0.0649 -0.1023 -0.4296
20390W        W36651  10.949   7.140   2.118 -0.3646  0.0485 -0.0570
20391W        W36652   7.854  13.661  11.297  0.0989  0.0567  0.1901
20392W        W36653   1.686   3.863  14.567  0.2640  0.1386 -0.0341
20393W        W36654  10.623  13.274   5.469  0.1134  0.3052 -0.1124
20394W        W36655   0.262  11.896   0.082 -0.2963  0.0235  0.3301
20395W        W36656  10.264  13.981   4.760 -0.0078  0.4073 -0.0837
20396W        W36657   7.595  15.996   1.185 -0.2375 -0.3860  0.0263
20397W        W36658   8.848   7.789   1.799  0.1544 -0.2287  0.2700
20398W        W36659  12.409  16.914   0.054  0.4395  0.2214  0.1986
20399W        W36660   1.173   3.475  15.454  0.0546  0.0952  0.0655
20400W        W36661   4.525  12.313   5.007  0.0075  0.1153 -0.2185
20401W        W36662   2.257  13.202  16.818 -0.1257  0.0164 -0.1120
20402W        W36663  17.617   0.405   6.287  0.1674  0.0161 -0.0535
20403W        W36664  16.316  16.463   3.291  0.0373 -0.1472 -0.3835
20404W        W36665  15.447   9.335   1.200 -0.0967 -0.1730 -0.2132
20405W        W36666  13.169   3.604   3.065  0.2038  0.0256 -0.0469
20406W        W36667  16.938  10.703   3.673 -0.2685 -0.1895  0.2883
20407W        W36668   8.412  11.674  12.177  0.2205 -0.0987 -0.1212
20408W        W36669  16.025   0.269  12.661 -0.0658  0.1435 -0.1648
20409W        W36670  17.445   3.598  13.737  0.0202 -0.2181 -0.1302
20410W        W36671   7.548   6.745  16.919 -0.0015  0.3079  0.1887
20411W        W36672   7.145   3.211  15.137  0.0537  0.4450 -0.3349
20412W        W36673   6.188  13.177   1.947 -0.1465 -0.1540  0.2776
20413W        W36674   1.145  11.255   0.106 -0.0819  0.0797 -0.0505
20414W        W36675   8.757   5.274   1.712  0.1050 -0.1608  0.1195
20415W        W36676   1.416   8.065   3.000 -0.3497 -0.0412 -0.1929
20416W        W36677   0.362  14.825   1.473 -0.2208  0.2049  0.2134
20417W        W36678   1.414   9.435   2.210 -0.4148  0.2583  0.2291
20418W        W36679   2.417   7.716  12.190  0.0695  0.1207 -0.0917
20419W        W36680  10.450  13.940   4.285  0.1296  0.3793  0.3033
20420W        W36681  10.006   6.273   3.003 -0.0017 -0.1463  0.2794
20421W        W36682   9.805   0.222  15.029 -0.3104  0.2733 -0.1228
20422W        W36683  13.159   8.688   0.070 -0.2147 -0.1562 -0.0768
20423W        W36684  15.513  14.141   2.161 -0.4610  0.1466 -0.0795
20424W        W36685  15.048  17.238   3.351 -0.1194  0.0851 -0.0042
20425W        W36686   3.166   6.556  15.446 -0.0419 -0.3327 -0.0612
20426W        W36687  10.934  17.387   2.398 -0.2129  0.2551 -0.2147
20427W        W36688  14.750  12.620  14.321  0.0973 -0.0711 -0.1813
20428W        W36689  15.592  15.669  14.535  0.3451 -0.0785 -0.0115
20429W        W36690   8.039  14.579   2.776  0.0712  0.0334 -0.1332
20430W        W36691   1.902   1.665   1.294  0.1807 -0.2348 -0.0831
20431W        W36692   0.642  11.994   2.046 -0.1551  0.0985 -0.0173
20432W        W36693   1.657  10.692  14.711  0.1548  0.0856 -0.0514
20433W        W36694   1.170  17.067   2.222  0.3255  0.1142 -0.0784
20434W        W36695  13.077   7.206  14.254  0.1625  0.0720 -0.0523
20435W        W36696  11.843   2.830   6.227  0.0860  0.0906 -0.1502
20436W        W36697   8.436   1.158  11.876  0.1847  0.1596 -0.1825
20437W        W36698   1.849  13.406   1.931 -0.0134 -0.1048  0.0982
20438W        W36699   4.888   3.078   0.298 -0.0746  0.0856  0.0147
20439W        W36700  10.751   6.876  11.873 -0.1033 -0.1403 -0.1670
20440W        W36701  14.720  10.768   3.041 -0.1054 -0.2285 -0.0134
20441W        W36702   5.254  10.632  15.081  0.1380  0.0942  0.0068
20442W        W36703  12.273  14.973  16.813  0.0994  0.2839  0.3027
20443W        W36704   0.230   4.344  13.148  0.0720  0.0518 -0.0125
20444W        W36705  10.346  10.463  15.659  0.2294 -0.0392  0.0263
20445W        W36706   5.010   0.876  14.594  0.0830 -0.1834 -0.0182
20446W        W36707   0.442  10.693   3.762 -0.0916 -0.1150  0.1885
20447W        W36708   4.524   3.738   5.851  0.0170  0.0892 -0.0465
20448W        W36709  11.691  11.406   0.238 -0.1310 -0.2595 -0.1179
20449W        W36710   5.836   5.849  11.918  0.3473  0.0123  0.1832
20450W        W36711  16.491  16.064   6.222 -0.2788 -0.1710 -0.2595
20451W        W36712   8.823   5.680  11.986 -0.2356  0.2195 -0.1467
20452W        W36713  15.311  10.909  13.579  0.0621  0.1099  0.1018
20453W        W36714  12.549   4.601   1.381 -0.0705 -0.1118 -0.2082
20454W        W36715  13.584  12.493   3.825 -0.1071  0.0497  0.3738
20455W        W36716   5.981   0.479  14.426  0.3553 -0.0933 -0.2155
20456W        W36717  10.846  15.425  15.716  0.0797 -0.0308  0.2221
20457W        W36718  17.523   1.555   2.588 -0.6213 -0.2195  0.0771
20458W        W36719  15.533   4.465  12.967  0.2227  0.0589  0.0615
20459W        W36720   5.426  10.643  13.751  0.0130 -0.1438 -0.1591
20460W        W36721   2.502  17.192   0.328  0.2698  0.0886  0.0461
20461W        W36722   0.851   5.305  11.733 -0.0770  0.0148 -0.1591
20462W        W36723   8.663   2.327  12.287 -0.1162 -0.0688 -0.1161
20463W        W36724  13.637   1.995   6.103 -0.1222 -0.1203 -0.0194
20464W        W36725   9.132  12.004  12.823 -0.0497  0.1211 -0.1750
20465W        W36726  10.426  17.293   4.481  0.2801  0.1106 -0.4373
20466W        W36727   1.041   3.203   5.347 -0.1451 -0.1162  0.0495
20467W        W36728  16.448  11.823   0.009  0.4051 -0.1625 -0.0791
20468W        W36729   2.499  15.617  13.863  0.0312  0.0812  0.0165
20469W        W36730   6.586  12.225  12.340 -0.0678 -0.0087 -0.1070
20470W        W36731  10.250   4.695  15.424 -0.0804 -0.1963 -0.1590
20471W        W36732   1.356   2.633  16.196 -0.0216 -0.1326  0.1852
20472W        W36733  17.089  17.442   2.980  0.1428  0.1551  0.1490
20473W        W36734  16.281   0.512   2.681  0.0595 -0.2458 -0.0437
20474W        W36735  12.738  15.578   6.448 -0.3864 -0.1259  0.6498
20475W        W36736  10.933   1.522   4.435  0.0948 -0.1698  0.1876
20476W        W36737  17.590   3.057   5.919 -0.2691  0.1143  0.0419
20477W        W36738   6.092  11.423  13.950 -0.3128  0.0677 -0.2446
20478W        W36739  16.717   8.638   2.667 -0.2780  0.1721 -0.3228
20479W        W36740  11.882   1.847   5.266 -0.0242 -0.2050  0.2376
20480W        W36741  14.699   1.273   2.871 -0.0657  0.1333  0.0175
20481W        W36742  16.694   9.110   3.591 -0.1404 -0.2100  0.3801
20482W        W36743   4.782  15.300   0.939 -0.4359 -0.2400  0.1817
20483W        W36744   4.893   5.807   2.542 -0.0839 -0.3259  0.1422
20484W        W36745   4.211  15.028  14.405 -0.3846 -0.1346 -0.1804
20485W        W36746   4.991  12.169  11.938  0.1515  0.1655  0.0509
20486W        W36747   6.114   4.882  16.649  0.0456 -0.5159 -0.2146
20487W        W36748   4.136  15.238   5.736 -0.2830 -0.0242 -0.2321
20488W        W36749   5.132   3.168   0.777 -0.0582  0.0434 -0.3172
20489W        W36750  17.618   8.224   4.407  0.2704 -0.1445 -0.1139
20490W        W36751   9.191   4.348  14.748 -0.0262 -0.0880  0.0193
20491W        W36752  17.073  14.454   2.458 -0.1557  0.4526 -0.0006
20492W        W36753  12.942  13.626   0.282 -0.3342 -0.0426  0.0675
20493W        W36754  10.813   4.512  15.422  0.1636  0.2001  0.0800
20494W        W36755   5.062   2.643   5.349 -0.0925 -0.0505  0.3285
20495W        W36756   0.724   1.098  15.335  0.2657  0.3103  0.0572
20496W        W36757  12.112  13.460   1.500 -0.2407  0.3235 -0.0094
20497W        W36758   4.383  17.575  14.111  0.0920 -0.0137 -0.0455
20498W        W36759  12.524   8.727  12.659  0.3205  0.1858  0.0754
20499W        W36760   6.641   9.971  14.545 -0.1054  0.0974  0.2968
20500W        W36761  17.222  14.561  15.000 -0.0470 -0.1415  0.0375
20501W        W36762  12.206  13.908  16.293 -0.0258  0.1730 -0.0210
20502W        W36763   9.058   0.818   0.910  0.2311  0.3515 -0.1263
20503W        W36764   0.640  10.470   1.030  0.2951  0.1277 -0.1812
20504W        W36765  12.329  14.764   1.420  0.0760  0.3900  0.2846
20505W        W36766  10.690  14.891  12.537  0.2514 -0.2523  0.0471
20506W        W36767   0.727   8.554   0.404  0.0329  0.1120  0.0975
20507W        W36768  16.580  10.581   1.986  0.0476 -0.3040  0.0716
20508W        W36769   7.647   9.754   4.451  0.1756  0.1884 -0.0047
20509W        W36770  10.100   4.146   2.006  0.0222 -0.2188 -0.2119
20510W        W36771   9.182  10.198   4.905 -0.0417  0.3424  0.2397
20511W        W36772  13.852   4.052   1.486 -0.0735  0.3801 -0.0021
20512W        W36773  13.556  13.851   2.705  0.1626  0.0111 -0.2235
20513W        W36774   5.911   8.475  12.437 -0.0025  0.1697  0.0167
20514W        W36775  15.249  11.530   2.956  0.1317 -0.1634  0.0803
20515W        W36776  16.990  14.899  14.745  0.2340  0.0554  0.3617
20516W        W36777  16.325  10.964  15.803 -0.2906  0.1358 -0.1648
20517W        W36778   9.614  14.820  15.597 -0.0092  0.0930  0.0463
20518W        W36779   5.993   0.653   2.972  0.0257 -0.3140  0.0048
20519W        W36780   7.977  14.939   4.355 -0.1455 -0.3030 -0.3057
20520W        W36781   8.850  12.622  11.294  0.1569  0.1473  0.3055
20521W        W36782  13.121   5.799  15.791  0.0795 -0.0375  0.1398
20522W        W36783  10.353   4.632  11.846 -0.3292  0.0403 -0.0673
20523W        W36784  17.847  10.653  15.500 -0.5462  0.2497  0.1409
20524W        W36785   4.543   2.192  12.650 -0.4506 -0.2884 -0.1032
20525W        W36786   9.635  16.927  14.673 -0.1853 -0.2887 -0.0472
20526W        W36787   0.017   5.193  15.896 -0.1141  0.3525  0.0474
20527W        W36788   3.696  13.383   3.556  0.1358 -0.2721  0.1061
20528W        W36789   3.901   4.161   1.302  0.0784  0.1905  0.0591
20529W        W36790   2.734   9.751  11.985 -0.6110 -0.3581 -0.0920
20530W        W36791   4.350   2.908  16.874 -0.4060  0.1740 -0.0117
20531W        W36792   2.933   5.532   3.478  0.0583 -0.1206 -0.3240
20532W        W36793   3.144   3.820  16.687  0.0056  0.3604  0.0843
20533W        W36794   7.715  15.079  10.906 -0.0845 -0.1585 -0.2106
20534W        W36795   8.650  14.253   0.742 -0.3383 -0.3353  0.0929
20535W        W36796  10.224   1.677  14.147  0.5233 -0.0206  0.0795
20536W        W36797  14.482   0.039  13.247 -0.0422  0.0697 -0.3058
20537W        W36798  15.770   4.923  13.065 -0.1393  0.1129  0.3328
20538W        W36799  16.587  13.476  13.573  0.1188 -0.1747 -0.3309
20539W        W36800   7.416  10.175  15.273  0.1656  0.0831  0.2236
20540W        W36801  17.506   2.024   5.761 -0.2677 -0.1083  0.2435
20541W        W36802   6.406   2.851   2.291  0.0859  0.0142 -0.1467
20542W        W36803   7.972  10.136   4.399  0.0018  0.0333 -0.0080
20543W        W36804  16.148   4.288  13.763  0.1879  0.1161  0.1060
20544W        W36805   6.606   2.039  12.337  0.0035 -0.0402 -0.0170
20545W        W36806   0.788   4.220   0.160  0.1731  0.2387  0.1719
20546W        W36807  16.306   6.628   3.122  0.1271 -0.3425  0.1013
20547W        W36808   0.884   3.117   1.627 -0.2245  0.0412  0.0446
20548W        W36809  16.613   0.433   1.114  0.1389 -0.0876 -0.1212
20549W        W36810   0.232   1.730   2.635 -0.1036 -0.0545 -0.0900
20550W        W36811  15.451   0.874  12.276 -0.0508 -0.0903 -0.1292
20551W        W36812   3.254   5.235  14.370  0.1619  0.1844  0.3126
20552W        W36813  15.247   3.841  12.377  0.2763 -0.0354 -0.0169
20553W        W36814  11.743  10.832   5.646 -0.1899  0.2905 -0.0006
20554W        W36815  10.014   0.782  16.712 -0.3347 -0.3545  0.0108
20555W        W36816  14.639  10.540  13.197 -0.0930 -0.2364  0.1701
20556W        W36817   9.424   2.615  15.952  0.0760 -0.2838 -0.0339
20557W        W36818  17.075   5.804  14.852  0.2409  0.2971  0.0143
20558W        W36819  12.031   0.775  13.555 -0.3169 -0.0809 -0.1234
20559W        W36820  12.196   3.939  16.279 -0.1790 -0.2230  0.1213
20560W        W36821   7.358   4.713  13.672  0.0947  0.0963  0.0633
20561W        W36822   4.292   4.537  12.395  0.2319 -0.2424  0.0193
20562W        W36823   0.248  14.329  14.844 -0.0092 -0.2805  0.0002
20563W        W36824   6.760   8.826  13.820 -0.1672  0.2144 -0.1486
20564W        W36825   8.013  14.870  15.038  0.0022  0.1524 -0.3072
20565W        W36826   5.111   4.911   1.440 -0.0274  0.0354  0.1799
20566W        W36827   2.180  15.269   0.004 -0.2121  0.2990 -0.1187
20567W        W36828  16.336   1.314   4.655  0.0663  0.1539  0.1286
20568W        W36829   1.951   0.752   1.884 -0.2181  0.0345 -0.0775
20569W        W36830  14.595   4.551   3.504  0.1399 -0.1085  0.0285
20570W        W36831   3.550   3.114   5.899  0.0703  0.1183  0.1526
20571W        W36832   1.248  11.080   4.226  0.0006 -0.0835  0.0324
20572W        W36833  10.375   4.352  15.729  0.3732  0.0509 -0.4551
20573W        W36834   9.061   4.021  13.516 -0.0887 -0.1874 -0.3053
20574W        W36835  13.956  10.163   2.691 -0.2692 -0.0728  0.3253
20575W        W36836  14.095  10.599  13.426 -0.2801 -0.1940 -0.2059
20576W        W36837  11.079   6.804   0.761  0.2546  0.1470 -0.0981
20577W        W36838   6.645  17.073   1.599 -0.0530 -0.3284 -0.0451
20578W        W36839  10.570   1.117  12.769 -0.0150 -0.2207  0.0207
20579W        W36840   1.507  14.647   4.199 -0.1301  0.1157  0.0009
20580W        W36841   1.620   4.273   1.176  0.1759  0.0237  0.2399
20581W        W36842   9.847  14.126  16.738  0.2969 -0.0661  0.0423
20582W        W36843   0.206   3.794   3.279 -0.0668  0.1213  0.2862
20583W        W36844  15.041   4.045  15.018 -0.0612 -0.0157 -0.3158
20584W        W36845   1.768  17.544  11.971  0.0750  0.2201  0.3396
20585W        W36846  13.131   8.936   5.218  0.2498  0.0347  0.2292
20586W        W36847   0.738  14.742   3.519 -0.0732  0.1416 -0.0486
20587W        W36848  11.024   3.727  15.956 -0.0904 -0.0241 -0.0307
20588W        W36849  15.742  15.546  14.008 -0.1387 -0.2592  0.3069
20589W        W36850   8.720   5.658  14.086 -0.0959 -0.0652 -0.0253
20590W        W36851   1.097  12.685  14.490 -0.0960 -0.2758 -0.1601
20591W        W36852  11.437   5.011   0.129 -0.0225 -0.0674  0.2382
20592W        W36853  13.235   3.509   0.701  0.2819 -0.1111 -0.1578
20593W        W36854  10.790  11.691  14.573  0.1268 -0.0259  0.0412
20594W        W36855   0.561   5.944   0.877 -0.0504  0.0473 -0.0241
20595W        W36856  11.158   4.415   4.601  0.1691  0.1612  0.0012
20596W        W36857  11.843   3.788  13.455  0.0277 -0.2417  0.0510
20597W        W36858  11.121   3.598   3.470 -0.0964 -0.1336 -0.0406
20598W        W36859   1.288  13.982   1.673 -0.2554 -0.3679 -0.0330
20599W        W36860  11.283   0.761  13.880 -0.2348 -0.1314  0.1830
20600W        W36861  16.244   7.946  13.349 -0.3041 -0.2683  0.4055
20601W        W36862   6.488  12.485  14.628  0.0709 -0.2745 -0.1307
20602W        W36863   3.552   7.904  14.740  0.0572  0.1377  0.1934
20603W        W36864  14.194   6.571  16.247  0.0033  0.1252  0.3713
20604W        W36865   5.947   2.673   2.421 -0.2039 -0.0939  0.0567
20605W        W36866   7.448   6.731  12.598  0.0850 -0.3017 -0.0634
20606W        W36867   0.985  15.109  15.145 -0.2006  0.0727  0.1289
20607W        W36868  11.069   7.562  15.644 -0.2493 -0.0451 -0.1628
20608W        W36869   5.030   8.793  16.143  0.1066 -0.1784  0.0614
20609W        W36870  10.543   2.338  12.925  0.1541 -0.1766  0.2356
20610W        W36871   8.395   7.659   2.974 -0.0489 -0.0109 -0.0528
20611W        W36872   0.982  11.674   2.295  0.1241  0.2955  0.1718
20612W        W36873   8.637  17.058   0.365  0.0425  0.4490 -0.0594
20613W        W36874  10.036  14.431  11.321 -0.0716 -0.2758  0.0081
20614W        W36875   4.596   7.701  14.409 -0.0161  0.3585 -0.2413
20615W        W36876   6.732   8.414   0.492  0.1461  0.0951 -0.1109
20616W        W36877   1.489  15.932  16.301  0.1542 -0.0290  0.1170
20617W        W36878  15.932  11.971   3.230 -0.1058  0.1637 -0.0588
20618W        W36879  12.226   2.621  15.637  0.3036  0.2067 -0.0324
20619W        W36880   3.704  11.613  13.545  0.0614 -0.0789 -0.0529
20620W        W36881  10.903   6.312   2.888  0.1789  0.1679  0.1339
20621W        W36882  12.059  12.707   4.048  0.0301  0.2246  0.1845
20622W        W36883  15.893   3.936   4.425 -0.0901 -0.2577 -0.1737
20623W        W36884  13.646   1.217  11.160  0.0841 -0.1213  0.1055
20624W        W36885   0.700   2.753  13.833  0.1910 -0.0472  0.0305
20625W        W36886  17.251   9.964  12.432 -0.1292 -0.2331  0.0914
20626W        W36887  10.265   9.909  13.145 -0.1959  0.1071 -0.0103
20627W        W36888   2.620   3.536  16.809  0.0278 -0.0459 -0.3038
20628W        W36889   0.822  15.526  16.755  0.2204 -0.1279  0.0700
20629W        W36890   7.758  11.885   4.030 -0.0066  0.2436  0.0303
20630W        W36891   6.850  17.598  16.471  0.1004  0.4095  0.2456
20631W        W36892   6.014  14.217  15.129 -0.3285  0.0308 -0.0206
20632W        W36893   4.750   6.570   3.755  0.1217 -0.1746  0.0133
20633W        W36894  12.740   9.437   1.346 -0.1220 -0.0802 -0.0566
20634W        W36895   5.675   9.439  13.328  0.3671  0.0909  0.1764
20635W        W36896   3.153   3.642   3.470  0.0458  0.0464  0.1072
20636W        W36897   6.132   3.609  13.431 -0.1901  0.0492  0.2199
20637W        W36898  17.017  16.085  16.255  0.1799  0.1465  0.2432
20638W        W36899   8.340   7.876   0.474 -0.2434 -0.0071  0.1957
20639W        W36900   7.359   6.285  16.313  0.0116  0.1226  0.3359
20640W        W36901   8.417   5.102  14.203  0.2784  0.1116  0.2200
20641W        W36902   8.603  17.100  15.930 -0.2858 -0.1021  0.0946
20642W        W36903  17.472   6.382   2.470 -0.2619  0.0806  0.3573
20643W        W36904   7.877  10.512  11.531 -0.0512  0.0452 -0.2504
20644W        W36905  12.534   9.298  15.904 -0.0173  0.0411 -0.0537
20645W        W36906   1.798   6.819   1.631 -0.2206  0.1957 -0.2288
20646W        W36907  15.651   2.474   0.613  0.0393 -0.2513 -0.1247
20647W        W36908   4.715  11.327   1.156  0.0295  0.2975 -0.1855
20648W        W36909   3.316   4.958   1.340 -0.0780 -0.2373 -0.0866
20649W        W36910   5.572  13.502   4.776  0.2634  0.0931 -0.4230
20650W        W36911   5.339   0.658   5.672 -0.1567  0.0949 -0.0093
20651W        W36912   6.887  16.825   1.999 -0.0311  0.2585 -0.0222
20652W        W36913   7.781  16.865  13.638 -0.0022  0.2823  0.0729
20653W        W36914  10.415  13.426   0.194  0.0822 -0.3485 -0.2749
20654W        W36915   3.382  14.736   1.895 -0.1285 -0.1480  0.1355
20655W        W36916   8.235  16.540   5.118  0.1866 -0.1500  0.0763
20656W        W36917   7.957   6.346  12.116 -0.1181  0.1463  0.1988
20657W        W36918  14.118   1.297   0.723  0.0804  0.0329  0.0253
20658W        W36919  17.449  17.601  12.994 -0.2910  0.0116 -0.2305
20659W        W36920   9.463  10.200  16.465 -0.0244  0.0102 -0.0904
20660W        W36921   3.798  14.018   3.183  0.2512  0.4427 -0.1611
20661W        W36922  14.681  10.794  12.300 -0.0575 -0.0543  0.1933
20662W        W36923  15.765  11.264   2.985  0.0683  0.1499 -0.0632
20663W        W36924  14.669  12.448   5.984 -0.1406 -0.0394  0.0684
20664W        W36925   7.740  13.277   0.477  0.2658 -0.2236  0.1213
20665W        W36926  15.978   9.739  13.678  0.1149  0.3931  0.2975
20666W        W36927   5.335  11.774  11.706 -0.3929  0.0151 -0.0165
20667W        W36928  17.004   1.763   0.216 -0.0157  0.2462  0.1085
20668W        W36929   6.399   1.282  16.588  0.0928  0.0004  0.0570
20669W        W36930   3.911  10.471   4.580  0.4379 -0.1878  0.0247
20670W        W36931  12.268   4.336   3.983 -0.1046 -0.0115 -0.3080
20671W        W36932   0.649  15.149  14.590 -0.0258  0.3050 -0.3053
20672W        W36933   2.225   9.002  11.767 -0.0700 -0.1543  0.3022
20673W        W36934   7.035   4.046  12.340 -0.0898  0.0014  0.1735
20674W        W36935  15.780  16.186  15.055 -0.0632 -0.4568 -0.0590
20675W        W36936   4.190   8.750   4.727  0.0121 -0.3594 -0.0056
20676W        W36937  16.795   1.804   1.285 -0.2730 -0.2002 -0.2483
20677W        W36938  14.192  13.162   2.678 -0.2788 -0.1825  0.2304
20678W        W36939   3.038   2.637  13.774 -0.3320  0.1808  0.2104
20679W        W36940  10.081   3.197  15.581  0.3089  0.1066  0.0645
20680W        W36941  17.590  13.637  15.216  0.0688 -0.0232 -0.2323
20681W        W36942  10.214  15.300   2.117  0.0481 -0.2979 -0.2064
20682W        W36943   9.670  11.428   3.150 -0.0060  0.3152 -0.0276
20683W        W36944   4.846  16.237   1.253 -0.2112  0.1777 -0.0050
20684W        W36945  12.888  15.456   5.978 -0.0622  0.0855  0.3985
20685W        W36946  16.633  11.429   4.204 -0.1153  0.2822 -0.1023
20686W        W36947   7.890   3.060  14.342  0.1357  0.0357  0.0335
20687W        W36948   0.795   7.533  15.013 -0.2779  0.3026  0.1752
20688W        W36949   7.359   1.135  15.124  0.1163  0.0323  0.1139
20689W        W36950  15.632   0.965   6.274 -0.1061 -0.0152  0.0200
20690W        W36951   5.761   8.279  14.372 -0.1471  0.1152 -0.0651
20691W        W36952  13.712  11.048   0.525  0.1449  0.3389  0.0429
20692W        W36953  11.972  17.506   2.824  0.0801 -0.0647  0.1547
20693W        W36954  16.281  15.945   4.623  0.1305  0.0172  0.2807
20694W        W36955  13.368  13.230  14.025  0.1099  0.0176 -0.0578
20695W        W36956  10.192  10.896   0.854 -0.1636 -0.0944  0.3523
20696W        W36957  11.779  13.973  13.059  0.0073 -0.0374  0.3283
20697W        W36958   1.888   8.893   5.453  0.0928  0.0571 -0.0305
20698W        W36959   7.488   6.213  14.453 -0.1681 -0.1443  0.0058
20699W        W36960   1.227   2.495  15.743 -0.0135 -0.3990 -0.2162
20700W        W36961  12.072  16.546  11.503  0.0105 -0.0552  0.0066
20701W        W36962  17.421   6.886   4.308  0.1696 -0.0493 -0.0975
20702W        W36963  10.097   8.194   1.563 -0.2179  0.0751 -0.1723
20703W        W36964   8.257   0.990   5.523 -0.0104 -0.0294  0.1531
20704W        W36965   2.594  15.452  11.101 -0.2534  0.2240 -0.2494
20705W        W36966  10.762   5.899   2.350 -0.1163  0.2756 -0.1317
20706W        W36967  17.009  15.691  13.916 -0.3823  0.1222  0.1406
20707W        W36968   1.868   6.951   3.905 -0.1459  0.0620 -0.0220
20708W        W36969   1.160   0.763   2.090  0.3566  0.0068 -0.2680
20709W        W36970  13.268  10.449  13.510  0.0187  0.1189 -0.0984
20710W        W36971  10.442  11.202   4.481 -0.1211 -0.1123 -0.1396
20711W        W36972  13.056  12.812   3.672 -0.3199  0.2009 -0.1330
20712W        W36973   5.851   5.124   5.432  0.5235  0.0711 -0.0478
20713W        W36974   7.595  15.872   0.156 -0.0670 -0.0390  0.3088
20714W        W36975  16.501   6.809  16.542 -0.2386  0.0130  0.0342
20715W        W36976   1.398   4.213  13.204 -0.0844  0.0186  0.0377
20716W        W36977   9.201   3.701  14.841 -0.1652  0.0536 -0.0792
20717W        W36978   6.208   4.257  11.917  0.0802  0.2936 -0.1049
20718W        W36979   6.114   3.801   2.649 -0.2707  0.0983  0.0181
20719W        W36980   7.996   9.881  12.765 -0.0058  0.1676 -0.0929
20720W        W36981   7.549   8.097  13.783 -0.1488  0.2223  0.1248
20721W        W36982  14.428   6.128  14.998  0.2102  0.2260 -0.0568
20722W        W36983   7.386  11.582   2.714  0.0134  0.1796  0.1768
20723W        W36984   0.800   3.224  14.063 -0.0126  0.0010  0.0040
20724W        W36985   6.856   4.642  13.637 -0.1380  0.1310  0.1631
20725W        W36986  10.482  16.703  16.066  0.2781  0.1205  0.0810
20726W        W36987   1.762  13.597   5.135 -0.1856  0.3703  0.1315
20727W        W36988   8.213  15.676  13.509  0.3357 -0.3198 -0.0388
20728W        W36989   6.579   9.569   2.835 -0.1674 -0.2407 -0.2886
20729W        W36990  10.051   4.197   0.104 -0.0984  0.1544 -0.1160
20730W        W36991   2.996   3.389  11.917  0.1019 -0.0707  0.0425
20731W        W36992   9.636   7.664   5.312 -0.0589 -0.0219  0.1769
20732W        W36993  11.968   9.808  14.299  0.1231  0.3427  0.3219
20733W        W36994   9.071   0.823   3.999  0.1066 -0.0759 -0.1911
20734W        W36995  13.804   9.089  12.698  0.1184  0.0411 -0.2972
20735W        W36996   9.821   3.564   5.692 -0.2492  0.2250  0.1427
20736W        W36997  16.048   6.322   0.801 -0.0572 -0.1254 -0.0690
20737W        W36998  17.220   4.186   1.077 -0.1694 -0.3291 -0.0641
20738W        W36999   0.247  16.970  15.890 -0.0590 -0.0195 -0.1718
20739W        W37000   1.118  12.157  16.805 -0.0448 -0.0378  0.2976
20740W        W37001   6.208   6.114  12.120  0.1091 -0.0297 -0.0112
20741W        W37002  11.939   3.852   1.011  0.0193 -0.2325 -0.2250
20742W        W37003   8.242   2.748   0.226  0.0849 -0.0175  0.2735
20743W        W37004  10.836  11.521   1.514  0.1925  0.0889  0.1211
20744W        W37005  16.135  15.569   1.042  0.0432  0.0428 -0.1626
20745W        W37006   7.250  10.317  16.557  0.1096 -0.1286 -0.0610
20746W        W37007   9.851  13.307  12.514  0.0486 -0.2114 -0.0760
20747W        W37008  13.891   7.383   1.327 -0.1069 -0.1664  0.0644
20748W        W37009   2.731  10.113   3.910 -0.1283  0.1339 -0.1313
20749W        W37010  15.802  17.013  12.614  0.0038  0.0305  0.2386
20750W        W37011  17.326  12.764  15.190 -0.0004 -0.1999  0.3973
20751W        W37012   0.035   2.768  13.691  0.0681 -0.0013 -0.1708
20752W        W37013   8.413  14.906   1.504  0.1733  0.2086 -0.1469
20753W        W37014  13.856   6.322   4.301 -0.0675 -0.1548 -0.4336
20754W        W37015  13.015  10.917  10.602  0.3383 -0.0109  0.1095
20755W        W37016  12.191  15.979   2.840  0.0307 -0.0501 -0.0472
20756W        W37017   6.623   6.329  12.854 -0.1731 -0.1565  0.0820
20757W        W37018   7.248  11.221   6.091  0.1284  0.1555 -0.0648
20758W        W37019   3.451   9.926   4.002 -0.0387  0.1971 -0.1054
20759W        W37020   3.670   3.139   1.936  0.0694 -0.1825 -0.1924
20760W        W37021   1.686  17.745   2.914 -0.2191  0.1839  0.1505
20761W        W37022   1.110  13.249   5.745  0.2982 -0.1127 -0.0867
20762W        W37023  12.177   5.730   2.059  0.1312  0.5012  0.0620
20763W        W37024  11.123  11.130  13.617  0.2086  0.0555  0.1588
20764W        W37025  13.609   9.957  12.320 -0.4783  0.0537  0.1836
20765W        W37026  17.071   7.184   0.354  0.1110 -0.1048  0.2526
20766W        W37027   6.655  16.857   0.716  0.2666  0.0382  0.5116
20767W        W37028  14.456   1.186  16.045 -0.0237  0.0163  0.0324
20768W        W37029  10.552   5.792   4.550  0.0879 -0.2521  0.0213
20769W        W37030  15.777  12.002   0.564 -0.0127  0.1135 -0.0485
20770W        W37031  15.455  13.013   1.998  0.1617  0.1170  0.0074
20771W        W37032  10.815  17.769  14.592 -0.0465 -0.3679 -0.1455
20772W        W37033   9.157  12.564   0.805  0.2250 -0.0613  0.1668
20773W        W37034  17.746   0.167  13.036 -0.1744 -0.1556 -0.2140
20774W        W37035   4.679  13.334  14.389 -0.1634  0.1501 -0.0425
20775W        W37036   4.796  15.062  13.097 -0.1183 -0.3065  0.0446
20776W        W37037   4.830  15.534   3.943 -0.1125 -0.0127 -0.0732
20777W        W37038   7.190  14.043  13.773  0.1921 -0.0658  0.2021
20778W        W37039  12.560   5.560  13.162  0.1960  0.1716  0.1146
20779W        W37040  12.736   4.158   1.080  0.0090  0.2141  0.1312
20780W        W37041  17.512   4.184   3.985  0.1972 -0.0544 -0.3787
20781W        W37042  14.214  14.044  13.778  0.0415  0.0448 -0.0795
20782W        W37043  16.416   9.173   5.709 -0.0536  0.0374 -0.0749
20783W        W37044   9.178   4.753  16.902  0.1014  0.2327 -0.0861
20784W        W37045   2.073   8.689  16.299  0.0380  0.0024  0.0298
20785W        W37046   4.349  15.956   1.819  0.3183 -0.2027 -0.0909
20786W        W37047  13.622  14.817  14.289 -0.2255  0.1160 -0.0622
20787W        W37048  16.528   5.692   0.530 -0.0717  0.0931  0.0098
20788W        W37049  15.037   4.388  15.454  0.1313  0.1908  0.0256
20789W        W37050  10.272   7.094  12.429  0.1174  0.0502 -0.3073
20790W        W37051   2.295   8.156   2.102  0.1540 -0.0369 -0.0021
20791W        W37052  14.172  10.641  12.088  0.3387 -0.4207 -0.2135
20792W        W37053   6.835   3.679   1.318 -0.1750 -0.2257  0.0732
20793W        W37054  14.051   0.798  13.851  0.1754  0.0807  0.1966
20794W        W37055  15.298   4.830   0.239  0.1056 -0.2856  0.3592
20795W        W37056   3.120  10.546  16.741  0.0762  0.2473 -0.1360
20796W        W37057  16.082   8.268  11.687  0.1741  0.0935 -0.3344
20797W        W37058   3.798  12.830   1.786  0.0397 -0.0837  0.0444
20798W        W37059   3.917   0.477   0.534 -0.0955  0.2235 -0.3168
20799W        W37060   6.759   6.075   1.261  0.1202 -0.0028 -0.0688
20800W        W37061  13.618  14.260   1.387  0.1586 -0.1153 -0.1656
20801W        W37062   8.892  10.954   1.475  0.1203  0.2090  0.0303
20802W        W37063  12.527   4.120  11.830  0.1405 -0.0684 -0.0028
20803W        W37064  12.156   3.441  15.492  0.2596  0.1940  0.0059
20804W        W37065   2.854   3.850   0.181  0.2825 -0.2346  0.2768
20805W        W37066   7.286  15.447  13.256 -0.0109  0.1180 -0.1785
20806W        W37067   1.290  13.626   4.433  0.3526 -0.0806 -0.0724
20807W        W37068  12.218  15.481  10.838 -0.3013  0.1554  0.3191
20808W        W37069   9.912   1.425   4.140  0.0839 -0.1629  0.1719
20809W        W37070   2.461  15.659   4.027 -0.0843 -0.1830  0.2989
20810W        W37071   9.684   9.857   0.812  0.2287 -0.0775  0.1921
20811W        W37072  13.874   7.099  15.525 -0.2905  0.0775  0.2393
20812W        W37073   9.188   3.075   0.493  0.1109  0.1485  0.0963
20813W        W37074  16.524   8.850   5.317  0.0740 -0.2460  0.0253
20814W        W37075  14.116  11.834  11.443  0.1661  0.0339  0.2217
20815W        W37076   7.908  14.672  11.165  0.2812 -0.4328  0.1736
20816W        W37077  11.441   1.999   3.849 -0.4211 -0.3130 -0.0337
20817W        W37078   8.162   7.855  12.514  0.0728  0.1897 -0.0787
20818W        W37079   9.446   3.588  16.841  0.0030  0.4372 -0.0534
20819W        W37080  11.393   8.609  12.276  0.3512  0.0696  0.1042
20820W        W37081   6.039  12.385   5.109 -0.0055 -0.1515 -0.1573
20821W        W37082  15.990  13.970  15.151 -0.0864 -0.1182  0.0049
20822W        W37083   2.847   8.917   4.604 -0.0680  0.0136  0.2689
20823W        W37084   1.509  15.153  11.794 -0.3360 -0.3750 -0.1107
20824W        W37085   6.502  11.710  14.030  0.2539  0.1366 -0.3705
20825W        W37086   0.323   4.932  12.399  0.0190  0.2397 -0.2614
20826W        W37087  16.889   9.232  13.486 -0.1556 -0.0281 -0.4324
20827W        W37088  12.440  13.747  13.069  0.1287  0.2483  0.0197
20828W        W37089  17.513   5.818  13.159 -0.0548  0.1935  0.0809
20829W        W37090   1.323   8.713   4.644  0.2701  0.0259 -0.3666
20830W        W37091   3.593   8.591  15.523  0.0724 -0.0085  0.1778
20831W        W37092   3.419   2.568   3.789 -0.1912  0.2966 -0.0154
20832W        W37093   6.625   0.676  11.404  0.0036 -0.1717  0.1982
20833W        W37094  14.274  12.267  16.524  0.2270 -0.3702  0.0924
20834W        W37095   2.754   2.813  15.566 -0.0839  0.3113 -0.2686
20835W        W37096   9.954   7.850   3.885 -0.0154 -0.0168 -0.2665
20836W        W37097   2.689  12.634  11.341  0.0066 -0.1250  0.2228
20837W        W37098  14.533   9.256  16.499 -0.0385  0.2420  0.0819
20838W        W37099   1.968   4.727  12.691 -0.1614  0.1782 -0.3765
20839W        W37100   2.620  11.615  12.861 -0.0471 -0.1702 -0.2075
20840W        W37101   5.808   7.179  16.369 -0.0614 -0.0044 -0.0877
20841W        W37102  10.440   9.538   3.392 -0.1392  0.2431 -0.1756
20842W        W37103   0.118  16.786  12.999  0.1287  0.2010 -0.3907
20843W        W37104   4.298   8.184  16.321 -0.1506 -0.0159  0.0161
20844W        W37105   6.484   2.509  11.887 -0.2663  0.1440 -0.0930
20845W        W37106   2.691   1.869   3.051 -0.0680  0.1497  0.0264
20846W        W37107  16.370   2.761  10.908  0.1547  0.1028 -0.0263
20847W        W37108   2.517   1.304  12.155  0.2343 -0.2059  0.2793
20848W        W37109   0.995   9.640   2.103  0.2238 -0.0928  0.0615
20849W        W37110   8.198   7.812   2.533 -0.0331  0.1390  0.2770
20850W        W37111  13.505   4.466   1.775 -0.4555  0.2484 -0.1739
20851W        W37112  16.486   6.350  16.021  0.0395  0.0436  0.0137
20852W        W37113   7.639  15.733  13.582  0.1210 -0.0184  0.2012
20853W        W37114  14.869  15.718   3.539 -0.0388 -0.2459 -0.1259
20854W        W37115  14.823  13.268   4.755  0.0228  0.0041 -0.1955
20855W        W37116  16.962   1.854   4.386 -0.0657 -0.1474 -0.1049
20856W        W37117   2.540  15.628   0.271 -0.2007 -0.0281  0.2135
20857W        W37118  13.973  16.978   1.661 -0.3158 -0.0941 -0.1901
20858W        W37119   9.993  10.387  12.101  0.1397  0.1550 -0.3040
20859W        W37120   9.035  13.171   4.599  0.2635 -0.0410 -0.1543
20860W        W37121  17.258   1.552   3.124 -0.1461  0.0929 -0.0168
20861W        W37122  11.021  12.075   1.999  0.1442 -0.0120  0.0489
20862W        W37123   2.506  12.892  13.925 -0.2161 -0.0413 -0.1075
20863W        W37124   7.564   6.125  12.789 -0.0775  0.0213 -0.1063
20864W        W37125   3.128   3.226   5.129 -0.2895  0.0142 -0.2699
20865W        W37126   5.797   0.909   3.871 -0.0703 -0.2090 -0.2635
20866W        W37127   1.430   6.317  15.368  0.0416 -0.2471 -0.1262
20867W        W37128   6.463  14.537   4.663  0.0874 -0.2187  0.2098
20868W        W37129  14.573  14.276  12.262  0.0949 -0.0034  0.2058
20869W        W37130   2.482   4.732  12.902 -0.2692 -0.1396  0.1345
20870W        W37131  11.873   4.940  16.939 -0.1188  0.0471  0.3362
20871W        W37132   3.286   5.595  12.463  0.1341 -0.2218  0.1491
20872W        W37133   7.496  14.681   4.731  0.0308 -0.6267 -0.2842
20873W        W37134  15.773  17.351  11.118  0.1049  0.2328  0.3785
20874W        W37135  10.395   5.976  16.670  0.1495  0.2607 -0.0618
20875W        W37136   9.830   9.303  16.376 -0.2216 -0.2020 -0.1087
20876W        W37137   6.420   6.108   0.873 -0.1109  0.1538 -0.0388
20877W        W37138  13.705   0.901   0.896 -0.0239 -0.0083  0.0849
20878W        W37139   7.310  10.202  12.171  0.0852 -0.1522  0.1385
20879W        W37140   5.127  14.120  16.243  0.2177  0.0643 -0.0645
20880W        W37141  16.648   9.317   0.559 -0.0624  0.2171  0.0779
20881W        W37142   1.030  12.435   4.419 -0.0851 -0.1964 -0.0155
20882W        W37143  15.475  15.613  12.426  0.2284  0.1358 -0.1495
20883W        W37144   3.075   1.049   1.410 -0.0805 -0.0413 -0.0140
20884W        W37145  17.828   8.501   0.577 -0.2171  0.0072 -0.3508
20885W        W37146   4.876  12.426   5.324 -0.2325 -0.0340  0.2357
20886W        W37147   4.539  14.031   1.583  0.4790  0.2162 -0.4732
20887W        W37148  13.954   3.386  14.356  0.2568 -0.0466  0.0159
20888W        W37149  15.684  16.086  13.029  0.2186 -0.1777 -0.0600
20889W        W37150   7.618   4.575   5.702  0.2444  0.0783 -0.1487
20890W        W37151   4.335   9.919  11.891 -0.1451 -0.1301 -0.0802
20891W        W37152  11.356   5.470   0.208  0.3239  0.1216 -0.3108
20892W        W37153  15.908   9.801   1.768 -0.0059  0.0740 -0.1474
20893W        W37154  15.492   8.350  15.715  0.1152  0.2676  0.2418
20894W        W37155  14.335   4.022  14.819  0.0193  0.1076  0.1131
20895W        W37156  11.495   6.216   2.140  0.0213  0.1669  0.1440
20896W        W37157  10.959   1.615  14.750 -0.0724 -0.1167  0.2031
20897W        W37158   0.658   8.528  12.564 -0.2645 -0.0736 -0.4184
20898W        W37159   5.534   8.861   6.262 -0.0140  0.3678 -0.1885
20899W        W37160  14.097  15.722  11.901  0.2582  0.1703  0.1930
20900W        W37161   1.575  13.050   4.558 -0.2085  0.0987  0.3207
20901W        W37162   4.905  11.286  13.146  0.2095 -0.7426 -0.1377
20902W        W37163   4.326  11.110   0.833 -0.0196  0.1385  0.0417
20903W        W37164  17.307   0.625  12.479  0.0841 -0.2457 -0.1251
20904W        W37165   5.296  16.496  13.412  0.3128  0.0417  0.0347
20905W        W37166   6.031   8.944   2.295 -0.0063  0.1184  0.4131
20906W        W37167  11.533   6.936   0.836  0.1543  0.0646 -0.1246
20907W        W37168   5.746  13.019  15.983 -0.1242 -0.1871  0.2272
20908W        W37169  10.519   3.034   0.728  0.1426  0.3290  0.1536
20909W        W37170  10.910  11.669  16.317  0.0430 -0.1039  0.3628
20910W        W37171  14.017  15.692   1.192 -0.2690  0.2770 -0.0158
20911W        W37172   5.490  12.087   1.913 -0.0253  0.0243  0.1587
20912W        W37173  13.479   9.142   0.307  0.0318 -0.0397 -0.1801
20913W        W37174  13.149   4.979  14.911 -0.0402 -0.3050 -0.4604
20914W        W37175  12.086   7.284  10.662 -0.0378 -0.1793  0.1596
20915W        W37176   4.935  12.794   0.319  0.0639 -0.0765 -0.1216
20916W        W37177   6.380  14.851  12.914 -0.0408 -0.1757 -0.1408
20917W        W37178  16.949  14.862   4.223  0.1188 -0.0043  0.1162
20918W        W37179  10.847   0.464   3.599  0.2534 -0.1056  0.2709
20919W        W37180   9.592   1.700  14.671 -0.1837  0.1134  0.1572
20920W        W37181  16.325   2.142   6.182  0.2445  0.0366  0.5749
20921W        W37182   5.020   7.940   0.862  0.2039 -0.1001 -0.1113
20922W        W37183  11.624  17.702  16.943  0.0246  0.2100 -0.2021
20923W        W37184  16.466   7.083  13.997  0.2219 -0.0346  0.1170
20924W        W37185   2.341   6.670  16.392  0.1193  0.3004 -0.0170
20925W        W37186   5.910   1.730  15.911 -0.2839  0.2134 -0.2462
20926W        W37187  14.295   6.546  16.770  0.1529  0.2183  0.0670
20927W        W37188   3.384   9.275  13.187 -0.3187  0.1229 -0.2080
20928W        W37189   9.130   3.732   5.255 -0.0909  0.3012  0.2674
20929W        W37190  13.224  16.935  16.212 -0.1744  0.0673  0.1554
20930W        W37191   1.010   2.728   5.430  0.0195 -0.0484  0.1488
20931W        W37192   6.636   1.528   0.921  0.0570  0.3024 -0.0681
20932W        W37193  14.799  16.344   3.557  0.3328  0.0738 -0.1331
20933W        W37194   8.627  13.756   2.283  0.0117  0.0793  0.1509
20934W        W37195   6.945   4.381   2.749 -0.0484  0.3047  0.0021
20935W        W37196   7.740  12.008   3.543  0.0704 -0.4619  0.1108
20936W        W37197   0.618  14.727   4.279 -0.1355  0.0300 -0.1551
20937W        W37198   2.671   3.782  15.363  0.1864 -0.1948 -0.0438
20938W        W37199   1.819   9.799  13.414  0.0242 -0.0322  0.1597
20939W        W37200  11.976   8.825   5.508  0.0344  0.1291 -0.1249
20940W        W37201   2.192  12.681   4.985 -0.0352 -0.2200  0.1596
20941W        W37202   6.303  12.842   3.030  0.0073 -0.0174 -0.4835
20942W        W37203   0.685  16.693  13.304  0.0601  0.3918 -0.4781
20943W        W37204  17.821   5.829   4.149  0.3876 -0.0516  0.2441
20944W        W37205  11.911   5.028  14.850  0.3804 -0.1293  0.3548
20945W        W37206   1.837   8.468  14.813 -0.0020  0.2279 -0.0427
20946W        W37207  17.034   1.565   2.628 -0.0823  0.1181 -0.0908
20947W        W37208  10.372   3.511   5.562  0.1495 -0.1712  0.0692
20948W        W37209   0.830  13.969   3.098  0.1456  0.4203 -0.2388
20949W        W37210  16.883  17.196   5.591  0.0518  0.3156  0.1108
20950W        W37211  17.790  12.946  15.409  0.2410  0.1266 -0.3608
20951W        W37212   6.363   0.885  15.756 -0.2290  0.3461  0.0677
20952W        W37213   5.588   0.042  13.850  0.1096  0.2177  0.1342
20953W        W37214  16.521   4.156   3.563  0.2347 -0.3429 -0.0190
20954W        W37215   2.728  11.306   2.451  0.1704 -0.3988 -0.0639
20955W        W37216  14.934  14.112  14.584  0.1616  0.6656 -0.2701
20956W        W37217  15.164   2.952  14.432  0.1748  0.0084 -0.2478
20957W        W37218   2.064   1.130   2.877  0.1191 -0.0605  0.1201
20958W        W37219   1.935  15.686  12.013  0.0851  0.0891  0.1346
20959W        W37220   5.198   7.941   0.409  0.0696 -0.0666  0.0778
20960W        W37221  11.270   7.314   3.469  0.1613 -0.0322  0.0689
20961W        W37222  17.061   0.359  16.775 -0.1914  0.1637  0.1174
20962W        W37223   6.462  13.728   0.935 -0.2962  0.1042 -0.1429
20963W        W37224   5.128   5.387   0.699  0.2729 -0.0037  0.1415
20964W        W37225  12.468  11.814   0.198 -0.1227 -0.0374  0.1360
20965W        W37226   9.986  17.806  14.523  0.2183  0.1725  0.0152
20966W        W37227   9.698   4.185  13.648 -0.1129  0.0796  0.2402
20967W        W37228   1.662  14.029   2.808 -0.1315  0.1644  0.1426
20968W        W37229   5.205   9.874   5.102 -0.1158 -0.0076 -0.2867
20969W        W37230  12.646  12.071  12.859  0.0206 -0.3458  0.0724
20970W        W37231  13.252   3.579   0.142 -0.2470  0.2193 -0.2152
20971W        W37232   4.905   9.848  13.568 -0.0677  0.0382 -0.0009
20972W        W37233  11.833   9.461  15.036  0.0054 -0.0817 -0.0259
20973W        W37234   5.426   7.088  13.497 -0.2777 -0.0075  0.1112
20974W        W37235   7.350  14.262  14.603  0.3018 -0.1417 -0.0601
20975W        W37236   3.376   6.730   5.224 -0.1532 -0.1555  0.1622
20976W        W37237   2.813  16.548  15.988 -0.0547 -0.2960 -0.3355
20977W        W37238  16.715   5.591  15.737 -0.3079 -0.1292 -0.1342
20978W        W37239   8.722  11.785   2.459  0.2397 -0.1236 -0.5656
20979W        W37240  11.407  10.250  14.638 -0.1548 -0.0153 -0.0027
20980W        W37241  11.021   4.679   6.272 -0.0528 -0.1387 -0.2041
20981W        W37242   2.527  13.815   5.434 -0.3320  0.1933  0.0419
20982W        W37243   5.584   6.289  15.291  0.1983 -0.0149 -0.1226
20983W        W37244  12.005   3.176   5.842  0.1621 -0.1237 -0.1054
20984W        W37245  13.290  12.281  16.937 -0.1162 -0.0461 -0.3337
20985W        W37246  11.824   6.550   1.936  0.2910  0.2338  0.2095
20986W        W37247   7.097   3.934  15.001  0.0698 -0.1972  0.1460
20987W        W37248  13.186   0.636  12.449  0.1619  0.0942  0.4373
20988W        W37249  10.598  16.443  13.110 -0.4846  0.0165 -0.2049
20989W        W37250  10.594   9.585  13.280 -0.2807 -0.0892  0.1698
20990W        W37251   8.361  16.778  14.846 -0.1701  0.3499 -0.2750
20991W        W37252   5.852  13.391  15.199 -0.0864 -0.4476  0.0012
20992W        W37253   1.289   3.886   1.933  0.0923 -0.0501  0.0833
20993W        W37254  10.275  17.158  16.385  0.2173  0.0030 -0.1237
20994W        W37255   2.432  12.679   2.063 -0.1821 -0.0503  0.0254
20995W        W37256  11.391   6.023  16.519  0.2241 -0.1264  0.1096
20996W        W37257   9.787  13.374  13.166  0.0403  0.2023 -0.1178
20997W        W37258   0.935  12.813   3.174 -0.1894 -0.1264 -0.0785
20998W        W37259   7.123  12.124   1.571  0.1285 -0.0630  0.0148
20999W        W37260   0.215   1.604   0.753 -0.2224  0.3709  0.0225
21000W        W37261  10.277  11.626  14.912  0.0918  0.0182 -0.0414
21001W        W37262   0.724  17.378   5.075  0.2418  0.0445 -0.0326
21002W        W37263   3.268  17.281   5.519  0.2543  0.0263 -0.0834
21003W        W37264  16.647  17.259  12.701  0.2252 -0.0527 -0.1651
21004W        W37265  15.514   6.298   2.605  0.1987 -0.0788 -0.0696
21005W        W37266  15.761  15.436  16.857 -0.0535 -0.0544  0.1700
21006W        W37267   3.697   9.981  16.134  0.2012 -0.0943  0.1169
21007W        W37268   8.640   0.796   0.532 -0.0028 -0.0651 -0.1437
21008W        W37269  10.760  15.528   5.630  0.0448 -0.0762  0.0279
21009W        W37270  17.039   2.130  15.270  0.1502  0.1863 -0.0108
21010W        W37271  12.963   4.366  11.997 -0.0662 -0.1013  0.1819
21011W        W37272  12.971   8.270   1.319 -0.0600  0.2420 -0.3325
21012W        W37273  14.822   5.524   5.236  0.1249  0.1083 -0.1077
21013W        W37274  17.679   2.009  13.694 -0.1861 -0.1045  0.3021
21014W        W37275  16.923   3.038  14.790 -0.0244  0.0398  0.2341
21015W        W37276   8.074  17.789  12.268 -0.4446  0.0604  0.1865
21016W        W37277   4.594  12.610  12.584 -0.0098  0.0828 -0.0697
21017W        W37278   7.722   1.784   2.384 -0.5901  0.1198  0.2829
21018W        W37279   6.630   6.602   0.351 -0.0917 -0.1172  0.0969
21019W        W37280   2.688   5.036   4.771  0.0110  0.0699  0.0335
21020W        W37281   9.517  11.791  14.676 -0.1783 -0.0783 -0.0059
21021W        W37282  16.368   9.378   3.076 -0.1892 -0.3412  0.0605
21022W        W37283  10.343   7.437   1.013  0.0111 -0.0571 -0.1446
21023W        W37284   7.352   9.483   5.280 -0.0503  0.0611  0.3243
21024W        W37285   0.597   6.758   2.148  0.1895  0.0146 -0.0582
21025W        W37286   8.029   4.437   4.224 -0.1178  0.2208 -0.0138
21026W        W37287   9.688  17.330   3.225  0.3452 -0.3102  0.2050
21027W        W37288  14.375   6.428   4.259 -0.0859 -0.0630 -0.2995
21028W        W37289   0.366  15.324   0.911 -0.2205  0.0552  0.3547
21029W        W37290  15.775   6.877  11.701 -0.1036  0.2020 -0.1212
21030W        W37291  12.663   4.565   5.297 -0.3177 -0.2311  0.2385
21031W        W37292   9.637   8.111   1.373  0.3714 -0.0850  0.1313
21032W        W37293  17.744   3.794   0.513  0.0911 -0.2129  0.0877
21033W        W37294  15.906   2.410   5.162 -0.1403  0.0783  0.1124
21034W        W37295   9.077   8.598   1.014 -0.0015  0.0140  0.0359
21035W        W37296   5.228  11.419   4.331 -0.0805  0.0422  0.0234
21036W        W37297   0.306  14.150   0.809 -0.3073  0.2423  0.1818
21037W        W37298   2.619  14.142  13.907 -0.1914  0.3258  0.1601
21038W        W37299   3.444  11.911   2.437  0.4135  0.4957 -0.2593
21039W        W37300   5.003  10.435   4.227  0.0043  0.1377 -0.0227
21040W        W37301  11.829  14.429   0.954 -0.0297  0.1056  0.4581
21041W        W37302  14.142   5.920   0.926 -0.0634  0.2726  0.0312
21042W        W37303   1.100  12.997   3.683  0.0153  0.3475 -0.0192
21043W        W37304   8.327   9.511  13.079 -0.1588  0.0649  0.0008
21044W        W37305  12.320   6.029   4.915  0.2190 -0.1977 -0.0081
21045W        W37306   9.488   5.125  16.961  0.2142 -0.0677 -0.0682
21046W        W37307   5.977   3.452   1.109 -0.0250 -0.1612  0.0178
21047W        W37308   3.399   6.920  14.606  0.0279  0.0958  0.2329
21048W        W37309  16.787  13.792   3.249 -0.1297  0.2118 -0.0667
21049W        W37310   6.931  12.404   1.959  0.0755  0.1214  0.1250
21050W        W37311   0.636  17.298   4.576  0.1249 -0.1512  0.0340
21051W        W37312  17.500  15.007  14.860  0.4085 -0.4597  0.0424
21052W        W37313  10.351   6.425  16.143 -0.3156  0.2105 -0.0550
21053W        W37314   0.650  13.979   2.616  0.1123 -0.0562  0.2583
21054W        W37315   0.402   4.507   0.049 -0.2304  0.0041 -0.2484
21055W        W37316   6.292  10.427   5.647  0.3347  0.0462  0.0311
21056W        W37317   8.262  17.274  16.359 -0.0310  0.1729  0.3303
21057W        W37318   5.454  10.780   5.399  0.0436 -0.2369  0.1927
21058W        W37319   3.464  10.381  15.905  0.0486 -0.2034  0.1495
21059W        W37320   2.214  15.723   1.741  0.3379  0.0674 -0.1633
21060W        W37321   1.858   7.764  15.478  0.0747 -0.1223  0.0436
21061W        W37322  10.279  12.420   0.530 -0.0744 -0.2395 -0.2694
21062W        W37323   7.823  13.822   3.561  0.1696  0.0618 -0.2100
21063W        W37324   8.905   3.270  12.783 -0.2122 -0.0807 -0.3488
21064W        W37325   7.370   9.940   3.664  0.3678  0.3561 -0.1566
21065W        W37326  12.415   3.718  15.852  0.0663  0.3996  0.0455
21066W        W37327   6.307   0.051   1.013  0.0556  0.1012  0.0936
21067W        W37328   4.170   8.179  11.819  0.1609  0.2029 -0.3811
21068W        W37329   7.119  16.982   3.417  0.0177  0.0523 -0.1770
21069W        W37330   6.017   2.684   5.056  0.2400 -0.0650 -0.1453
21070W        W37331   9.981   8.296  13.677  0.0121 -0.0092 -0.1241
21071W        W37332   0.916   2.121  15.477  0.1854  0.0306 -0.0464
21072W        W37333   0.186   6.239  12.399  0.1255  0.2498 -0.0683
21073W        W37334   7.903   3.463  14.015  0.2257 -0.2690  0.1985
21074W        W37335  10.861  14.499   3.398  0.0886 -0.2884  0.0705
21075W        W37336  15.233   2.805  13.941  0.1848 -0.0223  0.1286
21076W        W37337   8.618  15.415   1.661  0.2101  0.0006  0.1856
21077W        W37338   1.484   3.414  15.825 -0.1778  0.0360  0.4212
21078W        W37339   4.993   9.866  16.177 -0.0691 -0.4276 -0.0091
21079W        W37340   0.351   2.212   1.266  0.1576  0.1585 -0.1189
21080W        W37341   8.036  13.271  13.327 -0.0260 -0.2200 -0.2359
21081W        W37342  12.773   2.846   1.222 -0.2831 -0.4524  0.0512
21082W        W37343   2.655   8.514   2.101  0.1145  0.0915 -0.3134
21083W        W37344  17.413   6.179   3.167  0.3085  0.3950 -0.1922
21084W        W37345   1.099   6.365  11.109  0.2592  0.0794 -0.0426
21085W        W37346  15.660   0.689  16.803 -0.1292  0.1705 -0.1059
21086W        W37347  14.115   9.653   5.065 -0.0408  0.0016  0.1584
21087W        W37348   8.558  11.012   6.162  0.1962 -0.0187 -0.0718
21088W        W37349   7.090  15.122   2.711 -0.0959 -0.0067  0.0957
21089W        W37350   1.654  17.834   0.402 -0.1282 -0.4612  0.1443
21090W        W37351   6.362   7.265   3.877 -0.0329 -0.1792 -0.3030
21091W        W37352   7.575  16.494   1.041  0.1474 -0.0383 -0.0848
21092W        W37353  10.485  15.557  16.662 -0.1513 -0.0522 -0.1634
21093W        W37354  17.630  16.081   5.400  0.0344  0.2690  0.3127
21094W        W37355  15.639   9.175   5.491 -0.1506 -0.1988  0.0363
21095W        W37356   7.913   5.825  15.379 -0.0189 -0.1201  0.1377
21096W        W37357  13.082  11.489  14.695  0.0027 -0.1997  0.0352
21097W        W37358   4.834   6.284  16.374 -0.0505 -0.1249 -0.2560
21098W        W37359   7.903   9.405  16.410  0.3241  0.0452  0.0051
21099W        W37360   5.867   6.617   4.137  0.1687  0.2601  0.3911
21100W        W37361   7.865   0.877  15.658  0.1048  0.0026  0.0705
21101W        W37362   3.741   0.685  12.100  0.0085  0.1013 -0.2860
21102W        W37363   1.679  10.304  14.406  0.0296 -0.1242  0.0452
21103W        W37364   7.619  14.613  12.114  0.1282 -0.0378 -0.1980
21104W        W37365  14.212   0.865   4.119  0.1285 -0.1175  0.0711
21105W        W37366  14.670  15.024   1.673  0.0486  0.2138 -0.0868
21106W        W37367  14.149  17.648  11.898 -0.1732  0.5448 -0.0300
21107W        W37368  10.499  17.442   2.108  0.1115  0.1531  0.0645
21108W        W37369  15.476   9.353   4.547 -0.1618 -0.0219  0.3867
21109W        W37370   9.900   3.457  14.446 -0.1174  0.1537  0.0543
21110W        W37371  13.968  16.067   2.153  0.0365  0.2647  0.1424
21111W        W37372  16.113  12.361   2.299  0.1469 -0.0473  0.3244
21112W        W37373   9.682  16.014   5.081 -0.1015 -0.1249  0.2409
21113W        W37374  14.542   5.210  13.483 -0.0087  0.2561 -0.1852
21114W        W37375   7.452   4.485   4.970  0.3410 -0.0693  0.0421
21115W        W37376   7.496  15.787  12.425 -0.3109 -0.1104  0.2782
21116W        W37377   5.738   6.297  14.579  0.0452  0.1465 -0.0297
21117W        W37378  14.254   7.067   1.328  0.2249 -0.0062  0.6163
21118W        W37379  11.559   9.172  15.391  0.0318  0.1327 -0.0668
21119W        W37380   4.303  16.441   1.897  0.3213 -0.0453  0.0079
21120W        W37381   6.404  11.459   3.920 -0.2557 -0.0333  0.0812
21121W        W37382  12.078   8.464  15.780 -0.3763 -0.0775 -0.0386
21122W        W37383   9.967   8.362  15.228 -0.0166  0.2998 -0.1140
21123W        W37384   5.768   4.896  13.893  0.1439 -0.1112 -0.0301
21124W        W37385   8.605  15.652  14.790  0.2890 -0.0955 -0.1635
21125W        W37386   4.728  13.864  15.733 -0.2815  0.2362  0.1922
21126W        W37387   5.174   3.300   1.267 -0.2573  0.0139 -0.1015
21127W        W37388   4.833   2.141  15.582 -0.1482 -0.0041 -0.0271
21128W        W37389  12.410   4.317  15.030  0.0092 -0.1428 -0.1931
21129W        W37390  13.740  10.894  12.376 -0.2052  0.0325 -0.0657
21130W        W37391  16.025   6.270  13.155 -0.1030  0.0078 -0.1573
21131W        W37392   1.655   0.961   5.132  0.1425 -0.2014  0.1574
21132W        W37393   9.739   4.702  13.559 -0.0437  0.0101  0.0887
21133W        W37394   8.450   0.651  14.545 -0.1950 -0.1889 -0.1500
21134W        W37395  17.778  14.813   1.992  0.1760  0.2268  0.3183
21135W        W37396   1.584   7.661  13.780  0.2749  0.0210  0.0857
21136W        W37397   5.879   0.316   1.159 -0.2729  0.0157 -0.2173
21137W        W37398   7.318   1.672  15.111 -0.0925  0.1505 -0.0290
21138W        W37399  10.345  11.844  12.013 -0.2038 -0.0570  0.1062
21139W        W37400  14.307   9.346  11.851 -0.0889 -0.1945 -0.0881
21140W        W37401  11.899  12.405  13.236  0.0938 -0.4124 -0.2221
21141W        W37402  16.417   2.727  14.918 -0.0114  0.0605 -0.0892
21142W        W37403  13.008  13.000   5.108 -0.0810 -0.2050 -0.0386
21143W        W37404   3.459  13.009   5.060  0.1518 -0.1119  0.0830
21144W        W37405  12.924   8.556   4.831 -0.0544 -0.2116  0.0108
21145W        W37406  13.208  15.947   1.902 -0.3448  0.1905  0.0170
21146W        W37407   0.063  13.781   3.300  0.1415 -0.2921  0.1391
21147W        W37408   6.308   1.376  14.686  0.0018  0.0470  0.4202
21148W        W37409   4.879  15.518  12.801 -0.0100  0.1398 -0.1960
21149W        W37410   6.637  15.104  13.728  0.0643  0.2181  0.0418
21150W        W37411   0.495  16.384   4.171 -0.0069 -0.2937  0.0671
21151W        W37412  12.234   7.480  13.794  0.0070  0.6439 -0.4223
21152W        W37413  13.721   3.629  14.858  0.4627  0.2552  0.0249
21153W        W37414   1.987  10.323   6.337  0.0894  0.1805 -0.0894
21154W        W37415   2.947  12.757  15.958  0.1052 -0.0305  0.1828
21155W        W37416   3.228   2.402   5.543 -0.0148  0.0111  0.0520
21156W        W37417   1.298  12.562   4.813  0.1265  0.1556 -0.0857
21157W        W37418   2.175  12.136   4.968  0.2072  0.0377 -0.3773
21158W        W37419  15.618   5.024   5.420  0.1088  0.1902  0.1616
21159W        W37420   2.474   0.430   3.219  0.2429  0.0596 -0.0600
21160W        W37421   3.594  12.951  11.912  0.0317  0.0582 -0.2353
21161W        W37422   5.531   7.597  16.530 -0.1982  0.0045  0.3139
21162W        W37423   5.190   1.730   5.270 -0.0198  0.1115 -0.4511
21163W        W37424   8.780   9.115   2.945 -0.2727 -0.0330 -0.0524
21164W        W37425  11.002   0.371   1.247 -0.2318  0.0879  0.0653
21165W        W37426  15.860  17.692   4.325  0.1006  0.1002 -0.2941
21166W        W37427  11.212  10.719  11.760 -0.0419 -0.2296  0.0229
21167W        W37428  10.771   9.536   0.944  0.2430  0.2473  0.1566
21168W        W37429   9.321  15.720  13.033 -0.1494 -0.0065 -0.0963
21169W        W37430  11.136  11.211  16.524 -0.1807 -0.1259 -0.0600
21170W        W37431   4.454   5.344  16.600 -0.4604 -0.3070 -0.1769
21171W        W37432  17.805   8.138   1.699 -0.0829 -0.0520  0.0867
21172W        W37433  17.775   0.216  13.949 -0.2459 -0.0831  0.2003
21173W        W37434   8.379  14.632   0.548 -0.1209 -0.4516 -0.3739
21174W        W37435   9.572   3.294  14.769 -0.0452 -0.0621  0.2096
21175W        W37436   6.484   6.797   5.577  0.1207 -0.1497 -0.2677
21176W        W37437   4.423   6.332  12.381  0.2898  0.2120 -0.0030
21177W        W37438   0.677   1.465  14.618 -0.1886  0.2766 -0.2848
21178W        W37439   0.650  12.386  16.794  0.1655  0.2148  0.0227
21179W        W37440   4.480   7.233  14.075 -0.0610  0.0393 -0.0457
21180W        W37441   3.987   7.329  15.008  0.0419 -0.0711 -0.1554
21181W        W37442   5.469   5.484  12.027  0.3546 -0.0156  0.0624
21182W        W37443  13.743  16.574  14.242 -0.1576 -0.0090 -0.3050
21183W        W37444   8.295   5.910   0.572 -0.0918  0.0693  0.2451
21184W        W37445  11.008   0.807  16.258  0.1426 -0.1007 -0.0224
21185W        W37446   4.516   8.217  16.777 -0.0380 -0.3234  0.0000
21186W        W37447   6.239  14.875   0.020 -0.0360  0.3101  0.2480
21187W        W37448   5.831   8.424   2.967 -0.2322  0.3900 -0.1783
21188W        W37449  11.234   7.890   4.288 -0.0889  0.0349  0.1879
21189W        W37450  15.545   3.646   5.596 -0.0362 -0.1065 -0.0935
21190W        W37451  16.457   5.014  14.922  0.2985  0.0002 -0.3855
21191W        W37452  14.508  12.017   3.710 -0.1185 -0.0702 -0.2207
21192W        W37453  13.162   9.970   2.722  0.2122 -0.0263  0.0927
21193W        W37454  11.304  14.907   0.244  0.0884  0.3181  0.2099
21194W        W37455  10.267   6.649  12.771  0.1284 -0.1180  0.0751
21195W        W37456  16.593   7.918   4.055 -0.0189 -0.0536  0.1570
21196W        W37457   8.155  11.302  13.653  0.0477  0.0599  0.1918
21197W        W37458  12.165  11.934   2.907  0.2109  0.0080  0.1075
21198W        W37459   5.385   6.804  13.058 -0.2693 -0.0581 -0.1300
21199W        W37460   9.699   3.619   4.463  0.0832  0.0824 -0.0528
21200W        W37461  12.606  12.723  14.349 -0.0740  0.2403  0.0138
21201W        W37462  12.520   1.502  15.116  0.2108  0.1184 -0.0710
21202W        W37463   2.269   1.526  14.412 -0.0473  0.0709  0.1463
21203W        W37464   7.115  15.768   5.336 -0.1416 -0.1302 -0.0287
21204W        W37465  14.173   1.438  14.789 -0.0103 -0.0929  0.0166
21205W        W37466   2.119   7.468   3.292 -0.0353  0.1428 -0.1669
21206W        W37467  13.286   3.966  15.446 -0.0494 -0.1384 -0.2297
21207W        W37468   6.350   1.858   4.611 -0.1881  0.3886 -0.2732
21208W        W37469   6.116   8.926   3.990 -0.3198  0.2343  0.0177
21209W        W37470   2.056  11.988  14.745  0.3709 -0.0445  0.0674
21210W        W37471   9.384   8.496   2.282  0.0535 -0.3145 -0.0155
21211W        W37472  15.728  11.852   5.643  0.2347  0.0857  0.1749
21212W        W37473  17.444  10.873   3.556  0.0877  0.3736  0.2645
21213W        W37474  13.196  15.028  12.661 -0.3768 -0.0678  0.2600
21214W        W37475  15.792   2.927   2.074  0.1588 -0.1236 -0.0539
21215W        W37476  13.481   2.055  16.009 -0.1093 -0.3474 -0.0080
21216W        W37477  14.800  16.888  14.515 -0.2176  0.0207 -0.2211
21217W        W37478  17.338  15.533   0.558  0.1647 -0.0280 -0.1506
21218W        W37479   1.681  13.047  15.721 -0.1380 -0.1186 -0.0580
21219W        W37480   8.298  10.032  13.176 -0.0887 -0.2252  0.0608
21220W        W37481  14.226   3.670   5.094 -0.0161  0.1579 -0.0652
21221W        W37482  12.908   0.445   1.268 -0.1608  0.1844  0.0616
21222W        W37483  10.102  13.865   3.353 -0.0988  0.0323 -0.1429
21223W        W37484   0.638  15.959   6.186 -0.1039  0.0224 -0.0820
21224W        W37485   9.903   4.079  12.831 -0.3420 -0.2150 -0.0958
21225W        W37486  13.532   7.825  12.715  0.1060 -0.3260  0.0956
21226W        W37487   6.218   2.367  12.334  0.0910 -0.0724 -0.1274
21227W        W37488   3.314  14.007   1.133 -0.0555  0.0141 -0.1329
21228W        W37489   9.034  10.191  15.477  0.0983  0.2186 -0.2417
21229W        W37490   2.977   0.206   3.534 -0.3311  0.1651  0.4016
21230W        W37491   1.204   4.192   4.165  0.0615  0.1830 -0.2237
21231W        W37492  11.790   9.149   6.039 -0.0719  0.0257  0.1665
21232W        W37493   3.527  14.949  12.639 -0.0675 -0.3762  0.0153
21233W        W37494  15.492   4.372  15.673 -0.1104 -0.4598 -0.2151
21234W        W37495   7.063   2.490   0.292  0.0578 -0.2090 -0.0337
21235W        W37496   7.394  16.967   6.308  0.1554  0.0996  0.0778
21236W        W37497   2.426   6.249  13.280 -0.1957 -0.0976 -0.1589
21237W        W37498   7.682   5.362   1.095  0.1694 -0.1756 -0.2056
21238W        W37499   5.989   4.486   2.352  0.2403 -0.2266  0.0296
21239W        W37500  13.059   4.600   5.935 -0.2162 -0.1348  0.1650
21240W        W37501  10.807   2.846  15.732 -0.0448 -0.1824  0.0538
21241W        W37502  15.674   0.103   0.148  0.1629  0.1106  0.0012
21242W        W37503  15.392  16.311  14.561  0.3027  0.1357 -0.0499
21243W        W37504  16.010  12.427  15.336 -0.0157 -0.0600 -0.3419
21244W        W37505  16.354   9.091  14.778  0.0480  0.1006  0.2576
21245W        W37506   5.755   6.329   4.550  0.2314  0.3642  0.0170
21246W        W37507   1.168   0.151   2.629 -0.3116  0.1218 -0.1288
21247W        W37508  14.699   1.015   1.217 -0.0332  0.1311  0.3663
21248W        W37509   6.619   6.276  14.815 -0.0141 -0.0511 -0.1290
21249W        W37510   6.845   9.690  11.456  0.0448  0.1533  0.1719
21250W        W37511   1.114   9.718  12.567 -0.0950  0.1766 -0.0641
21251W        W37512   6.655   4.810   2.571 -0.2241  0.0169  0.0251
21252W        W37513   7.251  17.082  14.643  0.0621  0.0875 -0.0996
21253W        W37514  16.563  11.831   1.162  0.1211 -0.0584 -0.2427
21254W        W37515   9.540   8.995   4.583 -0.1668 -0.0718 -0.3162
21255W        W37516   2.661   5.257   5.954 -0.1261 -0.1404 -0.3994
21256W        W37517   9.998  13.200  11.580  0.1122 -0.0487 -0.2744
21257W        W37518  11.275  13.975  15.720  0.0904  0.2609  0.0544
21258W        W37519  15.201   7.996   1.214 -0.1675 -0.0362  0.0337
21259W        W37520   6.659  11.289  16.867  0.0544 -0.0407  0.1359
21260W        W37521   2.806   6.514  13.212  0.0171 -0.0008  0.0835
21261W        W37522  11.529   4.672  16.510  0.2818  0.0389 -0.0697
21262W        W37523   5.795  11.153   3.976  0.0061  0.2023  0.2364
21263W        W37524  13.176  17.821   1.097 -0.0597  0.1433  0.3528
21264W        W37525  11.995  15.427   5.023  0.4201 -0.0935  0.0398
21265W        W37526   2.415   1.027  12.863 -0.0159 -0.1871  0.1702
21266W        W37527   6.316   7.868   1.689  0.2566  0.0759 -0.1183
21267W        W37528   5.326  16.279   4.081  0.0296  0.2191  0.1257
21268W        W37529  17.586   7.186  11.634 -0.0945 -0.1936 -0.2875
21269W        W37530  14.499  11.861  11.747  0.0422  0.1245 -0.2396
21270W        W37531   9.814   6.598  15.013 -0.1676 -0.4890 -0.2620
21271W        W37532   7.694   7.286   3.533  0.1285  0.0730  0.2738
21272W        W37533  14.739   6.065   3.944  0.1063  0.0741 -0.1641
21273W        W37534  15.414   0.862   4.798  0.3399  0.0622  0.3718
21274W        W37535  10.458   1.553   4.327 -0.0407 -0.0832  0.0127
21275W        W37536  11.255   5.777  14.126  0.0620 -0.2693 -0.0011
21276W        W37537  12.497  17.636  14.872 -0.0802 -0.2311  0.0361
21277W        W37538   8.396  13.858   0.344  0.1067  0.2085  0.2142
21278W        W37539   1.527   9.346   3.508  0.1384  0.1354 -0.0785
21279W        W37540   6.166   9.967   4.416 -0.1072  0.0713  0.0932
21280W        W37541  15.660   6.964   4.313 -0.1757 -0.2188  0.3379
21281W        W37542  16.936   5.711   3.145 -0.2467 -0.2389  0.0596
21282W        W37543  17.665   0.172  16.752 -0.1939 -0.3067 -0.2099
21283W        W37544   6.599  15.876  11.233 -0.1537 -0.0939 -0.1611
21284W        W37545   8.281   8.190   2.842  0.1098  0.0801  0.2840
21285W        W37546   7.022   4.173   4.760 -0.1420  0.2798 -0.1501
21286W        W37547  16.165   5.635   0.093  0.1321 -0.0014  0.2496
21287W        W37548  13.726   8.221   3.238  0.0709  0.0392 -0.1660
21288W        W37549  10.717   8.653  14.269  0.0329  0.1002  0.1321
21289W        W37550  15.446   7.485  13.806  0.0428  0.2084 -0.1428
21290W        W37551  10.858   7.733   3.490 -0.1875 -0.0861 -0.2217
21291W        W37552   9.857  10.508   5.123 -0.0548  0.0730 -0.1334
21292W        W37553   5.102   8.140   5.795 -0.3264 -0.3054 -0.0445
21293W        W37554   5.288  12.006  15.813  0.0184  0.5063 -0.0813
21294W        W37555   5.151   9.621  12.778 -0.0790 -0.1190  0.2025
21295W        W37556   3.546   6.153   0.620  0.1958 -0.0694 -0.2640
21296W        W37557   2.700  17.414  14.283 -0.0241  0.0308 -0.1751
21297W        W37558   1.485   2.446   5.657  0.0336 -0.0796  0.1520
21298W        W37559   0.274  17.621   4.489  0.0361  0.2787 -0.0872
21299W        W37560   0.950   5.238   2.798  0.3038  0.0116 -0.0366
21300W        W37561  13.545  12.122  12.914  0.0982  0.0900 -0.5136
21301W        W37562   8.735  16.991   5.649  0.0442 -0.0861 -0.2463
21302W        W37563  12.864   4.465  16.185  0.1266 -0.2777  0.0156
21303W        W37564   1.075   9.939  16.672  0.0297  0.0298  0.2415
21304W        W37565   8.524   3.033  12.995 -0.1928 -0.0447 -0.0501
21305W        W37566  14.594   2.481  13.526  0.1673 -0.1867  0.0603
21306W        W37567  14.634  13.265   1.614 -0.3934 -0.0360 -0.0427
21307W        W37568   6.462   7.048   1.476  0.0621  0.0533  0.0978
21308W        W37569  13.128  15.027   0.978 -0.1744  0.0062 -0.1100
21309W        W37570  10.407   5.199  12.482 -0.3200 -0.1295  0.1388
21310W        W37571   3.883   2.821   4.533 -0.1682  0.0869  0.3610
21311W        W37572   1.640   8.097  15.097 -0.1093  0.0589  0.2539
21312W        W37573  17.145   5.353   0.301  0.0399  0.0777  0.3046
21313W        W37574  12.645   6.388   3.486  0.1695  0.2478 -0.0379
21314W        W37575   3.101  10.957  12.488 -0.1185  0.0195  0.0848
21315W        W37576  10.342  13.757   0.539  0.0951 -0.2043  0.0399
21316W        W37577  15.495   0.533  13.984 -0.0160 -0.2363  0.1082
21317W        W37578  12.019  10.675   0.076 -0.0155  0.3248 -0.1426
21318W        W37579   4.020  13.714   3.970 -0.0148 -0.0841 -0.1301
21319W        W37580  16.960   4.923   4.817  0.4668 -0.0640  0.1963
21320W        W37581  14.218   5.175  11.732  0.0593 -0.0335  0.2544
21321W        W37582  16.688   4.159   6.363  0.0176  0.2546 -0.2619
21322W        W37583   7.278  13.754   1.685  0.1388 -0.1999 -0.0757
21323W        W37584   8.455  15.653   0.342 -0.2388 -0.0057  0.1353
21324W        W37585   3.734  16.535  12.409  0.0861  0.3723  0.2240
21325W        W37586   5.263  14.098  14.640  0.1044 -0.2629  0.0625
21326W        W37587  10.731   4.453  14.533  0.1430 -0.2109 -0.1102
21327W        W37588  15.719   5.639   1.349 -0.1952  0.0966 -0.0060
21328W        W37589  10.541  14.312  13.375 -0.0387  0.1037 -0.2480
21329W        W37590  16.090   7.893  14.325  0.1341 -0.0652  0.1139
21330W        W37591  14.509  10.537  15.355  0.2332 -0.1608 -0.1118
21331W        W37592  13.436  12.352  13.775  0.0862 -0.1443  0.0706
21332W        W37593   7.555  13.559  16.783  0.0298 -0.0129  0.3069
21333W        W37594  12.639   7.973  15.282 -0.0781 -0.0510 -0.1012
21334W        W37595   3.588  13.372  16.961 -0.0693  0.0684 -0.0416
21335W        W37596   5.163   7.537  15.559 -0.1211  0.0829  0.1575
21336W        W37597  15.230  11.732   2.474 -0.0870 -0.1863  0.1100
21337W        W37598  13.995  17.810  13.133  0.1839 -0.0857 -0.0160
21338W        W37599   4.255  16.933   5.204 -0.0578 -0.3118 -0.0844
21339W        W37600   6.500   2.998   5.715 -0.2267  0.1621  0.0212
21340W        W37601   5.723   5.648  14.473  0.0187 -0.1302  0.2209
21341W        W37602  16.526  15.698   4.950 -0.0545 -0.0297 -0.1857
21342W        W37603  16.748  17.106  11.481  0.2567  0.1027 -0.0750
21343W        W37604   4.668   2.635  15.330  0.0836 -0.1826  0.3651
21344W        W37605   2.267  10.359   0.011 -0.0999  0.0026 -0.0257
21345W        W37606  17.527   5.437   0.651  0.2901 -0.0392 -0.2094
21346W        W37607  16.391  16.069  12.154 -0.1338 -0.3296 -0.0304
21347W        W37608  13.635   8.199   2.372 -0.1417  0.1101  0.2128
21348W        W37609  17.675  10.778  14.449 -0.0726  0.0735  0.1342
21349W        W37610   6.241  10.028  13.771 -0.3284  0.0466 -0.0011
21350W        W37611  13.817   9.146   6.143  0.1037 -0.2498 -0.1236
21351W        W37612   0.696  17.084  14.620 -0.0199  0.3731  0.2299
21352W        W37613  15.272  13.234  16.642  0.0587 -0.0720  0.0970
21353W        W37614  16.784  13.910   0.285  0.3275  0.0553 -0.0104
21354W        W37615   3.396  16.253  12.117  0.3455  0.1424  0.4176
21355W        W37616  12.783  13.580   5.804 -0.1301  0.2614 -0.3102
21356W        W37617  10.393   3.015   5.372 -0.1428 -0.1501  0.1141
21357W        W37618   0.765  10.477   4.625 -0.1065 -0.0749  0.1029
21358W        W37619   2.760   8.417  14.026 -0.0301  0.2780  0.2561
21359W        W37620  14.746   5.571   2.303  0.2326 -0.4050  0.1477
21360W        W37621  11.403   1.061  13.051  0.0147  0.2585 -0.3372
21361W        W37622  15.634  14.243   2.650 -0.1591 -0.0513 -0.1004
21362W        W37623  17.007   2.213  14.340  0.2252 -0.0165 -0.3023
21363W        W37624  13.907  13.467   6.360  0.1302 -0.1700  0.2554
21364W        W37625   6.660  13.990   2.322 -0.3162  0.3231 -0.0684
21365W        W37626  13.521  16.117   5.661 -0.0818 -0.1276  0.0160
21366W        W37627   5.439   6.072  14.203  0.1540 -0.1367 -0.0676
21367W        W37628   8.443   2.597   1.600 -0.0075 -0.0795  0.0504
21368W        W37629   2.472   8.889   4.303 -0.3195 -0.0357  0.2600
21369W        W37630   7.041  14.506  12.053  0.2761 -0.2090 -0.1566
21370W        W37631   2.890   1.379   3.091 -0.0670  0.0363  0.0600
21371W        W37632   1.309  11.988   4.603  0.2094  0.1793 -0.1198
21372W        W37633   3.165   5.504   2.154  0.1955  0.1942 -0.2469
21373W        W37634   2.594  17.836  16.401 -0.0229 -0.0843 -0.4470
21374W        W37635  16.521   6.534   1.677  0.1991 -0.0654  0.1120
21375W        W37636  10.619   1.666  13.306  0.0325 -0.2816  0.1724
21376W        W37637   4.740   4.395   0.648 -0.2556  0.1138  0.1449
21377W        W37638   5.746   6.775  15.429 -0.1594  0.1898 -0.0126
21378W        W37639  15.907  11.426   4.853  0.0248 -0.0711 -0.0180
21379W        W37640  15.965  14.272   1.789 -0.0077 -0.0291 -0.1869
21380W        W37641   1.812   7.030  12.034 -0.0812 -0.4128  0.0956
21381W        W37642   5.201  16.808   4.814  0.4044 -0.1731 -0.1579
21382W        W37643  11.309  17.615  13.617 -0.2076 -0.0639  0.0402
21383W        W37644  10.539   3.589  16.276  0.1537  0.3387 -0.1344
21384W        W37645  15.999   0.506   1.585 -0.3872  0.1104  0.1369
21385W        W37646   3.754  15.651   0.853 -0.0202 -0.1674 -0.4533
21386W        W37647   8.451  10.629  12.668 -0.0095 -0.1286  0.0170
21387W        W37648   9.443   3.990  12.002 -0.2498 -0.2792  0.1321
21388W        W37649  11.962  16.584   0.377 -0.1398 -0.1376  0.3201
21389W        W37650  14.607   1.982  15.194  0.3653 -0.3751  0.0887
21390W        W37651   0.692   7.197  12.780 -0.2695  0.2361  0.0346
21391W        W37652  12.623   6.504   0.268  0.3803 -0.1476  0.0074
21392W        W37653  13.010  15.665   0.727 -0.2078  0.2539 -0.0039
21393W        W37654  11.520  13.657  15.342 -0.0470 -0.0633  0.0431
21394W        W37655   2.649  13.495  12.584  0.0793 -0.1024 -0.1355
21395W        W37656  11.753  12.420  13.851 -0.0290 -0.2004 -0.2665
21396W        W37657   5.364  17.343   1.264 -0.1989 -0.1371  0.0461
21397W        W37658   9.329   5.125   1.472  0.0648 -0.2146  0.0402
21398W        W37659  12.717   2.367   1.208  0.1267  0.5211  0.3156
21399W        W37660  10.559   0.542   1.051 -0.0049  0.1417  0.1912
21400W        W37661  11.739   3.098  16.184 -0.1210 -0.2973  0.1413
21401W        W37662   9.227  11.491   2.887  0.1210 -0.0202 -0.0845
21402W        W37663   8.770   5.334  12.708  0.1488  0.1090  0.0509
21403W        W37664   3.187   7.892   0.897  0.1887 -0.0001 -0.1937
21404W        W37665  10.117  14.802  15.261  0.1161 -0.2345  0.0853
21405W        W37666   2.708   7.081  13.950 -0.0636  0.1231 -0.0972
21406W        W37667  17.551   0.242   4.854 -0.0029  0.2574 -0.1998
21407W        W37668  15.151  16.418   3.228 -0.0962  0.1021 -0.1689
21408W        W37669   0.538   9.036  15.891  0.4193  0.1009  0.0164
21409W        W37670  11.088   8.991  12.434  0.1409 -0.1621  0.1660
21410W        W37671   5.490   2.130   3.118  0.2657  0.0925  0.2176
21411W        W37672  17.640   1.116  16.707 -0.0612 -0.1631 -0.0713
21412W        W37673  13.016   2.078  12.384  0.1930  0.0379 -0.1437
21413W        W37674   5.204   2.673  12.135  0.2992 -0.0241 -0.0868
21414W        W37675  12.742   3.145  12.373  0.1069 -0.3433  0.0832
21415W        W37676   5.013  14.666   3.752  0.1994 -0.0444 -0.0451
21416W        W37677  11.747  13.838  16.458  0.0060 -0.0109 -0.0123
21417W        W37678  17.786  12.504   1.643 -0.0317  0.2637 -0.3983
21418W        W37679  10.468  17.551  12.443  0.0261  0.0393 -0.1095
21419W        W37680  16.913   6.604  15.356  0.2740 -0.1098  0.1005
21420W        W37681   5.990   7.319  14.818  0.2685  0.1232 -0.1739
21421W        W37682   8.096  16.334   2.601 -0.1726  0.0956  0.0330
21422W        W37683   3.489  10.310   5.023  0.0061 -0.0757  0.1319
21423W        W37684  17.808   2.358  16.956  0.0281 -0.0482  0.1996
21424W        W37685   3.176  10.575   3.380  0.0752 -0.0995 -0.1804
21425W        W37686  13.967  10.039  15.023 -0.1448  0.1993  0.0932
21426W        W37687   7.420   7.159   3.150 -0.0451 -0.1304  0.0942
21427W        W37688  13.244   8.191  13.421 -0.3041 -0.1343  0.2328
21428W        W37689   5.296   8.669  14.820  0.0309 -0.0211  0.1332
21429W        W37690   5.996   9.189   3.572  0.4016  0.0722  0.1443
21430W        W37691   2.400  13.871  13.492 -0.3172 -0.0652 -0.1404
21431W        W37692  14.344  13.803  12.332  0.1576  0.1602  0.3119
21432W        W37693  17.289   0.973   4.853  0.3817 -0.2436 -0.1115
21433W        W37694   9.405  14.885  10.236 -0.0009 -0.0824  0.3546
21434W        W37695   3.533  11.204  16.853 -0.0734 -0.1137  0.2411
21435W        W37696   8.364   4.603   2.165  0.1937  0.1124 -0.1456
21436W        W37697   5.346   4.932   5.247 -0.2112 -0.0422  0.0183
21437W        W37698  14.884  11.628  15.511 -0.1769 -0.2242  0.1874
21438W        W37699   4.537  13.258   1.053 -0.2741 -0.1146 -0.1455
21439W        W37700   1.129  15.882  12.718 -0.1018 -0.4488 -0.0445
21440W        W37701  17.310   4.927  15.474  0.1042 -0.0870 -0.1031
21441W        W37702   7.769  12.882  11.898  0.2628 -0.1489  0.2869
21442W        W37703   1.641  11.445   0.353 -0.1774 -0.0195  0.1933
21443W        W37704  16.989   8.271  13.471 -0.5422  0.0983  0.1014
21444W        W37705  17.060  12.655  11.542 -0.0382 -0.0382 -0.0824
21445W        W37706  15.038  12.922  14.654  0.3202 -0.0310 -0.3776
21446W        W37707   1.609   1.882  11.358  0.1716 -0.0669 -0.2036
21447W        W37708  13.859   7.915   1.621 -0.1427  0.2009  0.1623
21448W        W37709  14.482  14.243  15.814 -0.0990  0.1209 -0.2670
21449W        W37710  16.181   4.085  14.359  0.2493  0.2237  0.5382
21450W        W37711   0.713   4.037   0.581  0.0289 -0.0421 -0.0342
21451W        W37712   4.597  12.029  16.123  0.2476  0.2245 -0.1828
21452W        W37713   2.775  15.162  15.849 -0.0186  0.0509  0.2307
21453W        W37714  12.477  13.217  14.550 -0.0866  0.0271  0.2604
21454W        W37715   8.604   8.427   0.593  0.2784 -0.1203  0.1916
21455W        W37716  13.408   4.885  14.106 -0.1549 -0.1690 -0.1195
21456W        W37717  13.093  17.331   5.037 -0.1022  0.2981 -0.0301
21457W        W37718   5.587  10.550  15.479  0.2359  0.1458 -0.4266
21458W        W37719   2.698  11.077   0.362  0.1188 -0.0369 -0.1203
21459W        W37720  13.155   5.721  12.432 -0.2453 -0.1585  0.3982
21460W        W37721  15.454  12.502   5.635 -0.0038 -0.0052 -0.2699
21461W        W37722   3.206   0.481   4.577 -0.1585 -0.0241 -0.0394
21462W        W37723  12.542   9.956   1.539  0.1438 -0.0475 -0.3936
21463W        W37724   3.204   3.585   4.711 -0.0578  0.2667 -0.1729
21464W        W37725   7.947  12.322  14.018 -0.0343 -0.0562 -0.1029
21465W        W37726   8.196  15.405   4.315  0.0710  0.1353 -0.2768
21466W        W37727  17.045  10.468   1.181 -0.1158  0.1031 -0.1149
21467W        W37728  13.675  14.734   3.117 -0.3252 -0.1152  0.0312
21468W        W37729   2.214  16.203   1.622  0.1934 -0.2850  0.1900
21469W        W37730  13.002   9.423   3.390  0.0670 -0.1040 -0.0622
21470W        W37731   8.808   8.563   1.911 -0.0688  0.1942 -0.0855
21471W        W37732   3.164   7.190   2.555 -0.0323 -0.0055 -0.0376
21472W        W37733  10.761  13.793  14.807  0.2663 -0.1538  0.0824
21473W        W37734  15.699   1.969   6.251 -0.2699 -0.0294  0.0210
21474W        W37735   9.922  15.642   4.090 -0.3181  0.1203 -0.0736
21475W        W37736   1.610   8.727   6.380  0.1211  0.1151  0.0347
21476W        W37737   4.543  15.063   1.250  0.3211 -0.0742 -0.0951
21477W        W37738   7.191   9.369   1.872  0.2115  0.0155 -0.0977
21478W        W37739  16.389   4.613   3.635 -0.1533 -0.3940  0.0458
21479W        W37740   8.389  16.391   6.208  0.0956  0.3557  0.1251
21480W        W37741   2.421   0.441   1.150  0.2415 -0.1083  0.0074
21481W        W37742   9.059   3.459   0.119 -0.0474  0.2450 -0.0690
21482W        W37743   8.696  14.611  12.377  0.1321 -0.2822 -0.0584
21483W        W37744   6.269  16.061   2.607 -0.2449  0.3062 -0.2419
21484W        W37745   6.167   3.619   4.431 -0.0686 -0.1447  0.0646
21485W        W37746  16.716   7.893  13.549 -0.2145 -0.2637  0.0579
21486W        W37747  16.922  13.092  14.967  0.1941 -0.0441 -0.0760
21487W        W37748   7.698  14.102  16.960  0.1708  0.3329 -0.0683
21488W        W37749   0.409   6.582   3.631 -0.3137 -0.1380  0.0741
21489W        W37750  10.421  13.711   1.945 -0.0737  0.1883  0.1755
21490W        W37751  14.459  16.651  15.181  0.1267  0.1421 -0.1581
21491W        W37752   9.071  16.150   3.461 -0.0798 -0.0699 -0.0768
21492W        W37753  13.120   0.800  13.516  0.3664 -0.4454 -0.1374
21493W        W37754   9.855  15.330  13.722 -0.2186  0.0584 -0.0165
21494W        W37755   3.420  13.523  15.921 -0.2179  0.1121 -0.1634
21495W        W37756   9.778  14.451  15.313  0.0028  0.4659  0.2219
21496W        W37757  16.210  10.935   1.649 -0.2692  0.1436  0.5036
21497W        W37758   6.409   2.318   2.362  0.1690  0.3509  0.0836
21498W        W37759  16.453   4.977  15.951 -0.1251 -0.2858  0.0645
21499W        W37760   4.084   6.276   1.876 -0.0377 -0.0184 -0.4878
21500W        W37761  16.858  14.232   3.431 -0.2479 -0.0686 -0.1206
21501W        W37762  15.738   6.832   0.640 -0.3325 -0.0803 -0.2504
21502W        W37763  16.043  12.288   0.204  0.1488  0.2515  0.0566
21503W        W37764   1.954  13.436   0.939 -0.0202  0.0141  0.1102
21504W        W37765  10.942   8.876  16.293  0.3146 -0.0652  0.1369
21505W        W37766   9.656   0.008   3.281 -0.0450  0.1242 -0.1566
21506W        W37767   1.871  16.716  12.360  0.2342 -0.2331  0.2618
21507W        W37768  13.408  16.429   4.877  0.2681 -0.2108  0.1095
21508W        W37769   8.295   6.197   0.179 -0.1600  0.0148  0.0059
21509W        W37770   7.937  14.388  14.006  0.2941  0.1891  0.1308
21510W        W37771  10.344  13.482  11.859  0.0638  0.2391  0.1849
21511W        W37772  13.790  10.666   4.916 -0.2776 -0.1892  0.1158
21512W        W37773  15.945   3.676   6.625  0.2276  0.0633 -0.1625
21513W        W37774  12.648   4.017   2.988  0.0484 -0.0183  0.3346
21514W        W37775   2.338  17.541  15.235 -0.1317  0.0185 -0.0510
21515W        W37776  11.436   5.141   5.084 -0.1343  0.0420  0.2139
21516W        W37777   8.860   4.481  14.389  0.0930 -0.3177 -0.2670
21517W        W37778   6.397  15.611   2.357  0.1352  0.2080  0.0431
21518W        W37779  16.956   0.401  13.589 -0.1890  0.0877  0.2222
21519W        W37780  14.595   3.836  15.902  0.3026  0.0315 -0.2050
21520W        W37781  17.405  13.761  12.097  0.0014 -0.0621  0.0630
21521W        W37782  11.805   1.289   0.373  0.1932  0.3359  0.0010
21522W        W37783   9.786   2.041   3.307  0.1744  0.2844  0.0761
21523W        W37784   4.122  15.628  12.336 -0.1876 -0.1845 -0.3611
21524W        W37785   2.535   7.824   1.426  0.0567 -0.1483 -0.1098
21525W        W37786  14.526   9.007  16.005  0.2104 -0.2105 -0.0477
21526W        W37787   4.787   8.274   5.408  0.0257  0.3014 -0.1988
21527W        W37788  14.508  13.072  14.725  0.1956 -0.1462 -0.1607
21528W        W37789   7.418   6.305  12.348 -0.1050  0.0970  0.0819
21529W        W37790   4.709   5.445  15.246 -0.0313 -0.2960 -0.0983
21530W        W37791   4.044   3.497   3.802  0.0789  0.2302  0.1200
21531W        W37792  13.768  11.286  14.347 -0.0955  0.1784 -0.0206
21532W        W37793   6.004  14.763  15.027 -0.0819 -0.0136 -0.0893
21533W        W37794  12.619  11.505   4.447  0.0110 -0.0735 -0.5121
21534W        W37795  15.042  10.531  11.716 -0.1921 -0.1654 -0.2587
21535W        W37796   8.360  12.760  12.560  0.0040 -0.0066 -0.2710
21536W        W37797  10.913  16.145   4.417  0.2936  0.0020 -0.0507
21537W        W37798   8.475  15.638  12.327 -0.0005 -0.1122 -0.1032
21538W        W37799  14.669   2.379  12.654  0.0211 -0.1252 -0.1310
21539W        W37800   9.448  10.502   3.622  0.2447 -0.3792 -0.1833
21540W        W37801  14.227   0.003  14.195  0.0040 -0.1969 -0.0367
21541W        W37802  17.352  12.423   3.415  0.1812  0.2866 -0.2081
21542W        W37803   5.213   8.694  13.642  0.0074 -0.1141  0.0704
21543W        W37804   7.623   5.581  14.928  0.2546 -0.0220 -0.0164
21544W        W37805  12.146   7.809   5.300 -0.1845 -0.1722  0.1041
21545W        W37806   4.288  12.710  12.975  0.1370  0.3150 -0.0281
21546W        W37807  16.357  12.088   3.499  0.2415  0.1045  0.0955
21547W        W37808   5.919  12.329  14.805  0.0904  0.0228 -0.1732
21548W        W37809   9.140   2.009  12.556  0.2386  0.1642  0.0404
21549W        W37810  16.929   8.748   1.994  0.4439 -0.3596  0.2052
21550W        W37811   3.172   7.122  12.426  0.1074 -0.1469 -0.2306
21551W        W37812  14.580  12.993  15.561 -0.0147  0.0420  0.1131
21552W        W37813  17.408   0.337  16.397  0.2936 -0.0584  0.0264
21553W        W37814   5.541   7.983   0.931  0.2193  0.0478 -0.1334
21554W        W37815   0.761   9.577  11.916 -0.1665  0.1729 -0.0947
21555W        W37816  17.055  12.423  12.047  0.0117  0.1464 -0.1321
21556W        W37817  16.280   9.752   5.124 -0.1051 -0.0474  0.0005
21557W        W37818  14.553   5.913   4.426 -0.1877  0.2223  0.1363
21558W        W37819   6.904  14.736  11.574 -0.2007 -0.0138 -0.0440
21559W        W37820  12.200   1.380   4.145 -0.1115  0.1111 -0.1643
21560W        W37821   8.500   8.911  16.403  0.0109  0.0668 -0.0300
21561W        W37822  15.878  14.109   0.889 -0.0580 -0.1097 -0.2521
21562W        W37823   0.471  15.621   3.056 -0.0563  0.2766  0.0720
21563W        W37824   4.863   4.370  15.995  0.0149 -0.0785  0.1659
21564W        W37825  11.078  13.115   4.163 -0.1928  0.1381  0.0660
21565W        W37826  16.551  12.466  15.440  0.2448  0.3761  0.3031
21566W        W37827  11.900  12.725   3.550  0.1226  0.0626  0.2522
21567W        W37828  16.165   8.748   1.486  0.0944  0.0649  0.0623
21568W        W37829   9.533   0.403   2.925 -0.0495 -0.3156  0.1811
21569W        W37830   9.756  10.701   2.961  0.2314  0.0290  0.0939
21570W        W37831  17.117  10.160   4.555 -0.1073 -0.0548 -0.2383
21571W        W37832   2.842   9.566  16.424  0.1842 -0.1914 -0.1057
21572W        W37833   3.864  12.127   2.568 -0.1056 -0.1009 -0.0134
21573W        W37834   1.214  11.478   0.611 -0.2364  0.2238  0.1508
21574W        W37835   1.008   8.820  14.972  0.1671  0.2926  0.1577
21575W        W37836  16.873   9.095   3.092 -0.3495 -0.1012  0.1601
21576W        W37837  12.533   3.299   3.621 -0.0888  0.2600 -0.1859
21577W        W37838   1.322   2.789  14.666 -0.1587 -0.0538  0.0873
21578W        W37839  13.112   9.184  11.917  0.2090 -0.0008  0.0041
21579W        W37840   6.333   8.663  13.321 -0.1361 -0.2354  0.0724
21580W        W37841   5.267   8.223   3.602 -0.3425 -0.0836 -0.1186
21581W        W37842   7.146  12.925  13.654 -0.2808 -0.1808  0.0609
21582W        W37843   0.709   5.759  11.724 -0.1736 -0.0215 -0.1750
21583W        W37844  17.538   6.973  16.557  0.0852 -0.0304  0.0213
21584W        W37845  15.712  16.082  12.529  0.4523  0.0776 -0.1456
21585W        W37846  10.328   4.248   3.082  0.3574 -0.2511  0.2086
21586W        W37847   9.240  15.061   5.279  0.0034 -0.3703 -0.1126
21587W        W37848   7.972  10.204  15.140 -0.0897  0.2036  0.1068
21588W        W37849   3.799  15.054   4.965  0.2711 -0.0202  0.0032
21589W        W37850   4.494   2.646   1.197 -0.1067  0.2151 -0.5853
21590W        W37851  17.286   6.477   5.294  0.1398  0.1643  0.0006
21591W        W37852  10.228   2.108   0.279 -0.1114  0.2160 -0.2512
21592W        W37853   1.126   5.251  13.429 -0.0853  0.1679  0.1990
21593W        W37854   0.883   4.373   3.073 -0.2399 -0.3022 -0.1153
21594W        W37855   4.074  16.420  12.043 -0.2161  0.0248 -0.1242
21595W        W37856   8.487  13.224  13.089 -0.1171  0.0261  0.3035
21596W        W37857   9.022   6.794   4.495 -0.1250  0.3195  0.1055
21597W        W37858  14.147   0.448  11.511  0.0847  0.1079 -0.1419
21598W        W37859   7.143  16.950   4.019 -0.1290 -0.3309  0.0394
21599W        W37860  15.064   3.382  13.746 -0.3345  0.4783  0.1996
21600W        W37861   5.961   2.593  15.771 -0.0375 -0.0389 -0.1331
21601W        W37862  10.850  16.566   5.408  0.0822  0.1018 -0.1557
21602W        W37863  16.766  13.186  13.983  0.1042 -0.2453  0.1992
21603W        W37864  16.008   8.926  12.332 -0.0024 -0.1362 -0.1395
21604W        W37865   5.409   4.845  16.704 -0.1274  0.0179  0.1841
21605W        W37866   8.939  16.978   4.705  0.2344 -0.1107  0.0995
21606W        W37867  11.526   3.913   1.927 -0.1848 -0.1237  0.1841
21607W        W37868   6.763  14.069   2.812  0.1316 -0.0203  0.1002
21608W        W37869   5.679   6.039   1.629 -0.2653 -0.0238 -0.1399
21609W        W37870   1.965   8.461   5.758  0.0167  0.1109 -0.0266
21610W        W37871   2.289   6.418  15.082  0.2795  0.1368  0.2459
21611W        W37872   6.950   8.116  14.321  0.0570 -0.0046  0.2342
21612W        W37873   4.644   7.024   3.826 -0.0303  0.0041  0.2007
21613W        W37874   6.950  13.394  16.709 -0.0363 -0.0534 -0.1799
21614W        W37875   1.872   3.886   5.791  0.0520 -0.0117 -0.0728
21615W        W37876  14.877   1.938  12.356  0.2097  0.0250 -0.0237
21616W        W37877  14.756  16.666   2.316 -0.0038 -0.0731  0.0874
21617W        W37878   9.750  17.818   6.358 -0.0315  0.2134 -0.0896
21618W        W37879   4.374   2.947   4.727  0.0216 -0.2065  0.0671
21619W        W37880  15.319   3.732   2.186 -0.0632 -0.1241 -0.2042
21620W        W37881   7.484   2.408   0.668  0.0354  0.0641  0.1138
21621W        W37882  13.790   3.447  16.864  0.0814 -0.3108 -0.0116
21622W        W37883  15.442   0.320   3.245 -0.0817 -0.2106 -0.1629
21623W        W37884  11.742   3.832   6.485  0.1470 -0.2631  0.1035
21624W        W37885  16.948  15.357   2.747  0.0087 -0.0860  0.1539
21625W        W37886   6.009   2.330  14.894  0.2815 -0.2563  0.0610
21626W        W37887   2.649  12.281  16.967 -0.1722 -0.0060  0.0048
21627W        W37888  11.625  14.490  12.215 -0.0466 -0.1068  0.0120
21628W        W37889   4.749   8.211   0.478 -0.1395  0.1421 -0.2226
21629W        W37890  10.617  14.437   5.425  0.0289 -0.0978  0.0337
21630W        W37891  17.002  14.094  14.083  0.0064 -0.1605  0.0592
21631W        W37892  16.608   2.617   4.879  0.1180  0.3716  0.0041
21632W        W37893   0.688   8.100   4.156 -0.0871  0.1504  0.2468
21633W        W37894  11.394   5.379   3.570 -0.0926 -0.2508  0.0930
21634W        W37895  17.069  10.867   5.704 -0.0113  0.2993 -0.0925
21635W        W37896   4.929   7.313  14.186 -0.2331  0.4162  0.0298
21636W        W37897   0.882  14.530  11.160 -0.2029  0.3612  0.1467
21637W        W37898   7.669   7.645   1.603  0.3262 -0.3853  0.1405
21638W        W37899   8.796   6.454  16.287  0.0798 -0.2065  0.3832
21639W        W37900   1.591  12.948   3.868 -0.2654 -0.1147  0.2860
21640W        W37901   7.239  17.483  14.957  0.3624 -0.0812 -0.1826
21641W        W37902  12.884  10.188   1.835 -0.0310  0.0526  0.3138
21642W        W37903   7.387  12.278  14.878  0.1046 -0.3262 -0.0347
21643W        W37904   4.286   8.197  10.852 -0.0552 -0.1340 -0.0478
21644W        W37905   2.739  14.780   4.039 -0.0553  0.3887 -0.2824
21645W        W37906  10.631   0.812  13.158  0.0713 -0.1550 -0.1121
21646W        W37907   2.752   9.068  15.711  0.2476 -0.0415  0.3541
21647W        W37908   4.869   5.684   0.993  0.3765  0.0644 -0.0335
21648W        W37909  15.047   2.231   2.067  0.0796  0.2100  0.0561
21649W        W37910   3.391   8.442   0.151  0.3292 -0.0154 -0.1334
21650W        W37911  10.907   3.665   5.443 -0.3787  0.2261  0.2953
21651W        W37912  11.651  17.772   0.725 -0.1410 -0.2138  0.2023
21652W        W37913   6.043  16.438  15.798  0.0598  0.1542 -0.1810
21653W        W37914  13.361   6.596  15.406  0.2062  0.2714  0.0320
21654W        W37915  16.492  10.724  11.754 -0.0992 -0.1539 -0.0145
21655W        W37916   3.483  15.821  15.593  0.0232 -0.1356 -0.1919
21656W        W37917   0.038   0.941  15.830  0.0349 -0.0941 -0.0520
21657W        W37918  15.991  15.358   1.868  0.2559  0.0493  0.1366
21658W        W37919  10.839  14.815   1.215 -0.1050 -0.2089  0.0419
21659W        W37920  13.988   5.641  14.546 -0.3282 -0.0680 -0.1780
21660W        W37921   4.993   0.025  14.740 -0.0118  0.1345  0.1728
21661W        W37922  10.488   8.176  14.276  0.1507  0.1576 -0.1458
21662W        W37923   7.221   6.287   3.295  0.0709  0.0981 -0.1557
21663W        W37924   0.146  17.063   4.404 -0.2729  0.1286  0.3534
21664W        W37925  13.373   9.891  15.717  0.3188 -0.0110  0.1477
21665W        W37926   9.624   3.206   0.163 -0.2715  0.0217 -0.2285
21666W        W37927  12.531   7.423  12.479 -0.3397 -0.1834  0.0578
21667W        W37928   7.898   5.378  13.370  0.0091 -0.3322  0.0789
21668W        W37929   5.029   5.220  16.552  0.3094 -0.0002  0.1821
21669W        W37930   7.445  17.691  15.407 -0.2797 -0.2656 -0.3459
21670W        W37931   6.445  11.205  11.650  0.2181  0.0781  0.0316
21671W        W37932  13.027   2.025   3.854 -0.0980  0.1466 -0.0899
21672W        W37933   7.191   4.639   3.864 -0.0365  0.0969 -0.0963
21673W        W37934   3.354  16.911   0.080  0.0947 -0.0191 -0.0738
21674W        W37935   3.565  16.938   4.313  0.1576 -0.1318  0.2118
21675W        W37936  10.516   0.716  16.521  0.1833  0.1832 -0.1684
21676W        W37937  17.804   9.999  12.262  0.2285  0.0333  0.0762
21677W        W37938   8.145  12.001  14.512 -0.1966  0.3236  0.1710
21678W        W37939  11.678   9.710  16.671  0.0637  0.3635  0.0754
21679W        W37940   1.004   2.582  15.292 -0.0263  0.3328 -0.1409
21680W        W37941   4.621  14.118   0.096 -0.0671  0.3161 -0.0377
21681W        W37942   8.650   1.504   4.734  0.2757  0.1733 -0.0487
21682W        W37943   4.825   7.871   0.017 -0.0155 -0.1409  0.3557
21683W        W37944  13.131   1.596  12.528  0.0911  0.0900 -0.1918
21684W        W37945  15.334   3.736   6.506  0.0022 -0.3833  0.0402
21685W        W37946   9.983  11.411  16.545  0.2071  0.0888  0.0860
21686W        W37947  17.668   8.590   6.074  0.3772  0.0933 -0.0915
21687W        W37948   3.985   4.432  14.492  0.1863 -0.2740  0.1231
21688W        W37949  15.545   5.917  14.663  0.3411 -0.1308  0.1639
21689W        W37950  14.734  14.351   5.016  0.0245  0.5862 -0.2004
21690W        W37951  11.228  13.453   2.656 -0.0490 -0.2508 -0.0186
21691W        W37952   6.722  17.815  14.259 -0.0517 -0.1427 -0.3055
21692W        W37953   1.674   9.860  15.275  0.2892 -0.0919  0.0556
21693W        W37954   9.435  16.600  12.338  0.2488 -0.1455 -0.0169
21694W        W37955   7.787   4.162   3.313  0.0551 -0.0752  0.0024
21695W        W37956   7.855   2.995   1.019  0.1638  0.1403 -0.2448
21696W        W37957   1.642  15.782   1.803  0.1726 -0.1682 -0.0893
21697W        W37958   0.575   1.320  16.314  0.2068  0.1595  0.2036
21698W        W37959   5.103   4.950   5.837 -0.0500  0.1944  0.0024
21699W        W37960   2.458  16.679   0.922  0.1830  0.2688 -0.3607
21700W        W37961   7.834  12.084  13.523 -0.1851  0.0254  0.0397
21701W        W37962  13.162   1.245  13.877  0.2363  0.0998 -0.0252
21702W        W37963   1.974  10.519  13.030 -0.1418 -0.3518 -0.0429
21703W        W37964  10.904   2.495   2.872 -0.2899  0.0597  0.1733
21704W        W37965  10.390  13.562   3.075  0.0944  0.1765  0.1994
21705W        W37966   5.496   5.775   5.319 -0.0543  0.0343  0.1426
21706W        W37967  12.470   0.570   5.634  0.0961  0.0236  0.1442
21707W        W37968   4.463  17.548   2.475 -0.1661  0.2037  0.1897
21708W        W37969  16.852   2.678   0.420  0.0015  0.1802 -0.1980
21709W        W37970  16.724   2.230   4.588 -0.2510  0.1839  0.2317
21710W        W37971   9.414   8.489  14.119  0.2139  0.0612 -0.1513
21711W        W37972  10.263  14.607   1.954 -0.1622 -0.4085 -0.2070
21712W        W37973   1.784   8.906  12.257  0.2129 -0.2853  0.2107
21713W        W37974  10.427  12.940  13.902  0.0452  0.2382  0.1250
21714W        W37975   7.562   1.898  12.031 -0.2048 -0.2085 -0.3910
21715W        W37976  13.706   9.371   3.838  0.0646  0.0272  0.1694
21716W        W37977  11.903  13.408  16.650 -0.1991 -0.0227 -0.3162
21717W        W37978   9.748  16.999   4.034 -0.0582  0.1003  0.4069
21718W        W37979  15.284   4.868   0.821  0.1052 -0.0376 -0.2133
21719W        W37980   4.312  16.642  16.083  0.4501 -0.1014  0.0013
21720W        W37981   1.607   1.398   2.827 -0.2663 -0.0704 -0.0628
21721W        W37982   7.435   1.661  12.585 -0.0990  0.0661 -0.1377
21722W        W37983   6.977  14.936   2.237 -0.1823  0.0444  0.1519
21723W        W37984   4.352   7.818   0.230  0.1520 -0.0321 -0.2178
21724W        W37985   6.146   8.892   0.881 -0.0180 -0.1481 -0.0044
21725W        W37986  14.842   2.216   0.663  0.0349  0.1896 -0.0846
21726W        W37987   6.093   7.661  14.479 -0.0396 -0.2103 -0.2806
21727W        W37988   7.257   6.949   1.130  0.2988  0.0848  0.2353
21728W        W37989   7.775  13.863   5.691  0.3968 -0.2009  0.2141
21729W        W37990   5.910  13.546   0.568 -0.1656 -0.0070 -0.1006
21730W        W37991  13.910   9.617  11.979  0.1485  0.3056  0.0829
21731W        W37992   8.114  15.037   2.651 -0.0168  0.2447  0.1772
21732W        W37993  14.580  16.003  14.460 -0.0276 -0.2399 -0.1118
21733W        W37994   8.212  11.294  11.780  0.2679  0.2250  0.0009
21734W        W37995   5.627  14.829   1.866  0.1506  0.0976 -0.2619
21735W        W37996   8.197   2.282  12.674  0.2465 -0.2215 -0.2406
21736W        W37997  11.773  12.533  15.150 -0.2186 -0.0545 -0.0851
21737W        W37998   1.785   3.634   1.951 -0.1225  0.2194 -0.1727
21738W        W37999  11.077   4.885   2.751 -0.0812 -0.1808 -0.0574
21739W        W38000  15.468   8.987   0.775 -0.1803  0.1321 -0.3816
21740W        W38001   8.379   7.834   2.100 -0.0383 -0.2213 -0.1262
21741W        W38002   4.960  17.829   2.482 -0.3598 -0.0730  0.0548
21742W        W38003   5.543  10.962  16.161  0.0960 -0.1182  0.1227
21743W        W38004  14.337   6.953  11.733 -0.1415 -0.3375 -0.3671
21744W        W38005   1.372   5.627   1.824  0.1388 -0.3290 -0.0750
21745W        W38006   4.822  13.524   1.575  0.1308 -0.1996  0.1540
21746W        W38007  10.879  17.339  13.212  0.0822 -0.0600 -0.1419
21747W        W38008  12.999  15.868   3.312  0.2444 -0.0413 -0.1614
21748W        W38009   3.647   3.949   2.216 -0.1108  0.1040  0.2606
21749W        W38010  14.263  15.062  13.635 -0.2979  0.0061  0.2242
21750W        W38011   6.281  14.047   4.865  0.0832 -0.0933 -0.4854
21751W        W38012   2.605  10.131  15.203 -0.0325 -0.3154 -0.0662
21752W        W38013   0.783   5.088  15.213  0.1074  0.3668 -0.1910
21753W        W38014   9.102   1.374   1.044  0.1956  0.0255 -0.2939
21754W        W38015  10.773   7.213   3.684  0.0994 -0.0545  0.3464
21755W        W38016   1.285  10.120  13.978  0.1062  0.1654 -0.0576
21756W        W38017   3.928   7.250  15.590  0.1172 -0.0544 -0.3244
21757W        W38018  13.888   5.461   5.571  0.0422 -0.0988 -0.3301
21758W        W38019   8.622   7.861   3.461  0.0081 -0.2088 -0.2487
21759W        W38020   8.833  15.435   0.685 -0.0183  0.0994 -0.0395
21760W        W38021  17.598   9.542   6.078  0.1349 -0.2586  0.1080
21761W        W38022   9.939   5.407  16.860  0.1401 -0.0198  0.0673
21762W        W38023  12.670   1.534   3.956  0.2090 -0.1074  0.1318
21763W        W38024   4.332   6.305  15.256  0.0331 -0.1289  0.1082
21764W        W38025  13.566  16.986  13.373 -0.2834 -0.0575  0.2049
21765W        W38026   3.294  11.529   1.685  0.0086  0.1874 -0.0341
21766W        W38027  14.615   9.627   2.285  0.2191  0.0285 -0.0002
21767W        W38028   2.943  12.858   5.120 -0.1180  0.0405 -0.4788
21768W        W38029   9.196   5.222   0.924  0.0788  0.1970 -0.0121
21769W        W38030   5.827   7.871  13.987 -0.0510  0.0749 -0.1956
21770W        W38031   5.188   9.635   5.607 -0.0786  0.3548  0.0565
21771W        W38032   1.732   8.999   3.862 -0.0507 -0.0412 -0.1477
21772W        W38033   2.418  10.106  11.661 -0.1280 -0.0552  0.5077
21773W        W38034   3.958  14.305   6.071  0.0986  0.1590  0.0554
21774W        W38035   6.484  16.058   3.412 -0.1523 -0.5071  0.0149
21775W        W38036   1.790   2.125   3.763  0.0515 -0.0634  0.1600
21776W        W38037  17.246  16.959  16.042 -0.2045 -0.1358  0.1828
21777W        W38038  14.570   4.720  13.304 -0.2311 -0.2793  0.1455
21778W        W38039   4.948  17.127  16.695  0.0203 -0.0723 -0.0894
21779W        W38040  16.655   4.757   0.301  0.1276  0.0144  0.1745
21780W        W38041   6.100   7.519   2.501 -0.0093 -0.4009 -0.0822
21781W        W38042  10.828   7.557   1.211 -0.0532 -0.0092 -0.2210
21782W        W38043   3.669  16.670   1.880 -0.0169  0.2003  0.1413
21783W        W38044   4.021  11.482   0.003  0.0295 -0.1767 -0.0280
21784W        W38045  10.056  14.242   4.155 -0.1339  0.0243  0.0720
21785W        W38046   0.509  16.363  16.400 -0.1608 -0.0347 -0.1920
21786W        W38047   5.581   1.713   0.685 -0.1703  0.2379  0.1016
21787W        W38048   5.273  16.770   0.942 -0.2149 -0.1238 -0.0779
21788W        W38049   5.379   5.701   1.169  0.4557 -0.1526  0.2011
21789W        W38050  17.088   5.869   5.675 -0.0702  0.0019  0.0678
21790W        W38051  15.812   3.230  16.292 -0.0478  0.1658 -0.2960
21791W        W38052  15.832   8.698  11.805 -0.0493 -0.3783 -0.2104
21792W        W38053  10.258  12.179   1.542 -0.0421 -0.0450 -0.2690
21793W        W38054   7.756  16.290   5.181  0.0325  0.1922  0.1178
21794W        W38055  13.009   9.918  12.030  0.0288  0.0843 -0.1746
21795W        W38056   9.530   1.058   1.057  0.0849 -0.3809  0.0378
21796W        W38057   7.474  11.398  13.609  0.2090 -0.2635  0.1749
21797W        W38058   8.929   5.548  16.728 -0.0461  0.0369  0.2042
21798W        W38059  14.200   3.425   0.194 -0.0508  0.0052 -0.0712
21799W        W38060  11.369  11.753  12.015 -0.0714 -0.1445  0.0013
21800W        W38061   9.687  12.754   1.223  0.0033 -0.3360 -0.2301
21801W        W38062   5.109   9.955  14.008  0.1759 -0.0555 -0.1262
21802W        W38063   8.569  13.512  16.484 -0.0887 -0.3134  0.4951
21803W        W38064   4.309  16.602   2.634 -0.0060  0.0509  0.1439
21804W        W38065   1.348   9.278   5.375 -0.0661 -0.1275  0.1485
21805W        W38066  17.174  14.015   5.473  0.0264  0.1619  0.1457
21806W        W38067  13.974   6.992   4.864 -0.1011 -0.0878  0.0556
21807W        W38068  14.166  13.263  13.221 -0.2198  0.0732  0.1379
21808W        W38069  10.315   4.273   0.569  0.0979 -0.1572 -0.0864
21809W        W38070   2.412  13.787   2.882  0.1631 -0.2154 -0.5436
21810W        W38071   3.346   5.790   1.761  0.2703  0.1816  0.1749
21811W        W38072  14.951  12.802   4.913 -0.0200  0.3030 -0.1919
21812W        W38073   3.289   5.609  15.076 -0.0897 -0.3422 -0.3330
21813W        W38074  17.470   5.771   1.475 -0.1785 -0.2067  0.0206
21814W        W38075   5.458   7.765   3.864  0.2966 -0.0547 -0.1301
21815W        W38076   0.905   8.404  16.849  0.3076 -0.0004  0.0025
21816W        W38077   5.049   2.317  15.082 -0.3100  0.1984  0.3550
21817W        W38078  10.836  13.828   4.694 -0.2252 -0.0744  0.1424
21818W        W38079  13.319   6.964   4.103  0.2995  0.1098 -0.0668
21819W        W38080  12.345   2.960   2.869 -0.0410 -0.0612  0.4031
21820W        W38081   0.762   7.676   5.028 -0.0621  0.3017  0.1532
21821W        W38082  15.294  14.907   3.570  0.1668  0.0867 -0.3275
21822W        W38083  11.941  13.878  11.973 -0.2641  0.1898  0.2065
21823W        W38084  13.654  12.971   1.680  0.2253 -0.0802 -0.1498
21824W        W38085   2.618   2.365  13.463  0.1830  0.0239  0.1543
21825W        W38086   9.787  16.638  11.821  0.1955 -0.0272 -0.0224
21826W        W38087   9.007  13.897   0.303  0.1395  0.0218  0.2097
21827W        W38088   3.144   9.310  16.070  0.0505  0.0509 -0.0406
21828W        W38089  10.418  17.137   2.528 -0.5064 -0.1218  0.0127
21829W        W38090   0.259   6.662   2.992 -0.0364  0.0257 -0.0211
21830W        W38091   0.439   5.847  13.591  0.0760 -0.1472  0.0240
21831W        W38092   5.370  10.172  12.711 -0.1643  0.1950  0.1017
21832W        W38093   2.436  15.419   3.426  0.2379  0.4088 -0.1108
21833W        W38094  16.567   3.499   0.117  0.1369  0.0077  0.1675
21834W        W38095   6.979   4.026  13.208  0.1819 -0.2457 -0.3471
21835W        W38096   9.846   2.324   2.279  0.0541 -0.1569 -0.1732
21836W        W38097   3.677   8.543   5.505  0.0101 -0.0603 -0.0730
21837W        W38098   6.463  14.089   5.413  0.1321 -0.0642 -0.0927
21838W        W38099  14.803  13.098   1.184 -0.0889  0.0652  0.2368
21839W        W38100   2.442  11.649  13.380 -0.1323 -0.0970 -0.2107
21840W        W38101   9.941   7.215  16.720 -0.0749  0.1215 -0.1131
21841W        W38102  11.740  17.828   4.322  0.1908 -0.2108 -0.1968
21842W        W38103   0.970   4.587   4.932 -0.3319 -0.0945 -0.0499
21843W        W38104  10.949  12.360  15.018  0.0267  0.1998 -0.1874
21844W        W38105   7.586  10.873   5.163 -0.0584  0.1260 -0.0582
21845W        W38106   3.550  12.798  14.641 -0.0472 -0.0529  0.0084
21846W        W38107   1.145  12.372  12.160 -0.0616 -0.0786  0.3955
21847W        W38108   0.351  15.467  16.554 -0.2094 -0.1630 -0.1541
21848W        W38109   1.839   0.448  16.033 -0.1149 -0.0712 -0.0310
21849W        W38110   9.198   5.001   0.365 -0.1620 -0.3373  0.1558
21850W        W38111   4.082   1.837  12.765  0.1415  0.1624 -0.2193
21851W        W38112   0.650  16.565   2.035  0.1870 -0.0922  0.0148
21852W        W38113  16.592  13.242   3.892 -0.1557 -0.0766 -0.0163
21853W        W38114   0.139   2.093   0.424 -0.2285  0.1390  0.2338
21854W        W38115  16.977   8.751  13.278  0.0080  0.0914 -0.3806
21855W        W38116  11.395   2.637   1.367 -0.1542 -0.1649  0.2120
21856W        W38117   1.795   3.933  13.223 -0.2187 -0.4132 -0.0034
21857W        W38118   3.571   1.791   2.338 -0.2754  0.0132  0.0048
21858W        W38119  15.474   8.097   4.635  0.1099 -0.1048  0.0835
21859W        W38120   7.548  10.039  14.203  0.0136 -0.1532 -0.1721
21860W        W38121  12.005  11.954  13.464  0.3611  0.1743 -0.0101
21861W        W38122   5.487   8.447  12.076 -0.2061  0.0789 -0.2225
21862W        W38123  16.358   5.955  14.491 -0.1190  0.0661  0.0620
21863W        W38124  16.320  14.205   1.040 -0.0797 -0.2580  0.1849
21864W        W38125   0.079  14.382   2.254 -0.1317  0.1713  0.3592
21865W        W38126   0.714   0.525  12.062 -0.2343 -0.1893  0.1846
21866W        W38127  12.938  15.859  15.114 -0.1039  0.2423  0.1204
21867W        W38128   9.662   6.814   5.111  0.0257 -0.3231  0.0002
21868W        W38129  14.631  12.328  16.149  0.1730  0.1639  0.1215
21869W        W38130   1.065   9.542  14.631  0.1686 -0.0626 -0.0852
21870W        W38131   2.249  13.822  11.817 -0.1029 -0.2653  0.1490
21871W        W38132  16.894  16.840   2.153 -0.0777  0.3190  0.2356
21872W        W38133   8.061   3.174  15.254 -0.0097 -0.0264  0.2282
21873W        W38134   8.654   9.416   4.516 -0.3634  0.0881 -0.2714
21874W        W38135  13.219  12.235   0.927 -0.2673  0.2599  0.0242
21875W        W38136   0.946   6.049  16.137  0.1432  0.1184  0.0736
21876W        W38137   4.682   8.785   3.948  0.0728 -0.0014 -0.0968
21877W        W38138   2.624  12.713   3.579 -0.1300  0.1691  0.0173
21878W        W38139  13.148   7.378   5.188 -0.0084 -0.0538 -0.0459
21879W        W38140   1.231   9.067   3.818 -0.0633 -0.1123 -0.2036
21880W        W38141   9.897  17.000  13.358  0.3652 -0.0961  0.2693
21881W        W38142  17.032  12.251   0.601  0.1081  0.0407  0.1369
21882W        W38143   0.384   5.684   2.219  0.0581 -0.1294 -0.1809
21883W        W38144  17.576  13.111   3.754 -0.3298 -0.2659  0.2255
21884W        W38145  10.640  11.738  12.890  0.1895  0.2999 -0.0620
21885W        W38146   5.183  11.943   1.399  0.2288 -0.0616 -0.1496
21886W        W38147  10.426   0.907   0.017 -0.0879  0.0662 -0.1518
21887W        W38148   4.523  15.497   1.895  0.2326 -0.1201  0.0471
21888W        W38149   6.788  13.083  16.320 -0.0579 -0.1386 -0.0829
21889W        W38150   8.382   9.499  12.035 -0.2499 -0.3817 -0.0880
21890W        W38151   8.675  11.205  12.302 -0.1839 -0.2214 -0.1205
21891W        W38152  10.849  12.290   5.513 -0.2029  0.0040  0.0377
21892W        W38153  14.072  17.657  16.680 -0.2397  0.1774  0.1409
21893W        W38154   5.155  14.065   0.742  0.1483 -0.3305 -0.0542
21894W        W38155   8.097   7.254  11.601  0.2168 -0.0301  0.6750
21895W        W38156   5.402  14.307  13.553  0.0274 -0.2752  0.0102
21896W        W38157   9.786   6.992   2.820  0.0732 -0.0781 -0.0323
21897W        W38158   5.374  11.329  12.007 -0.1328 -0.0698 -0.2988
21898W        W38159  13.700  17.359   1.821 -0.0066 -0.3029 -0.2836
21899W        W38160   3.862   6.457   5.169 -0.1344  0.0439 -0.0204
21900W        W38161   1.539   6.760  15.924  0.0332 -0.4933 -0.0259
21901W        W38162   0.737   5.436  13.190 -0.3274  0.3070  0.1197
21902W        W38163  14.406   4.603   0.748  0.1373 -0.0718 -0.0064
21903W        W38164   5.540  12.901   4.194 -0.1560 -0.0944  0.1804
21904W        W38165  17.546  10.576  15.869 -0.0413 -0.0469 -0.1367
21905W        W38166  17.752   5.389   6.045 -0.2678 -0.3524  0.1968
21906W        W38167  13.467   3.391  12.952 -0.0486  0.0519  0.0112
21907W        W38168   6.086   5.083  15.229  0.1521 -0.3370  0.2104
21908W        W38169   7.097   7.439   4.030 -0.0501 -0.0566 -0.0174
21909W        W38170   3.923  16.416   1.000  0.0375 -0.2111 -0.2824
21910W        W38171  16.791   2.905   1.319  0.0685 -0.1097  0.0123
21911W        W38172  15.360   1.276  16.157  0.4228  0.2897  0.0068
21912W        W38173   9.340   7.850  14.527 -0.2784  0.0240 -0.2655
21913W        W38174   8.739  15.978   0.986  0.3517 -0.0456  0.2789
21914W        W38175   9.789  15.142   0.390 -0.2803  0.0726  0.1679
21915W        W38176   6.592  12.481   3.334 -0.0756  0.0399 -0.0633
21916W        W38177   5.333  16.666   6.218  0.0443  0.2018  0.1470
21917W        W38178  10.850  13.792  15.748  0.2515 -0.0818 -0.0792
21918W        W38179   7.020   1.648   1.912 -0.0444  0.1125  0.2051
21919W        W38180  12.225   0.592   1.196  0.1213  0.0339 -0.0012
21920W        W38181  12.999   8.096   2.373  0.1855 -0.0786 -0.1836
21921W        W38182   8.369   5.334  15.137  0.2560  0.0686 -0.2251
21922W        W38183  14.317  14.703  16.661 -0.0037  0.1542  0.0678
21923W        W38184  10.613   0.574  16.074 -0.0163  0.3993  0.0162
21924W        W38185  15.523  11.544   1.415  0.1435 -0.0068 -0.1701
21925W        W38186   8.793   5.034  15.066 -0.1251 -0.1706  0.1811
21926W        W38187  17.117   8.395  15.285 -0.0684 -0.1725  0.0192
21927W        W38188   0.259  16.405  14.910  0.2050  0.0197 -0.4359
21928W        W38189   5.865  16.042  12.648 -0.1801  0.0176  0.0933
21929W        W38190  14.744   8.040   2.390 -0.0192 -0.4892 -0.0783
21930W        W38191   2.722   1.804  12.613  0.0920  0.2664 -0.1017
21931W        W38192  14.053   6.794  13.165 -0.0341 -0.4050  0.0608
21932W        W38193   5.455  17.302  16.976  0.0405 -0.0342 -0.1193
21933W        W38194   4.578  10.935   5.412  0.1834  0.2991 -0.0100
21934W        W38195   2.579  13.197  16.212  0.0927  0.0861 -0.0879
21935W        W38196   5.809   2.218   2.122 -0.0817  0.1553  0.1596
21936W        W38197   7.777  10.537   0.304  0.1349 -0.1098  0.2749
21937W        W38198   9.036   4.999   4.768 -0.1873 -0.2113 -0.0114
21938W        W38199   9.153  15.103  12.229 -0.0122 -0.3879 -0.2590
21939W        W38200   7.294   5.685   2.493  0.1104  0.2485  0.0508
21940W        W38201  16.656   5.283   1.360  0.1974 -0.1852 -0.1288
21941W        W38202   4.901   0.908   5.534 -0.2912  0.3491  0.2283
21942W        W38203  11.948   0.405  13.141 -0.1265 -0.1288  0.1071
21943W        W38204  14.243  12.720  14.133 -0.1251 -0.0639  0.1809
21944W        W38205  12.268   0.856   0.569  0.0708 -0.0659 -0.1120
21945W        W38206  11.370  15.336   2.771 -0.1253  0.1989  0.0384
21946W        W38207   0.501  14.615  11.688  0.0927  0.0229  0.2873
21947W        W38208   8.432   7.499  13.404  0.0188 -0.2008  0.1717
21948W        W38209  15.470   6.869   3.785  0.2368 -0.0989  0.0968
21949W        W38210  11.029   2.395  13.028 -0.2041  0.0019 -0.0877
21950W        W38211  16.599   5.039  15.511 -0.0693 -0.2424 -0.0397
21951W        W38212  11.546   7.079  15.004  0.2012 -0.4756 -0.0021
21952W        W38213   7.295   5.493   4.995  0.1241  0.1068  0.1686
21953W        W38214   6.577   5.680  12.668  0.1212  0.1089 -0.1167
21954W        W38215   3.128  12.787   3.355 -0.0272  0.0204  0.0503
21955W        W38216  12.941   3.389   5.562 -0.1171 -0.1325  0.3253
21956W        W38217  17.568  14.685   2.422 -0.0497 -0.2072  0.0899
21957W        W38218   2.525   5.223   1.723  0.0640 -0.0297 -0.0903
21958W        W38219  17.513  14.240   0.114 -0.1769 -0.1611  0.1232
21959W        W38220  17.810   5.450   3.755  0.2544 -0.1251 -0.1774
21960W        W38221  17.190   0.362   1.074 -0.3054  0.1828 -0.2205
21961W        W38222   4.640  14.265  16.071 -0.3729  0.3397 -0.0310
21962W        W38223  16.206  14.408  13.975 -0.0595 -0.1401  0.4975
21963W        W38224   5.979  14.212  12.033 -0.3029 -0.2065  0.1699
21964W        W38225  16.814  16.932   3.794 -0.2659  0.4911 -0.1625
21965W        W38226  17.380   5.298  14.979 -0.1737 -0.1873  0.0909
21966W        W38227   2.662  13.528  13.186 -0.2229  0.0583  0.1689
21967W        W38228   8.338  10.485   3.339  0.0544  0.1414 -0.1751
21968W        W38229  13.246  15.471   5.017  0.0009 -0.1671  0.2033
21969W        W38230   4.616   9.813  16.517 -0.2425  0.2241 -0.3595
21970W        W38231  17.191  14.648  12.585 -0.1184 -0.2813 -0.0357
21971W        W38232  15.425   5.621  14.308 -0.1226  0.5227  0.0504
21972W        W38233  13.084   1.321   2.005  0.2818 -0.0264  0.2406
21973W        W38234  16.382   4.425   0.041  0.0209 -0.3288  0.3477
21974W        W38235   7.109  15.811   1.677  0.0580 -0.2777  0.0439
21975W        W38236  11.992   9.364  15.586  0.0927  0.0949 -0.0280
21976W        W38237   8.711   7.541   0.626 -0.1145  0.2144  0.2405
21977W        W38238   4.319   9.128   4.381 -0.0140  0.1792 -0.2415
21978W        W38239   6.928  11.692  16.710 -0.0340 -0.2978  0.0278
21979W        W38240   9.987   5.909   4.382  0.0807 -0.3657  0.2830
21980W        W38241  15.219  12.786   0.856 -0.2171  0.1164  0.0312
21981W        W38242  11.420   8.138  14.508  0.2727  0.1101 -0.0151
21982W        W38243  15.267  13.665   0.844 -0.1510  0.0098 -0.0666
21983W        W38244   0.522  11.448  15.598  0.4063  0.0863  0.2822
21984W        W38245   5.940  17.812   2.962 -0.2584  0.1354  0.1413
21985W        W38246  10.208   8.085  11.466  0.1758  0.2782  0.2498
21986W        W38247   4.544   2.559  14.011 -0.0165  0.0410 -0.0554
21987W        W38248   0.357   9.068   3.718 -0.2854 -0.0588 -0.2701
21988W        W38249   8.703  13.234   3.700  0.0436  0.0056 -0.3306
21989W        W38250   0.043   8.608  11.688 -0.2151 -0.2426 -0.0502
21990W        W38251   3.949  12.295  13.002 -0.2042  0.0004  0.3129
21991W        W38252   8.845  10.067   2.938  0.0289 -0.2154  0.0704
21992W        W38253   2.420  13.419   1.284 -0.2133 -0.0192  0.3082
21993W        W38254   7.316  17.329   4.305  0.0770 -0.0488  0.1839
21994W        W38255  17.228   2.112   2.926  0.0929 -0.0892 -0.0639
21995W        W38256   1.002   4.312   5.836  0.1819  0.2664 -0.1022
21996W        W38257  16.474   5.486  15.207 -0.1622  0.1263  0.1309
21997W        W38258  12.593  12.468  12.526 -0.0419  0.0860  0.1051
21998W        W38259   8.953   7.236   4.825 -0.0639  0.2303  0.3208
21999W        W38260   6.508  16.156  13.067  0.0567  0.0282  0.0133
22000W        W38261   6.192   1.158   1.237  0.2329 -0.1658  0.2827
22001W        W38262   6.940  17.529   1.723  0.0869 -0.3114 -0.0658
22002W        W38263   9.675   3.833  11.561  0.2182 -0.1401 -0.1898
22003W        W38264   7.775  15.835   3.783 -0.0145  0.0145  0.3085
22004W        W38265  15.893   6.014   1.599 -0.3758 -0.1298  0.1536
22005W        W38266   7.699   2.479   1.149  0.3461 -0.1370 -0.0762
22006W        W38267   2.786  14.108   4.696 -0.2511 -0.1629 -0.0276
22007W        W38268   0.853   1.543  15.543 -0.1382 -0.0091 -0.1737
22008W        W38269   9.974  14.276   0.323 -0.0748 -0.3071 -0.1767
22009W        W38270   5.204   7.063   1.603  0.2347  0.1962 -0.1511
22010W        W38271  11.938  17.847   3.731  0.0255  0.0391  0.2869
22011W        W38272  13.348   4.114  14.902 -0.1531 -0.0034  0.0312
22012W        W38273   5.479   1.916   4.843 -0.1003  0.0062  0.3472
22013W        W38274  10.454   5.613  13.468  0.2514 -0.0229 -0.0667
22014W        W38275   3.599  14.605   0.441  0.0034  0.0406  0.0267
22015W        W38276   7.223  11.292  16.854  0.1121 -0.5260  0.1130
22016W        W38277  15.004  17.307   1.627 -0.3265 -0.1840 -0.1506
22017W        W38278  13.052   8.971   0.526  0.0606  0.1377  0.3485
22018W        W38279   0.203  11.062   3.532  0.0568 -0.2226 -0.1345
22019W        W38280   9.609  12.961  13.421  0.0844 -0.0327 -0.1548
22020W        W38281  15.270   8.120  13.119  0.0941 -0.1003  0.1664
22021W        W38282   8.419   4.819   2.631  0.0734 -0.3207  0.0922
22022W        W38283   1.131  15.162   5.417 -0.0996 -0.2948  0.0127
22023W        W38284   8.961  17.688  14.671  0.3562 -0.4635  0.3582
22024W        W38285  11.995   8.710   1.426 -0.2652 -0.0797  0.2631
22025W        W38286  10.900  14.196  12.021  0.1224 -0.0541  0.0579
22026W        W38287   9.759   1.744   3.707  0.3413 -0.0272  0.0367
22027W        W38288   4.972   7.419   0.187  0.2954 -0.1809 -0.0490
22028W        W38289   9.965   9.717  13.459  0.2309  0.1418  0.2389
22029W        W38290   4.466   8.500   1.225  0.0821  0.0537 -0.1971
22030W        W38291  11.256   4.220   0.177  0.0100  0.3626 -0.1935
22031W        W38292  17.398   5.251   5.087  0.0926  0.0087  0.0352
22032W        W38293   4.601   0.185  12.508 -0.0665 -0.1851  0.0301
22033W        W38294  12.761  14.086   0.120  0.0640  0.1958  0.3014
22034W        W38295  17.377   1.154   0.293 -0.1405 -0.0379 -0.4254
22035W        W38296   0.907  11.496   4.437 -0.0164  0.0445  0.1057
22036W        W38297   6.561  15.130   2.474 -0.3023  0.0864  0.2454
22037W        W38298   4.746   8.968   0.996  0.0843 -0.1609  0.2131
22038W        W38299  12.729   3.553  15.409  0.0463 -0.0753  0.0775
22039W        W38300   2.263   4.218  16.617 -0.0642  0.0361 -0.0014
22040W        W38301  12.876  11.791  15.504 -0.0044 -0.0440 -0.1635
22041W        W38302   9.102   6.003  16.615 -0.0361  0.1270  0.0125
22042W        W38303  10.980   7.543   4.765 -0.0859 -0.0453 -0.1380
22043W        W38304   1.687   5.488   2.307 -0.0682  0.0322  0.0455
22044W        W38305  13.874   9.311   3.345  0.2979 -0.1081  0.1311
22045W        W38306   8.734  17.770  11.757  0.1182  0.0264  0.2407
22046W        W38307  14.211   9.224   4.034 -0.0961  0.1741  0.0377
22047W        W38308  10.398  11.920   5.387 -0.4299  0.1010  0.1696
22048W        W38309   8.668  16.599  16.746 -0.2384  0.0308 -0.2135
22049W        W38310   9.780  17.435  16.758  0.1911 -0.5181 -0.2090
22050W        W38311  11.820  14.625   1.418  0.0068  0.4423  0.2832
22051W        W38312   9.135   3.387   1.405 -0.2885  0.0089  0.2613
22052W        W38313  10.927   6.664  15.610  0.0837 -0.0637  0.5716
22053W        W38314   0.747   9.614  15.032  0.1871  0.1728 -0.0485
22054W        W38315   2.182   4.483   4.303  0.1227 -0.1433  0.0197
22055W        W38316   3.173  10.684  12.102  0.5443 -0.2448 -0.0287
22056W        W38317   1.442  10.588  13.088  0.1732 -0.0339 -0.2948
22057W        W38318  10.255  14.673  14.438 -0.1241  0.2149 -0.4928
22058W        W38319   3.294   7.197  11.942  0.1372 -0.0803  0.1059
22059W        W38320   0.873  10.171  15.195  0.0272 -0.0851  0.1764
22060W        W38321  15.094   2.712  12.664 -0.3041  0.1139  0.0111
22061W        W38322  12.906   2.120   2.485  0.5512  0.0217  0.1235
22062W        W38323  14.762  17.593   2.033  0.0472  0.0359  0.0703
22063W        W38324  14.408  15.736  13.019  0.2972 -0.2042 -0.4100
22064W        W38325  16.786   3.756   2.958  0.0710 -0.1394 -0.1001
22065W        W38326  11.712   7.062   4.844  0.0919  0.3200  0.0872
22066W        W38327   9.204   2.332  10.657 -0.3231 -0.2005  0.2677
22067W        W38328   7.726   8.164   1.627  0.2583 -0.0970 -0.0838
22068W        W38329   1.926   5.010  12.243 -0.0060  0.1803  0.2391
22069W        W38330  17.792   3.702  14.303 -0.2676 -0.0254  0.1494
22070W        W38331  14.393   0.070  12.315  0.3784  0.0436 -0.0872
22071W        W38332   4.023  17.102   1.298  0.0883  0.0061  0.2663
22072W        W38333   4.692   6.842  12.113 -0.1211  0.1836  0.0298
22073W        W38334   0.011   6.821  14.180 -0.1778  0.0376  0.1070
22074W        W38335   0.236   2.860  16.914  0.5014  0.0504 -0.2900
22075W        W38336   9.201   5.741   3.730 -0.1569 -0.0688  0.2127
22076W        W38337   6.616   8.945   4.097 -0.0900  0.0794 -0.2080
22077W        W38338   2.212   5.842   5.475 -0.3055  0.0957  0.1634
22078W        W38339   8.657  11.026  13.373  0.2192 -0.3497 -0.2187
22079W        W38340  12.499   4.256  13.311 -0.0748 -0.0200  0.2920
22080W        W38341   5.887   3.650   3.974  0.1755 -0.2558  0.4245
22081W        W38342  10.709   4.629   2.435 -0.0828 -0.1541  0.1942
22082W        W38343  11.794  12.479   4.377 -0.2076  0.2282  0.2744
22083W        W38344  17.318  12.063   3.948 -0.1128 -0.1242  0.3346
22084W        W38345  14.707   8.083   0.276 -0.0756 -0.0218  0.1369
22085W        W38346   2.390  15.991  15.593  0.0662  0.1710  0.0425
22086W        W38347   9.963   7.218   3.518  0.1263  0.0729  0.3139
22087W        W38348   7.583   9.165  14.849 -0.2948  0.0961 -0.0181
22088W        W38349  11.379  13.484   3.267  0.1702  0.1570  0.2932
22089W        W38350  15.062   1.222  15.284  0.0831  0.0250 -0.3222
22090W        W38351   4.937  14.248  12.404 -0.0831  0.3818  0.1172
22091W        W38352   1.252  15.328   2.303  0.0314  0.2502  0.1750
22092W        W38353   4.157   1.294   3.266 -0.0774 -0.1076 -0.1409
22093W        W38354  13.919   0.473  13.067 -0.0565  0.2349 -0.2256
22094W        W38355  16.558   6.812  15.762 -0.0756 -0.0291  0.0875
22095W        W38356  12.306   6.515  14.678  0.0524  0.0253 -0.4112
22096W        W38357  16.782  17.834   0.952 -0.2447 -0.0179 -0.0593
22097W        W38358  13.531   7.142   0.822 -0.0511  0.1272  0.3179
22098W        W38359   9.868  16.888  12.813  0.1622 -0.0026  0.2111
22099W        W38360   8.606   1.711   1.061  0.2420  0.0870 -0.0285
22100W        W38361  17.194  12.654  14.238  0.2849 -0.2695 -0.0911
22101W        W38362  10.681  11.334  16.629 -0.0120  0.0470 -0.3530
22102W        W38363   8.701   6.878   3.418 -0.0815  0.0607  0.3147
22103W        W38364   8.363  16.453   4.124 -0.2293  0.1709 -0.2236
22104W        W38365   7.199   2.476   5.578 -0.3372  0.3484 -0.2822
22105W        W38366   2.943  14.323  12.549 -0.2826 -0.1595 -0.0484
22106W        W38367  13.847  16.230   4.109  0.1619  0.0825  0.3288
22107W        W38368  12.219   1.547  13.824 -0.1414  0.0778  0.0222
22108W        W38369   5.168   5.331  12.921  0.2518  0.0502  0.0037
22109W        W38370   2.175  16.381  16.794 -0.2728 -0.0554  0.0048
22110W        W38371   4.190   8.480  15.011  0.3899 -0.0761  0.0240
22111W        W38372  12.419   4.082   1.550 -0.0248 -0.2393  0.0694
22112W        W38373  10.941  11.654   4.582 -0.3190 -0.0558  0.0625
22113W        W38374  17.108   2.094   1.590 -0.0467 -0.2149  0.0208
22114W        W38375   2.293   1.423   1.127  0.0646  0.0840 -0.1272
22115W        W38376   3.194   7.037  16.263 -0.0531 -0.2379  0.3282
22116W        W38377   9.589  11.045   2.652 -0.1801  0.0229  0.0504
22117W        W38378  16.887   6.702  14.275 -0.0076  0.0087  0.0419
22118W        W38379  11.030   9.143  15.329  0.1035  0.0442 -0.1160
22119W        W38380   1.965   9.879  11.547 -0.0428 -0.0209  0.2908
22120W        W38381   9.187  16.121   1.207  0.0538  0.0669  0.1681
22121W        W38382  11.571   9.070  13.264 -0.1456  0.1616 -0.0384
22122W        W38383   6.433   6.200  14.265 -0.0816 -0.0331 -0.0447
22123W        W38384  11.057   8.737  15.057 -0.3022 -0.0591 -0.1860
22124W        W38385   3.248   1.575   2.738 -0.1251  0.3709  0.1440
22125W        W38386   9.175   2.842  11.891 -0.1102  0.0535  0.0676
22126W        W38387  16.380   5.304   3.498 -0.3247  0.2425  0.1849
22127W        W38388   4.735  10.899   0.408 -0.1072 -0.1152 -0.0128
22128W        W38389  14.724  16.038  13.244 -0.0670  0.1082 -0.2702
22129W        W38390   0.896  13.326   3.384 -0.3027 -0.0244 -0.2769
22130W        W38391   7.892  15.391   0.996  0.0838  0.0029 -0.1397
22131W        W38392   9.297  15.856   0.731  0.1064 -0.2484 -0.0363
22132W        W38393   7.271  12.516   2.320 -0.0883 -0.1115 -0.1708
22133W        W38394  16.608  12.170  14.127  0.1864 -0.1218 -0.2177
22134W        W38395   6.319   6.677  14.520  0.2638  0.2244 -0.1470
22135W        W38396  11.053  14.276   2.834  0.1137  0.0547  0.0275
22136W        W38397   5.569   6.525   1.485  0.0645 -0.1677  0.1755
22137W        W38398   1.263  10.005   2.426 -0.0680 -0.1185 -0.1435
22138W        W38399  17.707   5.887  11.697  0.2681  0.0264  0.3508
22139W        W38400   0.025   6.304   4.053  0.3991  0.2887  0.0598
22140W        W38401  16.340   3.534  13.486  0.1092  0.0567 -0.1386
22141W        W38402  14.602  12.072   1.162 -0.2606 -0.0048  0.3130
22142W        W38403  13.681  14.334   2.827  0.1404 -0.1571  0.1049
22143W        W38404  12.337  17.740  13.726  0.5800  0.1255 -0.2655
22144W        W38405   0.549   4.674  14.863  0.0522  0.2874  0.2850
22145W        W38406  15.041   8.455   1.247 -0.0189 -0.2427  0.1889
22146W        W38407   8.080  14.751  12.375 -0.1871  0.2002  0.1765
22147W        W38408   8.321  12.548  16.243 -0.0546 -0.0028  0.0243
22148W        W38409   1.376   7.049   1.432 -0.1963 -0.2193  0.1131
22149W        W38410  10.273  11.049   1.428  0.0784  0.0496 -0.0455
22150W        W38411   2.967  16.117  12.529  0.0638  0.1553 -0.1011
22151W        W38412  15.184   4.935  15.459 -0.2030  0.2593 -0.0458
22152W        W38413  10.030  14.807  12.410  0.2300  0.2120 -0.0407
22153W        W38414   4.494  12.912  11.729  0.0419  0.1047  0.0801
22154W        W38415  11.578  17.282   3.077  0.1236  0.1922  0.3576
22155W        W38416   3.071   4.815   4.479 -0.0717 -0.2619 -0.0231
22156W        W38417  16.513   8.696   0.670 -0.0335  0.0960 -0.0314
22157W        W38418  14.260   7.789  14.070  0.0614  0.1518  0.3539
22158W        W38419   2.282  14.657   4.117  0.0474 -0.2822  0.0311
22159W        W38420   9.625  12.537  11.138  0.2586  0.0755  0.1724
22160W        W38421  17.113   2.732   5.082 -0.3137 -0.0950  0.3411
22161W        W38422   0.573   4.391  15.818  0.0271  0.0356 -0.0381
22162W        W38423  15.634   3.552  12.132  0.1028 -0.4080 -0.1425
22163W        W38424   0.362   6.451  14.224  0.1458  0.1351 -0.0626
22164W        W38425   5.581   1.790  14.017 -0.1065  0.0566  0.0383
22165W        W38426   2.555   8.365  16.852  0.1012  0.0059 -0.0697
22166W        W38427  12.889   9.770   4.803  0.0124  0.1940 -0.3015
22167W        W38428   7.047  16.954  15.863 -0.1189 -0.0521 -0.1125
22168W        W38429   6.928   9.798  14.901 -0.1750  0.0190  0.0906
22169W        W38430  15.787  14.955   0.514 -0.2694  0.0712 -0.0283
22170W        W38431  11.009   1.746   4.905 -0.1980 -0.0362 -0.1916
22171W        W38432  14.528  13.457  12.670  0.0142  0.2727  0.0254
22172W        W38433   6.037   0.556  13.943 -0.1190 -0.1365  0.1877
22173W        W38434   4.146   2.410   3.274 -0.0294  0.2251 -0.1050
22174W        W38435   0.557   9.617  14.541 -0.1254  0.0873  0.4443
22175W        W38436   0.282   9.466  14.942  0.3346 -0.0460  0.0688
22176W        W38437   6.131   6.494   0.194  0.1381 -0.0186  0.2345
22177W        W38438  17.186   4.549  13.407  0.4503 -0.1132 -0.3858
22178W        W38439   6.580   5.218  15.343 -0.2265  0.2130 -0.1056
22179W        W38440   3.688   2.116   5.553  0.0526 -0.2105 -0.0004
22180W        W38441   3.802   0.105  12.707 -0.0265  0.0298 -0.1409
22181W        W38442  15.601   2.830   5.336  0.1967 -0.3199 -0.0552
22182W        W38443   2.959  10.363   2.589  0.4770 -0.0613  0.0405
22183W        W38444  12.218   0.706  16.380  0.0146 -0.1403 -0.0727
22184W        W38445   7.718   2.340   3.504 -0.1700 -0.1754  0.0471
22185W        W38446  17.219   6.193  15.368 -0.0674  0.1650 -0.0289
22186W        W38447   4.119   0.955   1.058 -0.3603  0.0390 -0.2585
22187W        W38448  17.239  13.065   0.682  0.2030  0.2256  0.0857
22188W        W38449   2.627   5.216  13.607 -0.0402  0.0126  0.2495
22189W        W38450   3.218   2.211  16.552 -0.3059 -0.0055 -0.0973
22190W        W38451   4.116   7.920  16.790  0.2036  0.2321 -0.2160
22191W        W38452   0.997  17.302   6.284  0.0543 -0.1568 -0.0073
22192W        W38453   4.413  10.312  15.145  0.2806 -0.1664  0.0475
22193W        W38454  11.539  12.121  14.235 -0.1346  0.0754  0.2800
22194W        W38455  10.215  12.948  15.833  0.1962  0.2370  0.1010
22195W        W38456   8.556  10.932   3.544  0.2822  0.0467 -0.0414
22196W        W38457  13.670   8.772   5.123  0.0232 -0.2086  0.1766
22197W        W38458   1.781  12.097   4.306 -0.3094  0.1329 -0.0876
22198W        W38459  16.416   1.238  15.222 -0.1534  0.0223 -0.1613
22199W        W38460  16.252   5.484  12.844 -0.0248  0.0789 -0.0243
22200W        W38461  14.868   6.925   3.633 -0.0148 -0.0836  0.0270
22201W        W38462  17.842   5.891   6.066 -0.1512  0.1556 -0.0382
22202W        W38463   1.631  17.432  14.540 -0.1416 -0.0755 -0.1618
22203W        W38464  11.276  16.428  15.465  0.2007 -0.1193  0.2288
22204W        W38465   1.620   6.459  12.010  0.0081  0.1217 -0.1986
22205W        W38466  13.082  10.898  12.443  0.1443  0.2753  0.0684
22206W        W38467   5.394  12.580   3.620 -0.0845 -0.1317 -0.0355
22207W        W38468   0.599   1.830   4.909 -0.0099 -0.0513 -0.2262
22208W        W38469  15.211   9.499   2.790 -0.2129 -0.0308 -0.0380
22209W        W38470  11.282  10.720   5.124  0.1754 -0.2088  0.3111
22210W        W38471   4.474   4.340  16.802 -0.0357 -0.0969  0.0934
22211W        W38472  12.221  14.867   3.628  0.0988  0.0613  0.0894
22212W        W38473   2.545   7.799  16.665 -0.2423 -0.0139 -0.1219
22213W        W38474   8.789  11.999  16.900 -0.0384 -0.0382 -0.2776
22214W        W38475   9.955  16.508  15.518  0.1392 -0.2583 -0.3052
22215W        W38476   8.025  11.164   0.388  0.2006 -0.1637  0.1144
22216W        W38477  15.874  17.847   5.421 -0.0909 -0.0083 -0.0360
22217W        W38478  12.409  14.432   2.625  0.2158 -0.1549  0.0012
22218W        W38479   6.461  17.844  13.862 -0.2574 -0.0569  0.1149
22219W        W38480  13.513   6.595  14.241  0.2670  0.2523  0.0626
22220W        W38481  16.471   1.044  13.494  0.0215 -0.4201  0.0607
22221W        W38482  14.156   9.695  11.126  0.1786 -0.4390  0.4194
22222W        W38483  17.660  11.412  13.775  0.0374 -0.0004  0.1060
22223W        W38484  15.896  16.192  14.514 -0.2288 -0.0684 -0.1967
22224W        W38485   2.241   8.945   1.218  0.1585 -0.1249 -0.3161
22225W        W38486   3.523  12.718  15.222  0.1838  0.0585  0.2695
22226W        W38487  13.662  14.991   6.108 -0.0082  0.0158  0.2258
22227W        W38488   0.989  15.444  13.623 -0.3253  0.1510  0.0726
22228W        W38489  10.963  17.747  14.055  0.2672  0.0105 -0.0587
22229W        W38490   8.917   1.236  14.310 -0.1529  0.2146 -0.0164
22230W        W38491  12.903  10.085  16.338 -0.2576  0.0044 -0.2336
22231W        W38492   2.685  15.696  15.283 -0.0338 -0.0333 -0.0960
22232W        W38493   2.877  15.485   0.616 -0.0191  0.0726  0.0172
22233W        W38494  15.647   3.936   0.095 -0.2294 -0.1490  0.2836
22234W        W38495  16.672   3.006  16.213  0.0486  0.0531 -0.0861
22235W        W38496   1.098  13.442  15.749  0.0010  0.0263 -0.2165
22236W        W38497  16.809   2.990  12.244  0.1521  0.1573  0.2288
22237W        W38498   5.734  11.883  14.855  0.0161 -0.0625  0.0839
22238W        W38499   0.140   2.864   5.706 -0.2720 -0.1652 -0.2599
22239W        W38500  16.282   3.096  13.952  0.2325  0.2349  0.1389
22240W        W38501   2.827  13.111  15.338  0.1628  0.0943  0.1054
22241W        W38502   1.546   5.588   5.318  0.0661 -0.0505  0.2337
22242W        W38503   4.416  16.566   5.519 -0.0989  0.0173 -0.0102
22243W        W38504  17.032  17.230  15.651  0.0882  0.0404 -0.1960
22244W        W38505  10.786  13.325   0.528  0.0988  0.0907  0.3283
22245W        W38506   8.711   7.939   2.566 -0.1928 -0.3223 -0.2935
22246W        W38507   5.870   1.753   3.072  0.0934 -0.1301  0.1308
22247W        W38508   5.261  10.140   1.812  0.4230  0.2817  0.0848
22248W        W38509   8.668   3.977   3.607  0.2645 -0.2109  0.0466
22249W        W38510   6.256  13.055   2.561 -0.1111  0.2100  0.0232
22250W        W38511  16.996   2.849  16.936  0.2593 -0.2857 -0.0025
22251W        W38512   2.923  12.735  12.344  0.0387  0.1673 -0.0293
22252W        W38513   3.128  16.487  13.567  0.0783  0.1506 -0.0093
22253W        W38514   4.069   5.125   0.791 -0.1653  0.2370 -0.3885
22254W        W38515  15.061   0.594   5.057  0.0496 -0.0983  0.2345
22255W        W38516   9.626   3.083  16.655 -0.0041 -0.0461 -0.1869
22256W        W38517  11.641   2.869  12.522  0.0219 -0.1085  0.1004
22257W        W38518   6.859  16.466   3.229 -0.0015 -0.2003 -0.1847
22258W        W38519  16.863   5.386  14.826 -0.2594 -0.1326 -0.0928
22259W        W38520   3.140   3.705   2.593 -0.0289 -0.0813  0.0865
22260W        W38521   7.243  14.107   2.984 -0.2960  0.2371 -0.1716
22261W        W38522  11.751  15.646   2.660  0.1910 -0.4289  0.0236
22262W        W38523   5.463  12.751  11.843  0.0156  0.4327  0.2477
22263W        W38524   3.285  10.219  11.944 -0.1606  0.1501 -0.3117
22264W        W38525   7.238  16.054  15.908  0.3948 -0.2257 -0.3433
22265W        W38526   2.989  16.123   2.523 -0.0796  0.0119  0.3338
22266W        W38527   7.600  10.968   0.708 -0.1555 -0.0893  0.0024
22267W        W38528   1.208  13.058  13.059  0.0186 -0.3876  0.0014
22268W        W38529   4.022   2.334  13.100 -0.0445 -0.2301 -0.0122
22269W        W38530  14.822   5.573   6.238  0.1828 -0.2743 -0.1360
22270W        W38531   4.459  12.946  15.718 -0.0837  0.1375 -0.1825
22271W        W38532  11.168   8.264  12.719  0.0857 -0.1035  0.1092
22272W        W38533  10.184  15.372   2.877 -0.0651 -0.0964  0.0846
22273W        W38534   3.231   8.166  16.243 -0.0982  0.1613 -0.1446
22274W        W38535   1.057   2.041  13.436  0.0143 -0.0162 -0.1587
22275W        W38536   2.425   3.567   5.201 -0.4507  0.0321 -0.0177
22276W        W38537  13.492   7.487   0.076 -0.2151  0.3906 -0.2302
22277W        W38538  14.903  15.990   1.684  0.3084 -0.2999 -0.3118
22278W        W38539  14.238  15.422   6.459 -0.1060  0.1083 -0.0216
22279W        W38540  10.277  12.178  15.562 -0.2063  0.0749  0.1447
22280W        W38541   5.638   7.627   5.191  0.1674 -0.1853  0.1189
22281W        W38542  11.253   9.732  13.787 -0.1625  0.1219  0.1194
22282W        W38543   1.468   0.747  11.983  0.0066  0.3152  0.0661
22283W        W38544   8.588  13.584  15.491 -0.1479  0.1114 -0.3948
22284W        W38545  16.682   6.379  16.567 -0.0005  0.1133  0.5033
22285W        W38546   8.085  17.692  13.206 -0.0889  0.0323  0.2286
22286W        W38547   1.491  10.516  11.829 -0.3245  0.1722 -0.1092
22287W        W38548   2.854  10.429   1.285 -0.1627 -0.2054  0.3253
22288W        W38549   7.348  15.576  16.353 -0.0664  0.0667  0.4592
22289W        W38550   9.733  11.632  11.338 -0.1923 -0.1832  0.0824
22290W        W38551   2.174   9.933  12.078 -0.0170  0.1153 -0.1664
22291W        W38552  16.849  14.994   5.690  0.0012  0.1857  0.2191
22292W        W38553  15.991   5.375   1.788 -0.2671  0.2178  0.0014
22293W        W38554  16.147  11.100   5.666 -0.0050  0.1522  0.0874
22294W        W38555  14.973  10.632   4.581  0.0642  0.2610 -0.3591
22295W        W38556   5.790   9.969   1.467  0.1141  0.2110  0.0763
22296W        W38557   1.495   1.425   1.247 -0.1167 -0.0458  0.0578
22297W        W38558   2.796   5.664   3.986 -0.2727 -0.1760  0.0418
22298W        W38559   7.162   4.380  11.992 -0.1451 -0.0172 -0.5369
22299W        W38560   6.729   5.108   2.130  0.1604  0.0206 -0.3368
22300W        W38561   1.647   7.687  16.265 -0.0284  0.0139  0.0015
22301W        W38562   5.602  10.687   4.929  0.0209  0.0267  0.0869
22302W        W38563  13.726  12.000   3.865 -0.3486 -0.2828 -0.0513
22303W        W38564   5.691   7.000   5.801  0.1971 -0.5033 -0.1539
22304W        W38565   6.997  13.357  15.953 -0.0421  0.0654 -0.0571
22305W        W38566  15.953   7.914   0.094  0.3214 -0.3068  0.0331
22306W        W38567   4.997   9.045   3.420 -0.1414 -0.0012 -0.0221
22307W        W38568   4.557  13.381   2.911  0.2828  0.0052 -0.2160
22308W        W38569  16.155  16.293  13.026 -0.1890 -0.1480  0.0890
22309W        W38570  13.705  10.327   1.251 -0.0447  0.2117  0.0894
22310W        W38571   6.887   1.604  12.547 -0.1524  0.0940 -0.0708
22311W        W38572  16.579  11.334  14.811  0.0195 -0.2026 -0.0089
22312W        W38573   9.483  17.808  16.587 -0.3781 -0.0762  0.1166
22313W        W38574   6.333  14.362   3.089 -0.0381 -0.2798 -0.0214
22314W        W38575  17.301   6.790   3.377 -0.0047 -0.2321 -0.1177
22315W        W38576  15.797   2.063   0.390 -0.1072  0.4827  0.0600
22316W        W38577   9.361  14.564  11.637  0.2240 -0.0219  0.0205
22317W        W38578  14.447  11.630  15.336 -0.2713 -0.3525 -0.2382
22318W        W38579   2.873   3.805   5.910  0.0444 -0.1625  0.0495
22319W        W38580   6.414   0.788  14.531  0.0551  0.1865  0.0708
22320W        W38581  17.651   3.146  15.570  0.2741  0.1447  0.1808
22321W        W38582   3.062  14.980  16.877 -0.4328  0.0734  0.1712
22322W        W38583   2.580  10.262  14.496  0.0757 -0.2544  0.3110
22323W        W38584   3.003   9.426   1.630  0.1012  0.2384  0.2085
22324W        W38585   4.483   5.363  12.520 -0.1779 -0.2512 -0.0139
22325W        W38586   7.330   6.538  14.102 -0.0709 -0.0197  0.2989
22326W        W38587  11.252  14.801   1.543  0.2724 -0.0041  0.3958
22327W        W38588   7.058   3.105   3.434  0.0450 -0.1447 -0.0760
22328W        W38589  13.897  10.957  16.150 -0.0066  0.3994  0.0076
22329W        W38590   1.649  12.413   3.750 -0.2479  0.2284 -0.1432
22330W        W38591   0.649  13.387   0.735 -0.1155  0.1646 -0.0053
22331W        W38592   2.786  17.001   2.111  0.4140 -0.1606  0.0281
22332W        W38593   5.584  12.008  13.816 -0.0879 -0.0925  0.0373
22333W        W38594   1.917  13.852   3.200 -0.2302 -0.2226  0.0614
22334W        W38595  14.774   7.075  15.209 -0.1195 -0.1955  0.3479
22335W        W38596   4.044   1.560   0.103 -0.0039 -0.1678 -0.0547
22336W        W38597   8.603   3.752  15.719  0.0761 -0.1613 -0.1044
22337W        W38598  16.618  13.528   2.858  0.2589  0.0534 -0.0061
22338W        W38599  13.362  10.926  13.696  0.0756  0.0291 -0.2423
22339W        W38600  13.554  12.145  15.989  0.0781 -0.1335 -0.0687
22340W        W38601   9.479   8.085   5.060  0.3051  0.0180  0.2552
22341W        W38602  11.875   3.373   2.837  0.0643  0.3056 -0.1337
22342W        W38603   3.582   7.400  14.624  0.0270  0.1224  0.0291
22343W        W38604   8.682   3.270  16.766 -0.0024  0.2061  0.2793
22344W        W38605  14.044   6.880  14.052 -0.0659  0.1372  0.2067
22345W        W38606  11.356   3.095   4.152  0.0488 -0.3785 -0.2184
22346W        W38607  17.373   3.370  16.006  0.2212  0.1884  0.0427
22347W        W38608  14.225   4.463  13.028 -0.0732 -0.2167  0.3405
22348W        W38609   4.931   4.925   4.992  0.2171  0.2474 -0.2703
22349W        W38610   2.908  12.890   2.075 -0.0052  0.1544  0.1013
22350W        W38611  16.041   3.313   2.483  0.0421 -0.0224  0.0004
22351W        W38612  14.625   1.489  15.151  0.0746 -0.0135 -0.0018
22352W        W38613  10.038   0.234   1.583 -0.1091 -0.1850  0.0703
22353W        W38614  14.762   9.508  14.898  0.1551 -0.1751  0.1017
22354W        W38615  15.761   2.813  13.301 -0.1283 -0.2247 -0.0738
22355W        W38616   2.707   3.970  13.198  0.0958 -0.2982  0.1332
22356W        W38617  14.973  10.574  12.692 -0.0845 -0.0183 -0.0233
22357W        W38618   9.015   9.640   4.187 -0.0008  0.0720  0.0336
22358W        W38619   3.921   0.488   1.095 -0.1694 -0.1495 -0.0217
22359W        W38620   5.611  16.955   5.032  0.0918  0.2229  0.0392
22360W        W38621   0.889   4.186  12.313 -0.0602 -0.0210 -0.3684
22361W        W38622   5.980  10.451   1.180  0.1050  0.2025  0.4103
22362W        W38623  13.325   1.750   4.296 -0.2340 -0.1108  0.1190
22363W        W38624   7.122  17.517   1.182  0.4218  0.0973 -0.2084
22364W        W38625   1.325  12.579   3.412  0.0723  0.3363 -0.0658
22365W        W38626  15.506  13.164   0.633  0.0207 -0.4087 -0.2800
22366W        W38627   4.706  17.223  13.186  0.1261 -0.0450 -0.1742
22367W        W38628   0.017   3.037   4.495  0.1417 -0.2329 -0.2887
22368W        W38629  15.104   8.887   4.310  0.0671  0.1294 -0.0826
22369W        W38630   1.080   5.765  14.268  0.2529  0.0085 -0.1227
22370W        W38631  12.531  17.333   2.245  0.1208 -0.3006  0.1592
22371W        W38632   1.420   5.098   5.310  0.0535  0.3252  0.0369
22372W        W38633   1.818   7.301   4.286  0.1276 -0.2924 -0.2329
22373W        W38634   9.609  15.460  14.815  0.1109  0.4394 -0.0984
22374W        W38635  12.478   4.222  15.822  0.2792  0.2413 -0.0387
22375W        W38636  16.946  13.496   1.916  0.2272 -0.0015 -0.1238
22376W        W38637  13.291   4.258  16.459 -0.1268 -0.2333 -0.2575
22377W        W38638   3.325   2.077  12.228  0.1921  0.0890  0.0477
22378W        W38639   3.130   9.384   0.291 -0.1821  0.0139  0.1843
22379W        W38640   0.729   4.553   2.058  0.3325 -0.2130 -0.0894
22380W        W38641   7.143  10.737   3.062  0.0926 -0.0454  0.1462
22381W        W38642   7.442   2.310   5.006 -0.1468 -0.1737  0.0314
22382W        W38643  17.144   9.246   2.005 -0.1505  0.0699 -0.1316
22383W        W38644   3.201  17.321   2.195 -0.2790  0.1096 -0.0718
22384W        W38645   0.610   0.557  14.583  0.0162  0.0049  0.0468
22385W        W38646  16.352  14.538   1.967  0.0480 -0.1110 -0.0465
22386W        W38647  15.229  16.589   1.604  0.1873  0.2060 -0.4673
22387W        W38648  13.386   1.981  15.501 -0.2386  0.1882 -0.0941
22388W        W38649   5.517   0.623   2.919  0.0567 -0.0534  0.0481
22389W        W38650  11.045  17.520   5.706  0.0827 -0.1517  0.0819
22390W        W38651  16.572   2.150   0.251 -0.1520  0.0868 -0.1301
22391W        W38652  13.716   0.219   1.049  0.0152  0.0436  0.0292
22392W        W38653  11.231  15.326   1.415  0.3285  0.1747  0.1681
22393W        W38654  17.390  14.801  14.331  0.2005 -0.2165  0.0488
22394W        W38655   2.371  11.447  13.858 -0.0204 -0.1936 -0.0763
22395W        W38656   3.926  10.398   1.960 -0.1329 -0.0130 -0.0265
22396W        W38657  11.182   2.873  13.569  0.1378  0.3170 -0.0157
22397W        W38658  12.998  11.536  12.523 -0.0913  0.0222 -0.1740
22398W        W38659   1.682  16.016   3.516  0.0796 -0.1243 -0.2822
22399W        W38660   4.014   9.684   2.704  0.1134 -0.0522  0.0950
22400W        W38661   8.942   0.628  16.017 -0.2648 -0.0819 -0.1976
22401W        W38662  12.528  11.056  13.829 -0.0624 -0.0495 -0.0865
22402W        W38663  16.953   3.082   2.122  0.0255 -0.1086 -0.0160
22403W        W38664  12.703  11.908   2.791  0.1224 -0.1474 -0.0041
22404W        W38665   8.894   0.361   2.291 -0.2252  0.0473  0.6436
22405W        W38666  15.674   7.484   5.191  0.1040 -0.0118  0.1378
22406W        W38667   8.164   1.063  12.279  0.3365 -0.0342  0.2235
22407W        W38668  15.966   2.668  11.986 -0.2750 -0.0031 -0.0928
22408W        W38669  10.602   8.832  15.923  0.0012  0.3677 -0.0268
22409W        W38670  10.471   0.011  15.469  0.2126  0.0458  0.1779
22410W        W38671  16.674   6.104   1.396 -0.1716  0.1473 -0.0429
22411W        W38672   3.867   4.687  16.555 -0.1538  0.2232  0.2657
22412W        W38673  11.956  11.081   0.495 -0.1104  0.3646 -0.1406
22413W        W38674   9.310   4.437   4.087 -0.2338 -0.3727  0.0821
22414W        W38675  16.968  10.579   0.689 -0.1125 -0.0910  0.0011
22415W        W38676   6.235   9.155   3.141 -0.2409 -0.1396  0.1169
22416W        W38677   5.368   9.640   4.120  0.1468  0.0108 -0.2567
22417W        W38678   7.245   4.342  16.693  0.1035 -0.2255 -0.3257
22418W        W38679  13.314  13.197  13.053 -0.0901 -0.1389  0.0959
22419W        W38680   9.667   9.382  13.109 -0.2004  0.1164 -0.0035
22420W        W38681   6.931  15.299  16.733 -0.0268  0.0284  0.0880
22421W        W38682  15.257   5.215  16.773  0.0533  0.1423 -0.0793
22422W        W38683  16.440   3.430   2.767  0.2658 -0.1022  0.1189
22423W        W38684  15.381  14.941   4.477 -0.0014 -0.0172  0.0763
22424W        W38685   8.559   7.103  14.975  0.1802  0.0518 -0.3560
22425W        W38686  11.620  11.115   5.218  0.2577 -0.2739  0.1366
22426W        W38687   0.008  13.836  13.428 -0.0262  0.0455 -0.3208
22427W        W38688   7.592   8.796  14.468 -0.1378  0.0292 -0.1168
22428W        W38689   0.249   7.948  13.170  0.3475 -0.0977 -0.1973
22429W        W38690  10.980  15.653   2.634  0.2801  0.0575  0.2651
22430W        W38691  17.695  14.188  11.852 -0.0374 -0.1945  0.3530
22431W        W38692  13.242  13.291  11.684 -0.1199 -0.5112 -0.0450
22432W        W38693   9.058   0.334   1.102  0.0387 -0.1507  0.1029
22433W        W38694   5.246   1.049   3.039  0.0336 -0.0639 -0.1124
22434W        W38695   7.720   2.476   5.404  0.2609 -0.0793  0.0820
22435W        W38696   1.130  14.661  15.087 -0.2365 -0.0250 -0.0527
22436W        W38697  10.366   7.935  13.804  0.1110  0.0456  0.0573
22437W        W38698   7.705  15.040   0.025 -0.1116  0.2673  0.1065
22438W        W38699  14.216   5.142  14.862 -0.0004  0.4719 -0.1090
22439W        W38700   6.353   9.972  12.482 -0.0996  0.0931 -0.2011
22440W        W38701   1.450   7.571   2.187  0.1927  0.1362  0.0437
22441W        W38702   5.938  14.438  12.948 -0.2248  0.1178  0.2401
22442W        W38703   3.698  16.079  15.987  0.0761 -0.1194  0.1890
22443W        W38704  12.856   6.461  12.761  0.1394  0.0397  0.1449
22444W        W38705   7.747  12.868   3.029 -0.0751 -0.0390 -0.0105
22445W        W38706   8.508  10.285  15.343  0.2201  0.1864 -0.0038
22446W        W38707   0.169  15.214   3.085 -0.2213 -0.1048 -0.0321
22447W        W38708   2.269  12.190   2.050 -0.2483 -0.2421 -0.1503
22448W        W38709  16.175   7.977  16.053 -0.1274  0.2818  0.0417
22449W        W38710   3.671  15.460  12.485 -0.2183 -0.3851 -0.0238
22450W        W38711  10.057   0.580  14.799  0.2622  0.3329  0.2189
22451W        W38712  15.403  10.003  15.100 -0.1108 -0.2440  0.0339
22452W        W38713   2.292   4.684   4.805  0.0202 -0.0174  0.0044
22453W        W38714  16.236   3.906   6.280 -0.2001 -0.0313  0.0561
22454W        W38715   6.414  11.920   4.082  0.1371  0.0616  0.0320
22455W        W38716  17.088  11.351   4.504 -0.1211  0.1907  0.0106
22456W        W38717   0.427  13.522   5.008 -0.0593 -0.6507  0.1133
22457W        W38718   5.126   5.076  14.932 -0.0973  0.1309  0.2434
22458W        W38719  16.400   7.917  11.635 -0.0118 -0.2767 -0.0723
22459W        W38720   7.999  15.007  16.495  0.1465  0.0008  0.1554
22460W        W38721   1.409   3.624  15.051  0.1230 -0.0765 -0.3578
22461W        W38722  15.702   5.644   2.510  0.0607 -0.1509  0.1944
22462W        W38723  15.893   6.115  16.114  0.0540  0.0126 -0.1360
22463W        W38724   7.810  10.560   4.072  0.1843  0.1286 -0.0642
22464W        W38725   4.795   6.319  14.937  0.1159  0.0881 -0.2877
22465W        W38726   7.396   3.423  16.206 -0.1000 -0.1657 -0.2192
22466W        W38727  13.445  13.224  15.617  0.1547  0.1547 -0.2066
22467W        W38728  10.245  15.295   5.625  0.3517  0.2111  0.1011
22468W        W38729   7.657  10.634  15.216 -0.1452 -0.1656 -0.2614
22469W        W38730   5.872   3.336   3.522 -0.0123 -0.0987  0.0458
22470W        W38731   5.644  12.547   1.156 -0.0400 -0.0626 -0.1783
22471W        W38732  12.945   3.472  12.029  0.1886  0.1130 -0.2698
22472W        W38733  14.015  11.277  12.871 -0.0099 -0.0065  0.0697
22473W        W38734  17.447  14.152  12.435  0.1441  0.0809  0.1201
22474W        W38735  14.973   8.570  15.870  0.1006  0.0509 -0.2249
22475W        W38736   9.169   5.969   0.206  0.2757 -0.3184  0.0680
22476W        W38737   3.100   6.969  15.730  0.0453 -0.0726  0.1111
22477W        W38738  14.779   1.393   6.059 -0.1445  0.2435 -0.1576
22478W        W38739   9.644   9.198   0.864 -0.2933  0.3127  0.0548
22479W        W38740   5.246   5.493  15.251 -0.2963 -0.1697  0.0142
22480W        W38741   2.473  12.928   5.363 -0.3427 -0.1928  0.0338
22481W        W38742   6.553  10.141   4.733 -0.0415  0.0187 -0.0054
22482W        W38743  10.461   2.505  15.816 -0.0186  0.0736 -0.1641
22483W        W38744  15.761   6.391   0.378 -0.4667 -0.3555 -0.1813
22484W        W38745   5.221  13.607  16.417  0.0757  0.0432 -0.1969
22485W        W38746  16.089  13.858   5.741  0.0797 -0.0979  0.2275
22486W        W38747  16.244  15.028  15.459 -0.1256 -0.0212 -0.1062
22487W        W38748   5.252   6.585  13.568  0.0649  0.0316  0.3231
22488W        W38749   9.385   3.078   1.829  0.0896 -0.1007  0.3032
22489W        W38750   3.089  14.275   6.132  0.0273 -0.1609  0.3148
22490W        W38751  15.125   4.638   1.374  0.1728 -0.1188  0.0957
22491W        W38752   6.966   2.612  13.780  0.0142  0.1376  0.3351
22492W        W38753  10.931   0.965   5.608 -0.1954 -0.0920  0.1723
22493W        W38754  11.495  11.887   3.659  0.1900  0.2047  0.0112
22494W        W38755  13.288  16.135   3.973  0.0328  0.2598  0.2746
22495W        W38756   2.753  13.715  15.192 -0.3770 -0.1086  0.1014
22496W        W38757   8.841  10.617   5.137  0.0695 -0.1484  0.0606
22497W        W38758  15.031   0.682  13.588 -0.1036  0.3030  0.1543
22498W        W38759  16.543  13.157  12.651  0.1161 -0.4120  0.4119
22499W        W38760   3.926   5.250   3.539  0.2285 -0.0968  0.1257
22500W        W38761   1.284  11.016  15.681 -0.2592  0.1724  0.1712
22501W        W38762  11.255   5.177   1.509  0.2461  0.2180  0.2638
22502W        W38763   6.796   2.210   5.491 -0.0885  0.0195 -0.2158
22503W        W38764   1.411   9.172  11.770  0.0174  0.1027 -0.3051
22504W        W38765   3.119   0.475  14.305 -0.2863  0.0068  0.3103
22505W        W38766   4.395   8.916  14.838  0.2947 -0.1967 -0.1027
22506W        W38767   1.599   0.855  12.897  0.0544  0.0558  0.0848
22507W        W38768   5.042   2.054   3.893 -0.1940 -0.0232 -0.2978
22508W        W38769   3.060  11.984  14.716  0.1456  0.1285  0.0691
22509W        W38770  14.445   8.104  15.019 -0.1502  0.0005  0.1431
22510W        W38771   0.164   6.927   2.550 -0.1816 -0.1184  0.1229
22511W        W38772  17.832  10.441   5.510 -0.2254 -0.0769 -0.1111
22512W        W38773  13.025   0.234  12.208  0.1150 -0.0415  0.0792
22513W        W38774   7.546   8.621  13.159  0.2660  0.1354 -0.0247
22514W        W38775   6.190   9.690   0.637  0.0423  0.1897 -0.0885
22515W        W38776  10.998  15.793  12.656 -0.1457 -0.1434 -0.3665
22516W        W38777  12.131   3.355  13.200 -0.1612 -0.2519  0.1119
22517W        W38778   0.304  11.989   2.462 -0.2827 -0.2688  0.2445
22518W        W38779   4.103   1.682   4.584 -0.0851 -0.1442 -0.0438
22519W        W38780   4.642   8.288   4.083  0.0245  0.1071  0.3100
22520W        W38781   3.675   3.031  11.789  0.2479 -0.0742 -0.2134
22521W        W38782  17.484  12.927  12.461  0.0365 -0.1321  0.2510
22522W        W38783  10.723   6.643   1.146  0.3194  0.1928  0.0619
22523W        W38784   7.343   5.267  14.597  0.1374  0.1078  0.2354
22524W        W38785  15.207   5.533  12.023 -0.0407 -0.2025 -0.1856
22525W        W38786   9.075  10.843  14.167 -0.1542  0.2406 -0.0534
22526W        W38787   7.962  17.558   1.804  0.2179  0.0652 -0.0558
22527W        W38788   4.054  15.409   5.249  0.1844  0.3270  0.2757
22528W        W38789  12.935   6.709   6.411  0.0151 -0.0437 -0.2567
22529W        W38790  14.965  17.858  16.968  0.0796 -0.3018 -0.0664
22530W        W38791   2.337   3.022  11.836 -0.3746  0.1026  0.3034
22531W        W38792  17.354   9.733   2.695 -0.1469  0.0766  0.0410
22532W        W38793   8.092  10.883   2.352  0.0575  0.0670 -0.1659
22533W        W38794  16.885  13.051  14.405 -0.0891  0.0731 -0.1233
22534W        W38795   4.947   7.502   1.555 -0.0781  0.0391 -0.0092
22535W        W38796  14.845   2.516  16.289  0.1700 -0.2657 -0.1855
22536W        W38797  14.803   5.429  12.308  0.0600 -0.2539  0.1984
22537W        W38798   1.299   1.915   0.460 -0.4432 -0.0950  0.0249
22538W        W38799  10.503   2.916   2.445  0.1360  0.2613  0.1008
22539W        W38800  15.080   7.512   4.130  0.0191  0.1254 -0.0750
22540W        W38801  13.169   5.119   1.539 -0.0572 -0.3762  0.2331
22541W        W38802   2.375   2.690   2.602  0.1368  0.0841  0.1371
22542W        W38803   5.074  15.184  13.744  0.0710 -0.0253 -0.1916
22543W        W38804   7.403   7.791   5.515  0.5027  0.1987  0.3224
22544W        W38805   5.141   3.087  11.780 -0.0170  0.2352  0.3274
22545W        W38806  12.693  17.618  15.987 -0.3952  0.0431 -0.1879
22546W        W38807  13.431  13.214  14.640  0.2670  0.0692  0.0342
22547W        W38808   9.287  12.652   4.725  0.0227  0.3162 -0.0304
22548W        W38809   3.928   6.870  13.364  0.3383  0.1641 -0.0846
22549W        W38810   5.659   9.379  11.889  0.1245  0.0331 -0.1662
22550W        W38811   5.821  17.685  11.701  0.3081  0.2332  0.1547
22551W        W38812   9.565   9.466  13.864  0.0372 -0.0906 -0.1811
22552W        W38813   4.132   0.391   2.589 -0.1986  0.0038 -0.0960
22553W        W38814   9.109   1.757   6.124  0.0580  0.0044  0.0231
22554W        W38815  14.416  10.381  11.306 -0.1316 -0.1425 -0.1259
22555W        W38816  10.593   2.120   3.676 -0.0491 -0.0547  0.0641
22556W        W38817  14.076   2.737  15.897 -0.2154  0.4048 -0.1503
22557W        W38818   4.578  17.292  14.999  0.0547 -0.0317  0.1385
22558W        W38819   1.589  15.930  12.383 -0.0176  0.0253  0.2993
22559W        W38820  13.071   7.121   4.725 -0.1198  0.0241 -0.2192
22560W        W38821   5.793  16.895  15.661  0.1486 -0.1184 -0.0778
22561W        W38822  15.289  15.406  15.852 -0.0414  0.1415  0.2162
22562W        W38823   7.406  12.818   3.931 -0.1994  0.3616  0.2059
22563W        W38824  16.185   3.051  13.418  0.0993  0.1238 -0.1090
22564W        W38825   1.284  14.140  15.713  0.2422 -0.0302  0.0691
22565W        W38826  15.406  12.676   4.135  0.2568  0.0191  0.0854
22566W        W38827  16.104  14.108   2.319  0.0246  0.0766  0.2299
22567W        W38828  16.938  15.469  13.307  0.0544 -0.1700  0.0205
22568W        W38829  11.193  11.827  15.878  0.0132 -0.0686 -0.2058
22569W        W38830  15.064  15.867   6.330  0.2283  0.0717 -0.2927
22570W        W38831  12.142  10.298  11.753 -0.1799 -0.1347  0.0720
22571W        W38832  17.226   5.839  11.921 -0.0184 -0.0561  0.1899
22572W        W38833  15.946  12.319  13.284  0.0664 -0.1410  0.1302
22573W        W38834   4.021  12.765  11.574 -0.0082  0.1797 -0.1001
22574W        W38835  16.606  14.641  12.587 -0.1117 -0.3321 -0.0600
22575W        W38836  13.136   6.447  13.176  0.3702 -0.0510 -0.0371
22576W        W38837  14.955  11.933  11.904 -0.3515  0.1961  0.1198
22577W        W38838  14.780   1.289  16.877 -0.2534 -0.0983  0.0940
22578W        W38839  17.329   2.838   0.661 -0.0324  0.2946  0.0484
22579W        W38840  15.663   6.328   3.724 -0.1079  0.0165  0.4661
22580W        W38841  14.544   4.144   4.764 -0.0281  0.0155  0.1890
22581W        W38842  16.210   8.647   4.920  0.1566  0.1422  0.0420
22582W        W38843  11.334  11.139   2.399  0.3174 -0.0838 -0.0191
22583W        W38844   8.953   7.751  11.568  0.0873 -0.1206  0.1426
22584W        W38845   8.017  11.729  11.858 -0.4515  0.1299  0.2181
22585W        W38846   1.331  10.604   4.809 -0.4451 -0.2357  0.2793
22586W        W38847   8.132  10.687   5.413  0.0370 -0.3817  0.0862
22587W        W38848  15.109   8.825  13.177 -0.1465 -0.3071  0.2504
22588W        W38849   2.774   6.719   3.853  0.1435 -0.4034  0.2644
22589W        W38850  13.183   6.237  14.302  0.2329  0.2014 -0.0949
22590W        W38851   8.912  10.292   5.507 -0.0605  0.0869  0.0246
22591W        W38852   5.161  12.922  16.902  0.1462 -0.0643  0.3448
22592W        W38853   6.459   7.194   4.334 -0.0714  0.1638 -0.2185
22593W        W38854   7.778  11.353  13.969 -0.2555  0.1127  0.0073
22594W        W38855   2.377  16.798  12.369  0.0386  0.1132 -0.1491
22595W        W38856  12.321  14.176  13.319  0.1375 -0.2971 -0.2787
22596W        W38857  13.535   2.680   0.630  0.0824  0.2480 -0.1361
22597W        W38858   9.762   9.861  13.046  0.0716  0.2432 -0.3694
22598W        W38859  17.552  11.381   5.384 -0.0465 -0.3032 -0.0488
22599W        W38860   9.723  14.075  12.968  0.0046  0.0053  0.0151
22600W        W38861   8.198  16.287  15.732 -0.1409  0.2091  0.2038
22601W        W38862   9.031  15.335  13.145  0.0223  0.1274 -0.0055
22602W        W38863   5.739   0.201  14.870  0.2376 -0.1525  0.0570
22603W        W38864   9.868  12.659  11.991  0.0998 -0.0840 -0.2467
22604W        W38865   7.355  13.182   0.057 -0.1049  0.0021 -0.0363
22605W        W38866  11.874   0.958  13.067  0.0483 -0.1463 -0.1691
22606W        W38867  13.933  12.499  15.130 -0.0330  0.4183  0.1357
22607W        W38868   3.874  11.625  15.232 -0.0410 -0.0637 -0.1261
22608W        W38869  11.012  14.033   1.746  0.0315 -0.1056  0.0397
22609W        W38870  15.207   6.524   3.517 -0.2427  0.0591 -0.2000
22610W        W38871  15.420  15.182  15.238 -0.2327 -0.0388  0.1018
22611W        W38872   2.436   2.748   3.291 -0.1726  0.2417 -0.2232
22612W        W38873  13.478   7.853  15.045  0.1091 -0.0484  0.1177
22613W        W38874   7.697  15.387   4.427  0.5133 -0.0376 -0.0284
22614W        W38875  17.099   7.265  16.734  0.1333 -0.0453  0.1051
22615W        W38876   1.940   7.633   0.261 -0.3355 -0.0050 -0.0616
22616W        W38877  11.660   2.234   4.489 -0.2040 -0.0742  0.0325
22617W        W38878  10.231  17.578   3.708 -0.1214  0.1400 -0.0519
22618W        W38879  15.154  17.499  16.724  0.0238  0.2323 -0.2181
22619W        W38880  11.766  16.667  13.914 -0.0459  0.0298 -0.2434
22620W        W38881   3.895   3.224   1.462  0.1845  0.2393  0.2464
22621W        W38882  13.590   2.411  13.560  0.1187  0.0096 -0.2161
22622W        W38883  13.031  10.994  14.945  0.1094  0.2811 -0.0934
22623W        W38884   3.978   5.716  14.613  0.2496 -0.0274 -0.1063
22624W        W38885  17.248   3.813   4.223 -0.1574  0.2104  0.1165
22625W        W38886   1.772  15.157  16.308  0.0677 -0.2523 -0.3563
22626W        W38887  17.358  14.205   3.676 -0.3154 -0.0571  0.0597
22627W        W38888   0.681   1.687  16.806 -0.2169 -0.2730 -0.1564
22628W        W38889   9.767  13.126  16.004 -0.0699 -0.2316 -0.1039
22629W        W38890   7.065   3.262   2.972 -0.2187  0.0381 -0.0052
22630W        W38891   1.101   1.164   2.889 -0.4499  0.2315 -0.0866
22631W        W38892   5.760   4.640   3.745  0.1016  0.2250  0.2904
22632W        W38893  14.602  15.812   6.431 -0.0713 -0.2100  0.1198
22633W        W38894   2.854  15.527   4.431 -0.1859  0.3636 -0.0277
22634W        W38895  10.565   0.572   1.610  0.0092 -0.1080 -0.3904
22635W        W38896   8.871   1.557  12.716 -0.0971  0.2101 -0.0999
22636W        W38897   1.692  14.667   4.713 -0.1001 -0.0396 -0.0171
22637W        W38898   9.554  14.080   3.202  0.1700 -0.1116  0.5100
22638W        W38899   7.919   5.141  12.830  0.1874 -0.0866 -0.2703
22639W        W38900  15.479  17.358   0.949  0.1433 -0.1833 -0.2874
22640W        W38901   5.442   5.654  13.322 -0.0488  0.0095 -0.1308
22641W        W38902   8.372   9.923   3.552  0.0365 -0.0159  0.0949
22642W        W38903   9.132   8.345  16.555  0.0270  0.1374  0.3846
22643W        W38904  13.566  17.478  14.658  0.1821  0.1808 -0.0074
22644W        W38905   4.922  11.688   3.127 -0.0430 -0.0653 -0.0602
22645W        W38906   6.900   0.899   0.525 -0.1611 -0.1567 -0.0663
22646W        W38907   9.016   2.489   4.518  0.2636 -0.0717 -0.0984
22647W        W38908  16.157  10.536   0.582  0.2074  0.0357 -0.2159
22648W        W38909  14.347   5.668  12.125 -0.2140  0.1191  0.0301
22649W        W38910   0.364   5.577   6.132  0.0102  0.4843 -0.0370
22650W        W38911   1.864  12.418   0.371 -0.0518  0.0483 -0.0652
22651W        W38912  17.194  11.717   0.628 -0.0368  0.1924  0.2639
22652W        W38913   7.069  11.406  14.854  0.0405  0.1366  0.0386
22653W        W38914   9.509  16.222  11.784  0.1651  0.0384  0.0702
22654W        W38915   3.739   6.102  13.788 -0.0101  0.0784  0.0079
22655W        W38916  16.333   0.543  16.255 -0.1039  0.0691 -0.1434
22656W        W38917   1.202   0.134  16.436 -0.1514 -0.0121 -0.1637
22657W        W38918   3.785   6.496  12.995  0.1197 -0.0916 -0.1069
22658W        W38919   3.708   1.558   5.406 -0.0638  0.1936  0.0998
22659W        W38920   1.242   4.649   1.317  0.0906  0.4817  0.0730
22660W        W38921  16.959   1.779  12.096  0.0756  0.0620 -0.1350
22661W        W38922   1.595   5.394   4.836 -0.2245  0.0658 -0.3072
22662W        W38923  16.986  11.804   5.364 -0.0973  0.1022  0.2628
22663W        W38924  11.033  14.374  14.079  0.1781 -0.0104 -0.0487
22664W        W38925  10.460   0.394  13.929 -0.1528 -0.0710 -0.0605
22665W        W38926   6.853  14.338   5.665 -0.0035  0.0449 -0.0030
22666W        W38927   6.338  12.349   2.180  0.0598  0.0855 -0.4231
22667W        W38928  15.683  16.541   5.873 -0.1239 -0.1608 -0.2262
22668W        W38929  11.801  17.132  12.900  0.0168 -0.2112  0.1051
22669W        W38930   1.924  15.855  16.460 -0.1764  0.0471  0.2617
22670W        W38931  10.378   3.720  14.397  0.0789  0.1974 -0.1697
22671W        W38932   0.319   6.293  15.489  0.1265  0.3003  0.2296
22672W        W38933   3.056   9.104  11.345  0.0997 -0.6551  0.3292
22673W        W38934  11.857  16.778  16.090  0.1046  0.2453 -0.0793
22674W        W38935  12.423  15.710   1.500  0.3126 -0.1136 -0.0030
22675W        W38936   2.381   4.169  15.231 -0.1789  0.1441  0.3569
22676W        W38937   8.832   1.689   3.425 -0.2864 -0.0092 -0.1469
22677W        W38938  13.525  14.786   3.645 -0.1121 -0.1660  0.1383
22678W        W38939   6.121   9.965   4.918  0.3937  0.0011 -0.0611
22679W        W38940  17.500   1.157   3.447  0.0838 -0.1126  0.4868
22680W        W38941  11.577  15.597  13.460 -0.2009 -0.1502  0.1234
22681W        W38942   5.668   7.415  14.376 -0.2092  0.0006 -0.3561
22682W        W38943   7.377   6.791   5.355 -0.0853 -0.1798  0.1036
22683W        W38944  14.448   3.302   0.649 -0.0259  0.3347  0.1544
22684W        W38945  14.697  17.150  12.243  0.0989  0.1409  0.3691
22685W        W38946   0.918   8.730   4.282 -0.2227  0.2142 -0.1629
22686W        W38947  14.707  11.047  12.725  0.0483 -0.1133  0.1643
22687W        W38948   4.512   3.765   2.708  0.2931  0.3958 -0.0825
22688W        W38949   1.187   0.615   0.878 -0.1289 -0.0050  0.0365
22689W        W38950  14.596  15.247   2.336 -0.1680  0.1018 -0.0102
22690W        W38951   2.576  11.551   3.765 -0.1546  0.0018  0.0416
22691W        W38952   7.222   2.415  16.257  0.0365  0.0796 -0.1082
22692W        W38953   0.015   2.052   0.940  0.1766  0.0191 -0.0062
22693W        W38954   5.892  13.163   5.423 -0.2252  0.1189  0.1222
22694W        W38955  15.652   2.230  13.325  0.1710 -0.1842 -0.0335
22695W        W38956   9.184  16.975   4.056  0.0242 -0.0593 -0.2413
22696W        W38957  15.120  17.857  11.837 -0.3183 -0.0388  0.2513
22697W        W38958  15.239  11.356  14.777 -0.1268  0.1166  0.1274
22698W        W38959   8.627   6.811   4.195 -0.1641  0.3082  0.0363
22699W        W38960   4.579   1.067  14.784 -0.2280  0.0603 -0.0290
22700W        W38961   6.112   6.953   0.228 -0.2200 -0.1803 -0.0414
22701W        W38962   2.911  10.849   2.618  0.2061 -0.0573  0.0296
22702W        W38963  14.213  12.450   1.123  0.1828 -0.3087  0.1967
22703W        W38964   3.373   9.490  12.652 -0.0393 -0.1516 -0.0471
22704W        W38965  16.078   7.950   2.613  0.0206  0.0173 -0.2169
22705W        W38966   0.947  13.227  15.236  0.0412  0.0163 -0.0869
22706W        W38967   6.603   2.895  12.659 -0.2143  0.0847 -0.0360
22707W        W38968  10.042  11.211   2.843 -0.3568 -0.0105 -0.1565
22708W        W38969   7.201   8.186  13.276 -0.1681 -0.5934 -0.4718
22709W        W38970  13.669  16.128   5.185  0.1115  0.0360  0.1241
22710W        W38971   4.713   6.469   2.821  0.3831  0.0557  0.0668
22711W        W38972  10.713   8.786  15.416  0.2832 -0.0936 -0.0603
22712W        W38973   5.256   6.318   3.460  0.1026 -0.1860  0.2128
22713W        W38974   7.417   4.057  12.920  0.2733  0.0044  0.0634
22714W        W38975  17.470  14.046  14.828  0.0796  0.0719 -0.1033
22715W        W38976   1.261   6.900   0.490 -0.0263  0.1565 -0.0792
22716W        W38977   4.239   8.921   2.569 -0.3753 -0.0491 -0.0712
22717W        W38978   4.973  12.585   2.984  0.3290  0.0791  0.1947
22718W        W38979   3.105  11.870   0.165 -0.1033 -0.1228  0.0990
22719W        W38980   8.379   1.607  13.586 -0.2508 -0.0344 -0.1516
22720W        W38981   8.092   2.249  12.118 -0.0282  0.1149 -0.2887
22721W        W38982   0.772  17.192   3.274 -0.0293  0.2020 -0.0284
22722W        W38983   2.094   6.816  14.840  0.0899 -0.0758 -0.0883
22723W        W38984  10.245  10.777   4.772 -0.3012  0.1019  0.2765
22724W        W38985  12.171  12.251  12.859  0.2623 -0.3786 -0.0321
22725W        W38986   4.137  15.260   4.604 -0.0170 -0.0309  0.2293
22726W        W38987   5.885   9.650  14.298 -0.1485  0.0312  0.0544
22727W        W38988  14.143  13.801  12.847  0.1431 -0.0059  0.0976
22728W        W38989   9.726   5.300   4.357 -0.5047 -0.1834  0.0700
22729W        W38990   3.881   9.169   2.984 -0.0329  0.2958 -0.1573
22730W        W38991   4.347   5.153   3.814 -0.0204 -0.0478  0.0445
22731W        W38992  10.642  11.213  15.140 -0.4046 -0.3187 -0.2275
22732W        W38993  15.200   2.296   3.873 -0.1161 -0.1292 -0.0573
22733W        W38994   5.108   9.006  14.039  0.0444 -0.3412 -0.3201
22734W        W38995   8.630  12.050   3.847 -0.3554  0.0975 -0.1127
22735W        W38996  11.916   8.810  16.553  0.1648  0.0631 -0.0678
22736W        W38997   9.191  17.760  12.312  0.0917  0.0613 -0.0865
22737W        W38998   9.642  16.528   4.237  0.1685 -0.1186  0.2134
22738W        W38999   3.825  11.460   1.515  0.4110 -0.1996  0.0035
22739W        W39000   1.879  12.584   0.898  0.0522 -0.0086  0.1734
22740W        W39001  13.529   9.281   1.475 -0.0931  0.0352  0.0485
22741W        W39002  10.883   8.415  14.691 -0.0662 -0.0823 -0.1477
22742W        W39003  13.926  11.877  15.656  0.3767 -0.3250 -0.1063
22743W        W39004  10.105   4.783  12.271 -0.1906  0.0087 -0.0123
22744W        W39005   8.149   8.765   2.163 -0.2583  0.3176  0.0453
22745W        W39006   2.566   9.176  16.305  0.0430  0.1596 -0.3247
22746W        W39007  15.645   6.452  16.472 -0.0333  0.0206  0.1710
22747W        W39008   9.697  16.483  13.658  0.0408 -0.0305  0.2486
22748W        W39009   0.501   7.008  14.298 -0.0982 -0.2006 -0.1367
22749W        W39010  17.194  10.950   5.202 -0.2610 -0.1148 -0.0790
22750W        W39011  15.944   9.854  15.740  0.2723  0.0320  0.0264
22751W        W39012   8.554   1.856   2.447  0.1012  0.1092  0.0776
22752W        W39013   4.202  14.864  13.898  0.1725 -0.0734  0.2338
22753W        W39014  15.432  15.959   4.314 -0.3112  0.1347  0.0702
22754W        W39015  16.327   4.543  14.581  0.1532 -0.0591  0.0208
22755W        W39016   5.450   5.033  15.282  0.1067  0.0047 -0.0645
22756W        W39017  17.450  13.493  13.059 -0.0268 -0.1173  0.0229
22757W        W39018  15.812  17.188  16.478  0.0130  0.1452  0.2217
22758W        W39019  10.874  12.392   2.362 -0.4879  0.3502  0.0618
22759W        W39020   6.721   1.136  14.316  0.0033 -0.0658  0.2030
22760W        W39021  15.268  13.782  14.687 -0.1052 -0.0470  0.0630
22761W        W39022   5.650   8.339  13.754  0.0442 -0.0371  0.2431
22762W        W39023   0.820   6.188  14.343  0.1004 -0.1517  0.1145
22763W        W39024  14.643   4.271   3.967 -0.0205  0.0501 -0.0297
22764W        W39025   9.045   4.794   1.137  0.0590  0.0336 -0.1941
22765W        W39026  12.720  12.964  16.541  0.1117  0.1211 -0.0434
22766W        W39027   9.453   6.372   5.092 -0.0082 -0.2360  0.0088
22767W        W39028   0.842   3.409  11.583  0.0973  0.0545  0.2403
22768W        W39029   4.238  12.930   5.459  0.1813  0.0802  0.0962
22769W        W39030   8.450   8.751  12.073  0.3085  0.1469 -0.1285
22770W        W39031   4.920  15.085  12.539  0.0478  0.1439 -0.0278
22771W        W39032  10.337   5.101  14.881  0.0916 -0.1184 -0.1576
22772W        W39033   1.250   0.820   3.271 -0.2322 -0.1725 -0.1239
22773W        W39034   4.179  13.687   3.006 -0.0862  0.1698 -0.1666
22774W        W39035   2.900   4.765   0.515 -0.0809 -0.0390 -0.0532
22775W        W39036   4.463  15.952  16.362 -0.3448 -0.2637  0.2300
22776W        W39037  11.591   0.543  13.502 -0.1643 -0.1270 -0.0309
22777W        W39038  12.470   8.748  16.658 -0.0060  0.1022  0.0150
22778W        W39039  14.405  17.425  16.964  0.1921 -0.1187 -0.2417
22779W        W39040  11.751  15.932   0.882 -0.0257  0.0495 -0.1365
22780W        W39041   4.465   2.932   2.242 -0.1255  0.0141  0.1911
22781W        W39042  13.786  16.762  11.940 -0.0861  0.1894 -0.2649
22782W        W39043  11.169   4.446  13.582 -0.2872  0.0385 -0.1653
22783W        W39044  17.104   3.379  12.247 -0.1611  0.1797 -0.0878
22784W        W39045   5.434  12.255  15.017  0.1798  0.0418 -0.0848
22785W        W39046  11.520  13.429  11.979 -0.1551 -0.1247  0.1291
22786W        W39047  10.022   4.951  13.222 -0.2300 -0.0538  0.1986
22787W        W39048   0.689   3.461   5.128  0.0012  0.1706 -0.0778
22788W        W39049   2.829   1.721  12.037 -0.4853 -0.1284  0.3136
22789W        W39050  16.401   0.425   0.678 -0.0261  0.1325 -0.1570
22790W        W39051   7.152  15.595  13.717  0.2930 -0.0915  0.0489
22791W        W39052  11.208   3.699  12.907  0.0778 -0.0240 -0.0995
22792W        W39053   9.634   1.136  11.811 -0.1800 -0.3328 -0.0891
22793W        W39054   4.811   8.349   2.181 -0.1517 -0.3054 -0.0011
22794W        W39055  16.337   4.211  15.987 -0.0342  0.1126  0.3454
22795W        W39056   2.764   6.794  11.749 -0.1034  0.2222  0.4290
22796W        W39057  11.652  14.085   1.259 -0.1022  0.0067  0.1398
22797W        W39058   3.339  11.542   0.615  0.2633  0.4839  0.4696
22798W        W39059  12.235  17.244  13.582 -0.0144  0.0990 -0.0735
22799W        W39060  16.389   4.503  16.400  0.1046 -0.3299  0.0200
22800W        W39061   6.312   1.781  16.292 -0.0379  0.1470  0.0327
22801W        W39062   2.584   8.253  12.408  0.2514 -0.0077  0.1996
22802W        W39063  11.657  16.898   6.119 -0.2971 -0.1363 -0.0189
22803W        W39064   0.036   6.374  13.832  0.1979  0.0435  0.2697
22804W        W39065  10.000  14.986   2.528 -0.4761 -0.2136 -0.2369
22805W        W39066  14.384   5.159  12.210  0.2208  0.0415  0.2625
22806W        W39067   9.103   7.904  13.817  0.0267  0.1161 -0.3482
22807W        W39068   2.667   3.778   1.865  0.4135 -0.0803  0.0757
22808W        W39069   7.225   3.789   4.344  0.0315  0.0799 -0.1973
22809W        W39070   1.252  12.400  14.960  0.0738 -0.1238  0.4172
22810W        W39071   5.370  16.976   2.110 -0.1669 -0.3091  0.1572
22811W        W39072   4.949   5.043   0.967  0.0919 -0.2249  0.1483
22812W        W39073   3.359  16.942   5.106  0.1913  0.2929  0.1019
22813W        W39074  13.565   8.972   2.643  0.2084  0.0902  0.1201
22814W        W39075  12.901  11.955  16.813  0.0112  0.1431 -0.0989
22815W        W39076   5.119   7.394   3.819  0.1498  0.2724 -0.0047
22816W        W39077   0.012  16.280  12.231  0.2825  0.1790  0.1880
22817W        W39078   5.458  11.510   3.865  0.0573 -0.1731  0.0392
22818W        W39079   7.763  12.925   2.375 -0.0199  0.0065 -0.3992
22819W        W39080   1.249   4.443   2.671  0.0627  0.1362  0.2575
22820W        W39081   3.761   1.446   3.647 -0.1212 -0.2602  0.3232
22821W        W39082  15.476   5.695   2.968  0.0332  0.1585  0.0869
22822W        W39083   3.912   8.451  16.449 -0.0211 -0.0213 -0.0030
22823W        W39084  11.288   5.648   4.969  0.2438  0.1569  0.0099
22824W        W39085  12.639   7.682   4.529 -0.0506  0.0180  0.1111
22825W        W39086  16.721  14.319   5.225  0.3337  0.0339 -0.0984
22826W        W39087   8.191   3.387   3.644 -0.0532  0.0566  0.1876
22827W        W39088  13.354   6.441  16.846  0.2148  0.0348  0.2080
22828W        W39089   7.022  10.820  15.482  0.1275  0.1913 -0.0226
22829W        W39090  11.840   8.333  16.643  0.1590  0.1669  0.0586
22830W        W39091   9.935  17.097  12.091 -0.1134  0.2736  0.0845
22831W        W39092  14.917  13.337  11.825  0.1094  0.1207 -0.0830
22832W        W39093   3.468   0.555   0.325  0.2801  0.1414  0.1154
22833W        W39094   3.433   1.021   3.125 -0.2461 -0.3317  0.1264
22834W        W39095   9.058  14.942  11.774 -0.2486 -0.0151 -0.2065
22835W        W39096  12.719  11.518  16.679  0.0461  0.1449 -0.0925
22836W        W39097  13.331   4.522  12.844  0.2142  0.1999  0.0607
22837W        W39098  15.052  14.445  12.158 -0.0509 -0.0228  0.2320
22838W        W39099  13.487  12.467   0.511  0.1496 -0.0213 -0.0378
22839W        W39100   1.257   7.503   5.357 -0.1420 -0.0109  0.2235
22840W        W39101  12.564   2.445   2.126 -0.0645  0.2319 -0.1870
22841W        W39102   0.519  10.838  13.125  0.0847  0.0512  0.1830
22842W        W39103   3.660   5.678   5.415 -0.0481  0.2843  0.2161
22843W        W39104  11.270  10.202   5.058 -0.0863 -0.1276 -0.1385
22844W        W39105   8.270  10.970  12.447 -0.1265 -0.4560 -0.0470
22845W        W39106   5.925   9.023   1.745  0.0642  0.4622  0.0680
22846W        W39107  13.309   3.376   1.200  0.0552 -0.1476 -0.1361
22847W        W39108   8.436  17.068  13.858  0.0832 -0.2545 -0.0223
22848W        W39109   8.167  17.471   4.928  0.2733  0.0917 -0.0965
22849W        W39110   9.068  13.992   5.226 -0.2582  0.0776 -0.2139
22850W        W39111  15.572   7.802  12.117 -0.1678  0.1099 -0.3614
22851W        W39112   5.612   3.116   1.086 -0.2076 -0.1198 -0.1748
22852W        W39113  15.639   2.799   5.892 -0.1488 -0.1911 -0.1677
22853W        W39114   2.363   8.567   0.842 -0.1514  0.2077 -0.1145
22854W        W39115  15.519   9.518  12.673 -0.0238 -0.0112 -0.0301
22855W        W39116   7.193  10.715   5.777  0.2306 -0.0249 -0.2372
22856W        W39117  15.360  17.466  16.258 -0.3599 -0.3225  0.1848
22857W        W39118   6.417   7.136   2.462  0.0075 -0.2902  0.0757
22858W        W39119   1.969  16.080  13.184 -0.1303 -0.2236 -0.1767
22859W        W39120  11.392   9.044   0.192  0.0221 -0.0682 -0.3316
22860W        W39121   5.857   7.847  14.983  0.4408 -0.1565 -0.0982
22861W        W39122  15.618   0.925  14.506  0.3059 -0.1378  0.1417
22862W        W39123   5.419   8.746   0.038  0.0570 -0.0594  0.2898
22863W        W39124   4.925   2.584  13.702  0.1307  0.1942 -0.2236
22864W        W39125   2.254   8.304  16.514 -0.1528  0.0222 -0.0398
22865W        W39126   3.775   8.620  12.702  0.1977  0.0759  0.1560
22866W        W39127  11.231   8.508   0.201  0.0783 -0.3020 -0.2176
22867W        W39128   8.247  12.806   1.026 -0.0687  0.4824  0.2017
22868W        W39129   6.657   4.004  14.609 -0.2028  0.0840 -0.1558
22869W        W39130   6.891   8.810   4.714  0.2246  0.0346  0.0429
22870W        W39131   6.770   6.786   4.856  0.0549  0.1647 -0.0046
22871W        W39132  16.512  12.767  12.290  0.2106 -0.1130 -0.1278
22872W        W39133   6.456   8.740  16.059 -0.3174 -0.0084  0.0991
22873W        W39134  10.608   7.892  16.275 -0.0678 -0.0472 -0.0680
22874W        W39135  16.492   5.048   4.991 -0.0692  0.0881  0.2848
22875W        W39136  15.144   5.954   5.778  0.1940 -0.1234 -0.0998
22876W        W39137   1.911   8.046  13.197 -0.4496 -0.4246 -0.3121
22877W        W39138  10.365   5.590  14.510 -0.1543 -0.0407  0.2880
22878W        W39139  12.776   5.817   4.964  0.2821 -0.1940  0.4195
22879W        W39140  12.665   5.783  16.797 -0.4606  0.2851  0.0436
22880W        W39141  15.263  11.433   6.602  0.3812  0.1660  0.1172
22881W        W39142   1.008  15.030  12.609  0.0076 -0.0437 -0.1302
22882W        W39143  11.891   0.719  12.105 -0.0330  0.2046  0.0187
22883W        W39144  17.261   5.264   6.043 -0.0448  0.0556  0.1368
22884W        W39145   6.820   8.287   2.962  0.0758 -0.1553  0.0923
22885W        W39146  10.013  16.083  13.595 -0.3323 -0.1057 -0.1714
22886W        W39147  13.892  17.370  15.494  0.0071 -0.2180  0.2700
22887W        W39148  15.825  10.667  13.877 -0.2857 -0.0836 -0.2485
22888W        W39149  11.709   8.387   0.394  0.2148  0.0761  0.0415
22889W        W39150   4.462   3.299  15.525 -0.1661  0.3934 -0.3771
22890W        W39151   9.187   5.320   5.150 -0.0413  0.0198 -0.1528
22891W        W39152   8.614   5.466  14.582  0.1436 -0.1740  0.1356
22892W        W39153  14.901  11.647  14.472  0.0610 -0.2832  0.1298
22893W        W39154  11.632   7.474   5.929  0.0934  0.3327 -0.3386
22894W        W39155  10.557   1.382  15.000 -0.0278 -0.0339  0.0652
22895W        W39156  16.400  17.612   3.489 -0.0179 -0.2512  0.0244
22896W        W39157  10.757  16.476  13.791  0.1333  0.1864 -0.1412
22897W        W39158   6.628  13.911  11.983 -0.1232 -0.0963  0.2722
22898W        W39159  15.439  13.885  12.562  0.0442 -0.0918 -0.1081
22899W        W39160   4.728   0.055  14.276 -0.1149 -0.1042 -0.3711
22900W        W39161  16.891  11.299   0.642 -0.1540  0.0197 -0.4025
22901W        W39162  17.284  16.078   2.210  0.2062  0.0331 -0.3335
22902W        W39163  14.592  13.122  14.253  0.0826  0.1627  0.0435
22903W        W39164   2.992  13.129  13.188 -0.0695  0.0911 -0.1345
22904W        W39165   3.843  14.094   5.362  0.0628 -0.1592  0.0492
22905W        W39166   5.414  10.553   2.749  0.0444 -0.0501  0.0666
22906W        W39167  16.606  16.375   5.651 -0.3281 -0.2528 -0.0211
22907W        W39168   4.525  13.079   1.564 -0.3373 -0.2916 -0.0461
22908W        W39169   2.332   3.134   3.800 -0.0528 -0.0896  0.1130
22909W        W39170   8.282   6.917   5.130  0.2394  0.0656 -0.0509
22910W        W39171   4.713   6.546  15.436  0.0671 -0.1948 -0.2289
22911W        W39172  14.938   2.534   4.203  0.0425  0.0102 -0.1301
22912W        W39173   0.298   7.172  15.727 -0.1161  0.2371 -0.1129
22913W        W39174   9.996   0.335   4.588 -0.0764 -0.0242 -0.2247
22914W        W39175   1.425  15.492   3.526 -0.1418 -0.2754  0.2194
22915W        W39176   2.728   9.162  11.783 -0.0018  0.0388 -0.0018
22916W        W39177  13.213  12.193  15.662  0.0130  0.0687  0.0769
22917W        W39178  15.528  12.040   1.370 -0.4147 -0.1470 -0.0330
22918W        W39179  17.357  10.773  11.792 -0.4004  0.0637  0.0345
22919W        W39180   6.673  17.734   1.306 -0.1139  0.0247  0.0184
22920W        W39181  16.301   9.031  13.661  0.1592 -0.0001  0.0638
22921W        W39182  13.871   7.849  15.958 -0.0378 -0.0499 -0.0724
22922W        W39183  12.549  13.691   4.605 -0.2087 -0.1280 -0.1001
22923W        W39184  14.936   4.866  15.025 -0.1569  0.2698 -0.0506
22924W        W39185  11.104   8.861  15.730  0.1948 -0.1582  0.1626
22925W        W39186   2.544  11.733  16.547 -0.2860 -0.1442 -0.0549
22926W        W39187  13.320  13.863  11.805 -0.1209  0.2220 -0.5084
22927W        W39188   2.413  16.410  13.249 -0.0008 -0.0969 -0.0554
22928W        W39189  15.959  16.543   1.339 -0.0979  0.1455  0.1459
22929W        W39190   2.287   4.491  15.765  0.1553  0.0107 -0.1898
22930W        W39191  11.103  14.394  15.979  0.1859 -0.0247 -0.1046
22931W        W39192   4.437  14.568   3.543  0.0922  0.1019  0.0578
22932W        W39193  11.144  14.900  12.226  0.0002 -0.1197 -0.2188
22933W        W39194   0.855   6.064   4.294  0.1963  0.3142 -0.1092
22934W        W39195  13.978   5.343  15.375 -0.3189  0.0218  0.0144
22935W        W39196  17.057   6.825   2.522  0.2516 -0.0183 -0.0476
22936W        W39197  11.691   7.417   0.435  0.0223  0.0210  0.0251
22937W        W39198   7.446  14.039   2.137  0.0732  0.3333 -0.0539
22938W        W39199   3.637  16.107  14.693  0.1465  0.0188  0.1616
22939W        W39200   6.247   1.637   1.208 -0.2561 -0.2078  0.0208
22940W        W39201  12.070   8.085  15.517 -0.0129  0.3636  0.0641
22941W        W39202   1.018   2.646   1.829  0.0295 -0.1144 -0.0636
22942W        W39203  17.530   2.338  15.183 -0.1782  0.0091 -0.3520
22943W        W39204  17.062   2.725  13.985 -0.0592 -0.0533 -0.4356
22944W        W39205  10.987   8.649   3.695  0.1398 -0.2031  0.0201
22945W        W39206  16.852   1.672  15.162  0.0062 -0.0897  0.0236
22946W        W39207   5.894   0.633  16.727 -0.0660  0.0742 -0.1592
22947W        W39208   9.975   5.085  15.793 -0.0999 -0.1814 -0.1117
22948W        W39209   3.578  12.387   4.968  0.4111  0.0467 -0.0073
22949W        W39210   6.980   2.541   3.454 -0.0625  0.0266  0.0829
22950W        W39211  15.292   9.639  13.224 -0.0985 -0.0586  0.0476
22951W        W39212  16.527  15.646   0.703 -0.1514  0.1673 -0.0384
22952W        W39213   5.929   2.450   5.484  0.0801  0.2061 -0.0953
22953W        W39214   8.030   9.123  14.927 -0.3186  0.0070 -0.0928
22954W        W39215   4.055  10.556  14.245 -0.1133 -0.1424  0.1095
22955W        W39216  14.565   7.941   1.971  0.0231 -0.1406 -0.0896
22956W        W39217   0.021   8.242  16.609 -0.0814 -0.1553 -0.0277
22957W        W39218  16.413  14.900  13.960 -0.0223 -0.0271 -0.2190
22958W        W39219   8.755   4.552  14.895  0.1320 -0.2692 -0.1055
22959W        W39220   5.662  10.927   5.838 -0.2842 -0.0675  0.1251
22960W        W39221   1.035   9.868   0.796 -0.1383 -0.0256 -0.2180
22961W        W39222   2.292   4.929   5.211 -0.3561  0.0028  0.0330
22962W        W39223   1.382  16.607   0.760  0.1317 -0.0665 -0.3554
22963W        W39224  16.077   6.472   1.442 -0.1280 -0.2925 -0.0797
22964W        W39225  11.715   8.353  12.728 -0.0835 -0.0757 -0.3491
22965W        W39226   5.314  14.718  11.774 -0.1314  0.2872 -0.1984
22966W        W39227   5.010   9.271  14.464 -0.4236  0.0696 -0.2065
22967W        W39228   1.948  12.669  13.333  0.2262  0.0457  0.0262
22968W        W39229   8.953   2.527   1.654 -0.0505 -0.0004  0.0278
22969W        W39230   5.362   1.486  15.236 -0.1179  0.2909  0.4096
22970W        W39231  16.643  13.386  12.227 -0.1714 -0.0960 -0.0537
22971W        W39232  13.854   1.054  14.816  0.2899  0.1987 -0.0887
22972W        W39233  14.130   2.982  11.529 -0.1878 -0.0431 -0.0382
22973W        W39234  15.576   6.118   4.971 -0.1734  0.0121 -0.0213
22974W        W39235  16.010  15.996   2.747  0.1626 -0.1738  0.0435
22975W        W39236   1.589   6.837  16.474  0.1625 -0.0102  0.0534
22976W        W39237  15.829   7.561  16.148 -0.1995 -0.0950  0.0185
22977W        W39238   9.978  13.980   2.706 -0.0686 -0.0303 -0.4692
22978W        W39239  17.010  13.414  16.277  0.1543 -0.4342 -0.2668
22979W        W39240  16.357   4.734   5.943 -0.0967  0.4615 -0.2013
22980W        W39241  17.067   1.089  16.074 -0.0893  0.1853  0.0567
22981W        W39242   0.306   1.800  14.973  0.0910 -0.0024  0.0720
22982W        W39243   1.600  13.220  13.708  0.0712  0.0215 -0.1626
22983W        W39244   4.653   3.389  13.876  0.1030 -0.0948  0.0666
22984W        W39245  14.136   0.143  14.889  0.1766  0.1138  0.2556
22985W        W39246   8.689  10.065  14.702 -0.1903  0.1167  0.1195
22986W        W39247   0.908  10.788   0.059  0.2344  0.2810 -0.1150
22987W        W39248   9.374  11.788  11.729  0.2317  0.0311  0.1471
22988W        W39249  13.261   3.312  12.473 -0.0180  0.2905 -0.1682
22989W        W39250  10.070  12.790  14.233 -0.2767  0.0021  0.3109
22990W        W39251   0.806   5.826  14.698 -0.2039  0.3284  0.0833
22991W        W39252   7.954  12.249  15.037 -0.1400 -0.0008 -0.0059
22992W        W39253   0.813  10.128  12.562 -0.2159 -0.2121 -0.1870
22993W        W39254  15.559  17.297   3.208  0.3212  0.1891  0.2809
22994W        W39255   3.645   2.393   4.735 -0.2687 -0.0229 -0.0375
22995W        W39256  16.641   2.654   3.826  0.1170 -0.0207 -0.1131
22996W        W39257   8.405  17.643  14.581 -0.0831  0.0186 -0.0034
22997W        W39258   1.391   3.097  16.370 -0.2010  0.1078 -0.0234
22998W        W39259  12.236  15.752   0.985  0.3492 -0.0178  0.2696
22999W        W39260  15.153  13.142   2.529 -0.2490  0.3220 -0.5141
23000W        W39261   0.010   0.649   4.032 -0.0814 -0.3576  0.1477
23001W        W39262  12.901   8.347  15.141 -0.1587 -0.1648  0.1221
23002W        W39263   4.420   0.358   4.243 -0.1166 -0.0630  0.0382
23003W        W39264  16.834   0.608   2.329 -0.0923  0.0076 -0.1645
23004W        W39265  12.150   7.330   4.011  0.4981  0.1361 -0.0273
23005W        W39266  14.402  16.039   1.935  0.0556 -0.1440  0.0147
23006W        W39267  10.401  17.526   0.972 -0.0158 -0.0873  0.0868
23007W        W39268  17.508   8.332  14.291 -0.0728 -0.2833  0.1445
23008W        W39269   1.393  12.433   0.858 -0.1864  0.3504 -0.1476
23009W        W39270  14.836   5.815   0.262 -0.0229 -0.1823 -0.0435
23010W        W39271   0.955  12.502  16.292 -0.0148 -0.0488 -0.1262
23011W        W39272   2.085  15.712   0.461  0.3265  0.1643 -0.3815
23012W        W39273   1.313   7.890  15.418 -0.0466 -0.4684  0.2072
23013W        W39274  11.261  12.776   0.130  0.1352  0.0645  0.2132
23014W        W39275   7.552   2.774   4.323  0.1132  0.1022  0.0830
23015W        W39276  17.367   9.977  12.928 -0.3453 -0.2201 -0.2530
23016W        W39277  10.940   8.191  14.018  0.0889  0.0429 -0.1645
23017W        W39278  16.277   9.275   1.452  0.0909 -0.0936 -0.1812
23018W        W39279   0.471   0.621   1.917 -0.1157 -0.0623 -0.1473
23019W        W39280   6.280   6.253  11.629 -0.0783 -0.0425  0.2450
23020W        W39281  16.130   3.633  15.123  0.1337 -0.0902 -0.1161
23021W        W39282   9.896   3.230  13.498 -0.2263 -0.4691  0.1413
23022W        W39283   4.141  15.939  14.891 -0.1580  0.1722 -0.1789
23023W        W39284  14.026   4.329   4.573  0.0170 -0.0961 -0.1628
23024W        W39285   6.538   0.698  15.349  0.0524  0.0925 -0.0821
23025W        W39286   6.359  16.145   1.064  0.0316  0.0673  0.0867
23026W        W39287  12.017   5.296  13.141  0.0280 -0.4717  0.1121
23027W        W39288   8.777   6.889   1.321 -0.1703  0.1070 -0.1536
23028W        W39289   5.267   7.020  14.471  0.0991 -0.0849  0.3205
23029W        W39290   9.335   4.497   0.411 -0.0820 -0.1942 -0.2941
23030W        W39291   9.626   8.950  16.059  0.0308 -0.3049  0.1866
23031W        W39292  14.622   4.336  15.169  0.0121 -0.0469 -0.3407
23032W        W39293  14.532   9.844   1.472  0.0301 -0.0118  0.0309
23033W        W39294  10.613  12.023  11.558  0.1494  0.3614  0.0073
23034W        W39295  13.627  10.898  11.554  0.3210 -0.2117  0.1985
23035W        W39296   7.873   6.240   0.643  0.3121  0.1968 -0.0513
23036W        W39297  13.905   5.157   3.924  0.1542  0.1610  0.2913
23037W        W39298  17.699   7.821   4.192 -0.0115 -0.2028 -0.0526
23038W        W39299  16.595   7.071  13.003  0.4937  0.0614 -0.1024
23039W        W39300  10.435  12.038  12.485 -0.3282  0.2237  0.0524
23040W        W39301   1.966   2.480   4.052  0.1862  0.0654 -0.1444
23041W        W39302  14.197   5.396   3.564 -0.2072 -0.0381 -0.2458
23042W        W39303   7.949  16.827   1.157 -0.0829 -0.1691 -0.1504
23043W        W39304  10.343  13.966  13.044 -0.2947  0.0455  0.0998
23044W        W39305   0.584  13.437  14.464 -0.0251  0.3585  0.3029
23045W        W39306   1.069   8.547  15.433 -0.0454 -0.0610 -0.0661
23046W        W39307  11.139  12.816   2.097  0.1452 -0.1094  0.0566
23047W        W39308   1.994  14.883   2.402  0.2487  0.1493  0.0468
23048W        W39309  11.851  15.957  12.741 -0.0159  0.3018  0.1034
23049W        W39310  11.689   2.490  12.885  0.1024  0.0855 -0.1206
23050W        W39311   9.065   5.568   1.202  0.3220 -0.2779  0.3239
23051W        W39312   3.484  12.987   3.681 -0.1248 -0.0555 -0.0190
23052W        W39313   7.730   0.799  13.961 -0.0640  0.1294 -0.2360
23053W        W39314  10.823   8.530   3.052  0.0342 -0.2485  0.0419
23054W        W39315  12.726  13.926   2.016  0.2879 -0.1236  0.3928
23055W        W39316  12.439   5.493  16.408 -0.1165 -0.0286 -0.0151
23056W        W39317   7.530  16.752   3.734  0.1918  0.0974  0.2921
23057W        W39318   0.037   3.561   4.682  0.2260  0.1425  0.0697
23058W        W39319   7.924   1.918  16.718 -0.0119  0.0962 -0.2735
23059W        W39320  16.882   7.547   0.652 -0.0896  0.3227  0.0185
23060W        W39321   2.776  12.239  12.069 -0.1479 -0.3629 -0.1402
23061W        W39322  14.200  12.272   4.692  0.1086 -0.0965  0.3681
23062W        W39323   2.853  10.615  11.713 -0.0946 -0.2149 -0.2222
23063W        W39324  12.465   7.246  15.986 -0.1617  0.5333  0.1386
23064W        W39325   4.174  12.938   4.546  0.0172 -0.0533 -0.1321
23065W        W39326   1.559  11.563   3.032  0.0647  0.1931  0.1416
23066W        W39327  12.099   0.543   0.137  0.0063 -0.2687  0.0297
23067W        W39328   6.476   8.281   0.043  0.4134 -0.2280 -0.1621
23068W        W39329  12.721   0.746   3.521  0.1303 -0.0429 -0.1447
23069W        W39330  15.020  15.073   5.926  0.2404 -0.0117 -0.2450
23070W        W39331   8.460  14.402   3.004 -0.4890  0.0502 -0.2641
23071W        W39332  16.361   5.832   4.514 -0.1676  0.0994  0.1654
23072W        W39333   7.779   6.938  12.949 -0.2980  0.0598 -0.0522
23073W        W39334   0.582  12.938   3.482  0.0369 -0.1823  0.2689
23074W        W39335  10.315   9.494   2.092 -0.1304  0.2482  0.1691
23075W        W39336   7.027   1.160   5.536  0.0448 -0.1339 -0.1307
23076W        W39337   8.329  10.705  13.614 -0.1609  0.1630 -0.0826
23077W        W39338   6.993   1.407  13.956 -0.0466 -0.0363 -0.2500
23078W        W39339   1.320   8.795   1.491 -0.0174 -0.0237  0.2149
23079W        W39340   7.375  15.301   0.910 -0.1193  0.0476 -0.0885
23080W        W39341   3.715  15.575  13.804  0.1575  0.0125 -0.0759
23081W        W39342   4.436  16.064   5.358 -0.2206 -0.0191 -0.0238
23082W        W39343   4.774  17.285   2.137  0.1260 -0.2719  0.0993
23083W        W39344  17.323  10.386   1.762  0.2058 -0.0871 -0.1512
23084W        W39345   2.105   9.952   2.102  0.0173 -0.3084  0.3076
23085W        W39346  14.779   3.759  14.027  0.0678 -0.2286  0.0095
23086W        W39347   5.795   4.692  12.181  0.0333  0.2105 -0.1555
23087W        W39348   3.612   6.521   3.082 -0.4180 -0.1659  0.0912
23088W        W39349  11.490   5.262  13.229 -0.2975  0.5450  0.0186
23089W        W39350   0.192   5.998   3.715  0.2383  0.1902  0.0523
23090W        W39351   8.601  12.125   0.714  0.1667  0.0545  0.1948
23091W        W39352   5.765  11.778  12.042  0.0228 -0.3577  0.0314
23092W        W39353   4.173   8.061   0.626  0.2368 -0.1872  0.0967
23093W        W39354  17.623   8.190  15.286 -0.2692 -0.3366  0.0414
23094W        W39355   0.144  11.182   4.572  0.3486 -0.0219  0.0193
23095W        W39356   3.071  11.918   5.447 -0.0147  0.0436 -0.0112
23096W        W39357   3.889  14.858  15.987 -0.0502  0.1217  0.2309
23097W        W39358  12.304   1.180  12.955 -0.4688  0.4855 -0.1251
23098W        W39359  12.049   3.642   1.512 -0.2675  0.0934 -0.1724
23099W        W39360  13.190   0.588  14.236 -0.3254 -0.1339  0.1969
23100W        W39361   1.451  16.865  12.645  0.1222 -0.3764 -0.2034
23101W        W39362  12.914  14.513  12.757  0.0879 -0.0535  0.3202
23102W        W39363   5.928   1.980   0.467  0.0517 -0.0455  0.1381
23103W        W39364   8.360   7.701  11.471  0.1172  0.0959 -0.0783
23104W        W39365  17.707   8.395  12.635 -0.1044 -0.1695 -0.1832
23105W        W39366   8.895  11.948  12.052  0.0699  0.0088 -0.1258
23106W        W39367   0.160   2.540   4.143 -0.1040  0.1325  0.1532
23107W        W39368  12.462   1.454  13.388  0.2154  0.2550 -0.1545
23108W        W39369  10.983  15.753   0.464 -0.2241  0.0682  0.2699
23109W        W39370   5.907   7.552  11.824  0.3079  0.0586 -0.2188
23110W        W39371   8.055   0.007  14.812  0.3401  0.0009  0.0392
23111W        W39372  12.448   3.599  11.801 -0.3366 -0.1400 -0.2692
23112W        W39373   6.699  17.830  12.057 -0.1871 -0.0130 -0.0182
23113W        W39374  10.750  16.969   3.125  0.3817 -0.0245  0.1479
23114W        W39375   6.660   8.601   2.349  0.1452 -0.2653 -0.1015
23115W        W39376  10.034  16.947  15.986 -0.1793 -0.2501  0.1027
23116W        W39377  17.243   1.514   1.321 -0.0106 -0.2062  0.0802
23117W        W39378  11.302   3.236   0.230 -0.1108  0.6122  0.3737
23118W        W39379  11.340  15.535   3.573 -0.1200  0.1116 -0.2678
23119W        W39380  12.746  15.263   2.165 -0.2249  0.3189  0.0757
23120W        W39381   0.659   0.009  16.638 -0.0618  0.1171 -0.2876
23121W        W39382   4.184  12.991  13.759  0.1355 -0.0607  0.0123
23122W        W39383  10.283  11.043  16.437 -0.0050 -0.1480  0.1857
23123W        W39384   6.136   4.586   4.573  0.0035 -0.1920 -0.3656
23124W        W39385  11.204   0.978   1.902  0.0010  0.3856 -0.1579
23125W        W39386   8.780   6.995   0.756  0.1549 -0.0207 -0.2693
23126W        W39387   3.930   8.427   1.893 -0.2059 -0.0498 -0.0175
23127W        W39388   3.821  16.193   3.005 -0.0170  0.2657 -0.2976
23128W        W39389  16.711  17.334   0.060  0.1697 -0.0733 -0.0158
23129W        W39390   6.189  13.506  12.544  0.1405 -0.0913  0.1965
23130W        W39391  10.994   9.764  12.897  0.2528 -0.1013 -0.0596
23131W        W39392  12.269   5.128   3.314  0.2745  0.1598 -0.0865
23132W        W39393   1.896  16.353  16.383  0.0201 -0.0494  0.0246
23133W        W39394   6.682   3.020  12.117  0.0223  0.1720  0.2750
23134W        W39395  16.104   2.057  14.825 -0.0251 -0.1228  0.0794
23135W        W39396  11.591   4.571   1.431  0.0011  0.3059 -0.0630
23136W        W39397  13.037   9.811   1.539 -0.0548 -0.1303  0.1014
23137W        W39398  16.141   2.897   3.282  0.3159  0.2263  0.0569
23138W        W39399   3.477   7.941   2.578  0.1289 -0.1271 -0.0230
23139W        W39400   0.648  10.201  16.672 -0.2920 -0.2571 -0.0746
23140W        W39401   0.577   3.155  15.108  0.2322 -0.1015 -0.1522
23141W        W39402   9.133   1.861   2.371 -0.1428 -0.3812  0.1584
23142W        W39403  14.516  11.506  16.546 -0.1035 -0.1572 -0.0785
23143W        W39404  12.829   2.875  13.676  0.2570 -0.0185 -0.1870
23144W        W39405  15.790  17.646   0.502 -0.1423 -0.0032 -0.0394
23145W        W39406   2.830   4.190   5.355 -0.0114  0.0294 -0.1789
23146W        W39407  17.614   0.328   0.755  0.3454  0.1500 -0.0796
23147W        W39408  14.384   5.775   1.342 -0.1718 -0.0751 -0.3043
23148W        W39409   3.128  10.917   0.571 -0.3635 -0.1093  0.2606
23149W        W39410   0.515   1.106  15.803  0.1165 -0.0038 -0.1068
23150W        W39411   4.578  11.556  16.379  0.1279  0.0433 -0.0888
23151W        W39412   6.329  16.474  16.198 -0.3005 -0.2548  0.0448
23152W        W39413   2.286   6.454  14.079 -0.0219 -0.1465 -0.0788
23153W        W39414  16.433  10.996   0.648  0.0368 -0.0896  0.0485
23154W        W39415   9.577  16.821  15.639  0.2582  0.0950 -0.1383
23155W        W39416   6.933  11.976   0.801  0.1255 -0.1551 -0.3742
23156W        W39417   4.121   7.558  12.481 -0.1694 -0.0242 -0.1786
23157W        W39418   7.939  12.860  13.944  0.1737 -0.0628  0.2589
23158W        W39419  17.124   7.152   4.655  0.1067 -0.3758 -0.0861
23159W        W39420   5.410   1.900  12.640  0.2241  0.0382  0.1270
23160W        W39421   6.907   0.570   2.037  0.1885 -0.0270  0.0461
23161W        W39422   9.570   7.497  12.144  0.1379 -0.1091  0.0514
23162W        W39423   0.417  10.139  14.249 -0.0489  0.1365  0.3614
23163W        W39424   5.360   7.438   2.062 -0.1023  0.0218  0.2008
23164W        W39425   2.961   3.632  12.336  0.3115  0.0043 -0.0937
23165W        W39426  16.025   1.192   0.879 -0.2695 -0.1028  0.2460
23166W        W39427  12.922   1.252  13.432 -0.0882 -0.1159 -0.0681
23167W        W39428   5.099  17.275  13.496 -0.0797 -0.1741 -0.2769
23168W        W39429  17.738  12.585  13.331  0.0883  0.0413  0.0423
23169W        W39430  14.613  11.552   0.935 -0.0967  0.0337 -0.1480
23170W        W39431   8.571   3.479   1.699  0.0749  0.3049 -0.0028
23171W        W39432   8.755  17.294  16.479 -0.4555  0.1187  0.2352
23172W        W39433   2.637  10.108   5.817  0.2362 -0.0340 -0.3146
23173W        W39434   8.283   3.591   2.096 -0.2062  0.3119 -0.3465
23174W        W39435  16.113  12.506   0.737  0.1702 -0.0429  0.2018
23175W        W39436   3.465   0.598  14.772 -0.1646  0.3305  0.1109
23176W        W39437   6.600  13.097   4.756  0.1159 -0.0285  0.0678
23177W        W39438  12.947   4.330  13.125 -0.0265  0.1062 -0.3062
23178W        W39439  11.170  10.371  12.721 -0.0979 -0.2274  0.0147
23179W        W39440  11.316  14.014  16.731  0.1257  0.1750  0.1089
23180W        W39441   0.223   3.175   4.963 -0.3018  0.0909  0.0281
23181W        W39442  16.140   2.424  15.153  0.0311 -0.1152 -0.0065
23182W        W39443   8.015   9.815  11.774  0.1883  0.1316 -0.2749
23183W        W39444   1.874  17.344  16.885 -0.2640  0.1588  0.1590
23184W        W39445  15.394   7.098   1.165 -0.0089 -0.3541 -0.0218
23185W        W39446  15.727   2.152   4.718 -0.1781  0.0398  0.0148
23186W        W39447   4.935   9.243  12.362  0.0496  0.0542 -0.0945
23187W        W39448  17.706   4.343  13.487 -0.2061 -0.1293 -0.0119
23188W        W39449   6.014   2.884  14.692 -0.0049 -0.1065  0.4894
23189W        W39450   0.579   6.343  12.105 -0.3968 -0.1943  0.0618
23190W        W39451  16.360   7.236  15.518 -0.1537 -0.1348 -0.0779
23191W        W39452   1.328   3.333  12.758  0.0751  0.0044  0.0184
23192W        W39453   1.913   2.476   0.212  0.1281 -0.3156 -0.1133
23193W        W39454   3.029   3.154   3.528  0.0819 -0.0993  0.0432
23194W        W39455   8.898  12.696   1.755  0.0368  0.0931 -0.1913
23195W        W39456   3.372   1.814   3.604  0.0871 -0.0448 -0.1622
23196W        W39457   0.121  15.900   0.914 -0.1574 -0.2825 -0.0307
23197W        W39458   3.569  12.558  13.707  0.1093 -0.1032  0.1866
23198W        W39459   1.320   0.367  13.202 -0.3098  0.2442  0.3563
23199W        W39460  15.780   9.691  14.824  0.1239  0.1372 -0.0819
23200W        W39461   6.024   8.534  15.169  0.3012 -0.1813 -0.0858
23201W        W39462  10.856   3.086   1.489  0.0604 -0.3526  0.1441
23202W        W39463   9.655   7.398  13.164  0.4588 -0.0077 -0.1143
23203W        W39464  11.598   2.053   0.595  0.0793 -0.1142 -0.0247
23204W        W39465   2.539   1.994  15.739 -0.0510 -0.0036 -0.2385
23205W        W39466   6.543   2.733   1.046 -0.0145 -0.4931 -0.1591
23206W        W39467   1.527   3.660   4.653  0.1582  0.0086  0.4006
23207W        W39468  12.158   6.134  14.015  0.2670  0.1906 -0.1154
23208W        W39469   5.436  12.555  16.068 -0.2731  0.0044  0.2467
23209W        W39470   1.907   3.487  14.190  0.0374 -0.1951 -0.1185
23210W        W39471   9.930   5.109   1.580 -0.0059  0.4947  0.3518
23211W        W39472   6.757   2.561   5.852  0.0158 -0.0320  0.1031
23212W        W39473  14.428  10.757   1.202  0.0402  0.3167  0.3829
23213W        W39474   2.191   5.902   1.679 -0.0065 -0.1664  0.1409
23214W        W39475   8.940   0.048   5.687 -0.3174  0.2636  0.1532
23215W        W39476  16.959  15.522   0.040 -0.2609 -0.1580  0.2654
23216W        W39477  10.082   7.779   0.738 -0.0542 -0.2002  0.3408
23217W        W39478  15.156  13.041   3.877 -0.2910 -0.1349 -0.0372
23218W        W39479  11.012   7.473  14.204  0.5786  0.0295  0.0126
23219W        W39480  13.414   5.754   3.301 -0.0782  0.0430 -0.1060
23220W        W39481  12.434  13.864   1.529  0.0851  0.1240 -0.1334
23221W        W39482  13.096   0.903   0.978 -0.1988 -0.2044  0.0793
23222W        W39483  16.564  16.922   6.551 -0.0230  0.2333 -0.2361
23223W        W39484  14.789  15.489   5.167 -0.0826 -0.0967 -0.1559
23224W        W39485   5.578  10.228   0.980  0.2401  0.1136 -0.2237
23225W        W39486  11.423  12.020   5.684 -0.1958 -0.0890  0.0464
23226W        W39487  17.166   0.529   4.922  0.0427 -0.1255 -0.0430
23227W        W39488  16.807   4.795  14.636 -0.1845  0.4611 -0.0198
23228W        W39489  14.440  15.946   3.451 -0.1552  0.1989  0.0506
23229W        W39490   6.886   1.725  11.429 -0.1050  0.1254 -0.2015
23230W        W39491   6.846  14.275  13.379  0.0155 -0.0414 -0.0555
23231W        W39492   3.503  13.742   0.356  0.0803 -0.1171 -0.2731
23232W        W39493  13.110   7.646   4.721 -0.1608  0.1644 -0.1609
23233W        W39494   8.676  17.794   4.601 -0.0956  0.1988  0.1101
23234W        W39495   7.607  16.450  12.704  0.3598 -0.0953  0.0197
23235W        W39496  11.160   1.062   3.845  0.0879  0.1975 -0.1277
23236W        W39497   0.315   8.647   2.344 -0.0233  0.0048 -0.0721
23237W        W39498   4.407   9.722   2.314 -0.1561 -0.4495 -0.1774
23238W        W39499  13.237   4.629  16.926 -0.3416 -0.0052 -0.0587
23239W        W39500   9.884  14.642  16.566 -0.0144  0.1553 -0.0349
23240W        W39501  12.765   4.495   3.090 -0.2990  0.1634 -0.4044
23241W        W39502   5.286  13.463  12.032  0.0913 -0.2558 -0.0520
23242W        W39503   6.076   1.813  13.349 -0.0999  0.2501 -0.1242
23243W        W39504  13.735   9.514   1.969  0.2594  0.0749  0.0666
23244W        W39505   7.289  16.648  11.839 -0.1881  0.3168  0.0487
23245W        W39506   2.901   4.487   3.971  0.0500 -0.0223 -0.0657
23246W        W39507  12.094  11.587  14.946 -0.0825  0.3135  0.1936
23247W        W39508   9.599   2.624  12.079  0.1157 -0.1004 -0.1805
23248W        W39509   0.711  16.409  15.419  0.3581  0.0306 -0.0669
23249W        W39510  11.448   1.933  16.717  0.0776  0.2769  0.1666
23250W        W39511   5.478   6.337   0.254 -0.1293 -0.1438 -0.0398
23251W        W39512   0.059  17.150  14.923  0.1462 -0.0407  0.1017
23252W        W39513   3.974   3.857  15.936  0.1840 -0.0824 -0.2096
23253W        W39514  12.528  10.650  16.288  0.1096  0.1335 -0.2313
23254W        W39515   7.021   6.710   3.514  0.2289  0.0360  0.0239
23255W        W39516   0.107   3.450   6.425  0.2715  0.0200  0.4297
23256W        W39517  16.024   2.146   2.531  0.5583  0.0614  0.3078
23257W        W39518  10.714  15.993   2.125  0.0291 -0.2309  0.3875
23258W        W39519   8.654  16.901   2.656 -0.0014  0.0867 -0.0574
23259W        W39520   3.632   3.411  13.684 -0.1243  0.1358  0.0321
23260W        W39521   7.655  16.386  16.377  0.0761 -0.0022 -0.3900
23261W        W39522   7.668  13.433  12.900  0.0053  0.1123 -0.4349
23262W        W39523  12.056   8.712  12.926  0.1029 -0.1052 -0.0440
23263W        W39524  11.709  17.410   4.903  0.1596  0.1790 -0.0946
23264W        W39525  15.521   8.763   1.226  0.2222 -0.0661 -0.5262
23265W        W39526  10.825   9.163   0.604  0.0764  0.1158  0.1355
23266W        W39527  14.149  10.993  15.266 -0.1756 -0.3319 -0.0661
23267W        W39528   4.657  14.535   1.784  0.0742 -0.3768  0.1719
23268W        W39529   5.039   0.916   0.689 -0.0239  0.0446  0.1762
23269W        W39530  12.156   7.327   5.110  0.0297 -0.2124 -0.1378
23270W        W39531  11.070   9.294   4.833 -0.1069 -0.0108 -0.0504
23271W        W39532  16.360  17.360   6.707 -0.1468 -0.2746  0.2677
23272W        W39533   0.950  11.095  12.974 -0.2334  0.3950  0.0035
23273W        W39534  15.698   3.089  12.102 -0.1061 -0.0155 -0.1329
23274W        W39535  13.410  12.583  15.258  0.2395  0.0680  0.2608
23275W        W39536   7.980   9.568  15.917 -0.0915  0.0348 -0.0287
23276W        W39537   5.684   9.774  12.776  0.0624 -0.0277 -0.3793
23277W        W39538  12.156  13.286  13.203 -0.3232 -0.0330 -0.3205
23278W        W39539  16.627  11.081   2.375 -0.1598 -0.1177  0.0458
23279W        W39540  17.099  13.290  13.356  0.0200  0.1774 -0.2580
23280W        W39541  16.166  15.837  15.231  0.2494 -0.1223 -0.1260
23281W        W39542   8.273   3.772   1.319  0.1024 -0.1515 -0.2193
23282W        W39543   4.279   1.149   4.743 -0.3170  0.0014  0.2361
23283W        W39544  11.153   9.882  14.961  0.0727 -0.1062  0.4201
23284W        W39545  10.604   5.327   5.492 -0.0444 -0.0360 -0.1289
23285W        W39546  12.496  14.245  16.005 -0.0971 -0.0464  0.3225
23286W        W39547  16.550  16.783   0.493  0.1624  0.0399 -0.0299
23287W        W39548   3.415  11.862  15.410 -0.1829  0.2926  0.0733
23288W        W39549  12.070   8.234   3.603  0.0434 -0.0509  0.0208
23289W        W39550  12.710   4.921  13.987 -0.1125  0.0059  0.0027
23290W        W39551   0.858  10.220   3.636 -0.2731 -0.0414 -0.0706
23291W        W39552  17.271   1.173   0.922 -0.0979 -0.0127 -0.3151
23292W        W39553  11.600  15.440   5.861 -0.0667 -0.3037 -0.1122
23293W        W39554   8.591   4.013   3.067 -0.1821 -0.0160  0.1408
23294W        W39555  11.523  13.581  16.944  0.2434 -0.1235 -0.1076
23295W        W39556  11.012   3.425   3.014 -0.0910  0.0219  0.1164
23296W        W39557   9.584  14.967   2.769 -0.1369  0.1871 -0.1694
23297W        W39558   6.714  13.503   3.597 -0.2071  0.2086  0.1924
23298W        W39559  17.779  10.899   2.670 -0.0763 -0.1621  0.0862
23299W        W39560  16.182  11.352  12.230 -0.1722  0.1165 -0.3165
23300W        W39561   5.276  11.992   2.917 -0.0225  0.0126  0.2349
23301W        W39562   6.100   9.409   2.723 -0.0935  0.0392 -0.2531
23302W        W39563   1.228   9.268  15.025  0.2258  0.1336  0.0781
23303W        W39564   6.599  13.150   1.641  0.0216 -0.2712 -0.0898
23304W        W39565   2.769   9.381   0.645 -0.0098  0.2966  0.1819
23305W        W39566  10.761   1.491  15.756 -0.3590 -0.0053  0.0353
23306W        W39567  10.096   9.796  11.371  0.2359 -0.2910 -0.0755
23307W        W39568   1.664  17.505  13.772 -0.1775 -0.2045 -0.0308
23308W        W39569   9.153   0.080   1.945  0.1178 -0.0536  0.0271
23309W        W39570   9.977   1.183   1.295 -0.1828 -0.0761  0.1421
23310W        W39571  14.009   8.424  16.944  0.2200 -0.0879  0.0410
23311W        W39572   6.047   1.153  12.408  0.4091 -0.1790  0.2434
23312W        W39573   9.860   7.836   6.026 -0.3251 -0.0724  0.0193
23313W        W39574   7.886  16.493  12.284  0.0283  0.0300  0.4143
23314W        W39575   8.926   2.884  15.245  0.0357 -0.0284 -0.0708
23315W        W39576   0.565   2.162   0.158 -0.1298  0.0737  0.1833
23316W        W39577  11.366   2.759   6.328 -0.1027 -0.0278 -0.1267
23317W        W39578   0.473  12.948   1.114 -0.0738 -0.2613  0.2114
23318W        W39579   9.162  15.741   0.132 -0.0275  0.0242  0.0492
23319W        W39580   5.428  16.992   1.629 -0.2086  0.2359  0.3379
23320W        W39581  12.457   9.328  15.314 -0.2938 -0.0521  0.2400
23321W        W39582  15.264   8.784  14.912  0.2098  0.4467 -0.1705
23322W        W39583  14.233   0.733   5.496 -0.0554  0.2017  0.0177
23323W        W39584  11.421  16.099   4.453 -0.0488 -0.1387 -0.0445
23324W        W39585  10.488   7.262  11.995 -0.0357  0.1470  0.2182
23325W        W39586  16.977   0.733   6.227 -0.4704 -0.3082 -0.2381
23326W        W39587  12.069   2.644   4.860 -0.1542 -0.1423 -0.1271
23327W        W39588  14.269   9.469   3.045 -0.1354 -0.0520 -0.2707
23328W        W39589  14.327  16.263  12.945  0.0171 -0.0823 -0.2215
23329W        W39590  17.477  12.097  16.591 -0.1436  0.1933 -0.0053
23330W        W39591   3.905  15.430  10.703  0.1195  0.0591 -0.2615
23331W        W39592   4.778  13.157   3.747 -0.2574  0.0291  0.0575
23332W        W39593  13.106  11.985  14.627  0.0250  0.3375 -0.1294
23333W        W39594  14.442   9.935  14.677 -0.0574  0.1828  0.0790
23334W        W39595   5.007   1.555  16.917 -0.0987 -0.2407  0.0641
23335W        W39596  10.186   0.848   0.950  0.1706 -0.4252 -0.2430
23336W        W39597   2.980   4.991  12.031  0.1467 -0.0718  0.0800
23337W        W39598   2.745  10.155  14.012 -0.1084  0.0545 -0.2417
23338W        W39599   6.311   5.356  11.465  0.1403 -0.1813  0.0969
23339W        W39600  12.579  12.530  15.441  0.2093  0.2312  0.0021
23340W        W39601   5.874  10.763  12.298  0.0402  0.2431 -0.0078
23341W        W39602  16.324   2.142  12.779  0.3416  0.0750  0.0205
23342W        W39603   5.520  15.027   4.940  0.1512  0.1090  0.2133
23343W        W39604   6.810  17.036   0.294 -0.3562  0.3120  0.1772
23344W        W39605   6.696   7.431  12.265  0.1510 -0.0152  0.1912
23345W        W39606  11.023  13.528  14.368 -0.1005 -0.3703 -0.0964
23346W        W39607  14.492   6.635  11.377  0.2121 -0.0038 -0.1861
23347W        W39608   7.744   2.701   3.853 -0.0703 -0.1053 -0.3278
23348W        W39609  10.220  13.582  12.316 -0.1638  0.0365 -0.1220
23349W        W39610   8.314  10.659  15.880 -0.0509 -0.0284  0.0049
23350W        W39611  14.674   2.367   4.685 -0.1808 -0.1536  0.1391
23351W        W39612   7.642   8.983   2.109 -0.0002  0.1043 -0.1775
23352W        W39613   1.176  17.021   5.003 -0.0325  0.2318 -0.1277
23353W        W39614  17.057  11.752  15.917 -0.2454  0.3483  0.2607
23354W        W39615  11.693   9.653   2.931  0.0720 -0.0585 -0.0355
23355W        W39616   5.353   8.021  15.738 -0.2196  0.2521  0.0823
23356W        W39617  16.155   4.310   3.905 -0.1715  0.1544  0.1174
23357W        W39618  16.314  13.483   5.944 -0.2157  0.1154 -0.3058
23358W        W39619   9.944   8.687   3.072  0.1790 -0.0033 -0.1595
23359W        W39620   4.027   5.821  16.459 -0.1923  0.2267 -0.0310
23360W        W39621   2.576  11.464   4.472  0.1287  0.1640  0.3056
23361W        W39622  12.544   5.049   4.377  0.3873 -0.0672  0.2327
23362W        W39623   8.236   6.071   3.232 -0.1414  0.1370 -0.1167
23363W        W39624   2.094  10.431   0.565  0.2858 -0.0106 -0.3349
23364W        W39625  14.453  11.290   4.732  0.2923  0.0753 -0.2479
23365W        W39626   1.708  16.412  12.791  0.2262  0.1397  0.2657
23366W        W39627   9.639   8.622  12.725  0.0531  0.0248 -0.1042
23367W        W39628  14.652   3.354  15.830  0.0210  0.2319  0.1427
23368W        W39629   2.778   1.846   1.983 -0.2889  0.3076  0.1838
23369W        W39630   2.616   2.583   5.993 -0.0936 -0.0049 -0.0877
23370W        W39631   2.913   9.716   5.802 -0.1139 -0.2860 -0.4586
23371W        W39632  17.688   5.414   1.188  0.0438 -0.3241  0.0522
23372W        W39633  13.044   3.365   3.529  0.2462 -0.0775 -0.1387
23373W        W39634   9.157   9.235   3.280 -0.0844  0.0350  0.0719
23374W        W39635   2.025   4.495  15.067  0.0020 -0.2899 -0.1455
23375W        W39636   0.841   1.598   3.861  0.1033  0.1151  0.2780
23376W        W39637   1.624   7.981   1.734 -0.0469  0.1841  0.0268
23377W        W39638  15.734  15.651   0.699  0.2739 -0.0686  0.0235
23378W        W39639   8.111  17.434   1.327 -0.1121  0.1369  0.5418
23379W        W39640  10.412   2.951   1.739 -0.2266 -0.0025  0.0955
23380W        W39641  17.720  15.518  16.773 -0.1643 -0.0510  0.0552
23381W        W39642   9.340   7.566   4.892  0.1200 -0.0464 -0.0460
23382W        W39643   0.850   9.261   3.571 -0.4420 -0.1708  0.2723
23383W        W39644  16.786   3.007  15.299 -0.2192  0.1476 -0.1103
23384W        W39645  16.345  10.187   5.814 -0.2535 -0.6617  0.1391
23385W        W39646   8.799  14.803   0.181 -0.3287 -0.0918 -0.2547
23386W        W39647   5.676  12.538   4.581 -0.0243 -0.1010  0.2356
23387W        W39648   4.233   7.626  15.382 -0.0679  0.0418 -0.1974
23388W        W39649   6.750  11.160   0.383  0.0895  0.0251 -0.0771
23389W        W39650   4.775   5.621   3.892 -0.0437  0.2200 -0.0393
23390W        W39651  11.258   2.824  12.995  0.4651  0.1040  0.1660
23391W        W39652  10.556   9.918   4.077 -0.1200  0.1473 -0.0716
23392W        W39653  17.708   5.682  15.864  0.1257 -0.0833  0.0512
23393W        W39654   6.171   9.740   1.810 -0.0564 -0.1489 -0.3476
23394W        W39655  17.686  17.778  16.197  0.2687 -0.0786 -0.1507
23395W        W39656  16.459   9.898   2.567 -0.1185  0.4125  0.1387
23396W        W39657   8.783   3.183  14.360  0.3470  0.0104 -0.1377
23397W        W39658   7.383   1.013   0.809 -0.3981 -0.1356 -0.1092
23398W        W39659  16.106   2.549   1.006 -0.0139 -0.2733  0.0044
23399W        W39660   2.999   2.959   0.299 -0.0258  0.0038  0.0703
23400W        W39661  11.631   5.635  16.280  0.2459  0.0002 -0.2954
23401W        W39662   0.658   9.583  12.497 -0.0905  0.2532  0.0026
23402W        W39663   9.698   9.683  14.434 -0.0149  0.0146  0.0896
23403W        W39664   9.089  12.951  11.656 -0.0463  0.0668 -0.4136
23404W        W39665  12.686   7.689  13.805  0.0833  0.0301  0.0056
23405W        W39666   4.022  10.984   0.036  0.0337 -0.2537  0.0282
23406W        W39667  12.540  16.147  12.811  0.1127  0.0610  0.0938
23407W        W39668  16.969   3.482   1.860 -0.1033  0.0061  0.1861
23408W        W39669   7.931   0.183  16.934  0.0912 -0.0356  0.0896
23409W        W39670  10.590   3.709  12.479  0.1807  0.1283 -0.0297
23410W        W39671   2.602   6.667   4.739  0.0543  0.2870  0.1274
23411W        W39672   4.768  14.054   2.357 -0.3380  0.0718 -0.3130
23412W        W39673   4.071  14.048  12.721 -0.4588  0.1401 -0.0198
23413W        W39674  11.655  10.493  12.609 -0.3096 -0.1230 -0.0695
23414W        W39675   4.993   8.833   5.072  0.2030 -0.0501  0.1960
23415W        W39676   6.073   6.224  14.977  0.1391  0.1598 -0.0752
23416W        W39677   6.081  17.350  16.076 -0.1751 -0.0555  0.0658
23417W        W39678  16.469  11.137  16.210  0.1115  0.3040 -0.2133
23418W        W39679  10.905   8.570  16.789 -0.2516 -0.1467  0.0582
23419W        W39680  14.484   8.678  13.002  0.2591  0.0747  0.0082
23420W        W39681   6.768  13.628  16.306 -0.0372  0.1162 -0.0574
23421W        W39682   8.327   6.760  16.420 -0.0197 -0.1359 -0.1002
23422W        W39683  15.135  15.578   2.369  0.0886  0.0920 -0.3413
23423W        W39684   3.772  12.564   2.200  0.1724  0.0625  0.1247
23424W        W39685  16.113   4.975  15.421  0.1437  0.0681 -0.1302
23425W        W39686   0.081  17.689   1.432 -0.0524  0.1503 -0.2256
23426W        W39687  15.691  15.894  16.617  0.1097 -0.2276  0.0631
23427W        W39688   3.049  13.697   0.424  0.2208  0.0501 -0.0464
23428W        W39689   7.817   8.514  14.034  0.1390 -0.0199 -0.1233
23429W        W39690  14.021   4.499   1.232 -0.0801 -0.0898  0.0482
23430W        W39691   9.106   7.276   1.250  0.0011  0.1128  0.0560
23431W        W39692   3.136   0.892  11.504  0.0304 -0.0733  0.1386
23432W        W39693  16.294   9.068  12.787  0.1916 -0.2714 -0.1592
23433W        W39694   7.234   3.525   1.058 -0.0090 -0.0879 -0.2519
23434W        W39695  14.361   2.846   2.397 -0.1085  0.2240 -0.0883
23435W        W39696   3.104   2.672   6.018 -0.1592  0.1930 -0.1503
23436W        W39697   5.447   6.351   2.035 -0.1379  0.1279  0.1037
23437W        W39698   0.572  16.863   4.322 -0.1310  0.1688 -0.2490
23438W        W39699   6.857   2.030   0.088 -0.6169 -0.3471 -0.3296
23439W        W39700  15.485   6.602   5.084  0.0881  0.0517  0.2140
23440W        W39701  14.122  17.428  14.573 -0.0982  0.2869 -0.1430
23441W        W39702  14.027  15.301  14.095 -0.2215  0.1353  0.0560
23442W        W39703   0.438   3.832   3.778 -0.0790 -0.0103 -0.0199
23443W        W39704  12.923  16.571  16.315 -0.3373  0.0716  0.1032
23444W        W39705   9.323  14.384   4.879 -0.1094 -0.1660 -0.1110
23445W        W39706  13.493  17.835  12.888 -0.1361 -0.1550  0.0988
23446W        W39707   8.617   6.853   4.754  0.0451  0.0085 -0.0265
23447W        W39708   7.892   6.495  12.604  0.0276  0.1589  0.1322
23448W        W39709   5.605  13.023   2.029 -0.1714  0.0680  0.1766
23449W        W39710   8.492  13.427   0.091  0.1771 -0.1101 -0.1457
23450W        W39711   4.787   5.538   6.329 -0.0586 -0.0590 -0.0883
23451W        W39712  10.859   5.239   2.297 -0.0182  0.1187  0.0020
23452W        W39713   8.745   2.478   3.579  0.0516  0.0807  0.0556
23453W        W39714  13.510   5.937   0.007  0.4843  0.0685  0.1495
23454W        W39715   4.318   8.687  16.739  0.0051 -0.1343 -0.4556
23455W        W39716   0.181  12.340  15.205  0.2012  0.0207 -0.1290
23456W        W39717   6.491   8.460   5.493 -0.0324 -0.1790 -0.1643
23457W        W39718  10.636  15.038  12.040  0.0229  0.1799  0.1141
23458W        W39719  14.707  14.868   3.854 -0.0437 -0.1201  0.2192
23459W        W39720   3.557  10.968   6.327 -0.0942 -0.0234  0.3713
23460W        W39721  13.216   8.377   3.343  0.2448  0.2266  0.0549
23461W        W39722  10.621   1.926   0.793 -0.0566 -0.2251 -0.0498
23462W        W39723  16.643  15.586   4.420 -0.2252  0.0213  0.2123
23463W        W39724  10.159  13.663   1.105  0.4331  0.3298 -0.0492
23464W        W39725  16.749   0.065   4.402  0.0462  0.0745 -0.0924
23465W        W39726   8.469  11.001  15.522 -0.0241 -0.4852  0.0034
23466W        W39727   3.263  13.911  11.596 -0.3297 -0.1033 -0.1427
23467W        W39728   0.197  12.600   4.283 -0.0505 -0.2558  0.4689
23468W        W39729  17.472   9.995  14.527  0.0675  0.1920 -0.1542
23469W        W39730   4.548   2.503   5.127  0.1596 -0.1258  0.0939
23470W        W39731   3.120  11.485  14.788  0.2373  0.1596  0.0025
23471W        W39732  14.330   5.514   5.957 -0.0151 -0.1500 -0.0960
23472W        W39733  14.361   5.409  12.679  0.0793  0.1242  0.1244
23473W        W39734  16.767   2.867  12.833  0.0081  0.0847  0.0492
23474W        W39735   2.610   4.949  14.865  0.2819 -0.1214  0.1683
23475W        W39736   3.744  10.171   2.802  0.0475  0.1721  0.1384
23476W        W39737  12.442  13.510  13.764 -0.1674  0.2397  0.2010
23477W        W39738  13.500   0.804   1.317  0.1854  0.0777 -0.2219
23478W        W39739   9.767  10.532   2.090  0.1049  0.2482  0.0690
23479W        W39740   0.398   7.970   5.682 -0.0535  0.1150  0.0788
23480W        W39741   3.426  10.725  14.928  0.2207 -0.0966  0.2886
23481W        W39742  11.462   9.459   4.287 -0.0313 -0.2960  0.1356
23482W        W39743  13.410  10.130   0.498 -0.1247 -0.0773 -0.3227
23483W        W39744   1.804  10.334   3.945 -0.0751 -0.0350 -0.1177
23484W        W39745  14.846   2.644   6.479  0.1226 -0.3133 -0.1391
23485W        W39746   0.411   7.691  15.547  0.3217 -0.1929 -0.2890
23486W        W39747   1.778   6.411   2.803  0.0636 -0.2306 -0.1927
23487W        W39748   5.505   1.490  15.744  0.0742  0.0236 -0.1770
23488W        W39749   6.070  13.820   1.749 -0.2987 -0.1002 -0.0479
23489W        W39750  13.116   1.095  12.622 -0.1546 -0.0814  0.1388
23490W        W39751   8.567   3.978  13.222  0.0099 -0.0525 -0.0863
23491W        W39752   1.802   3.970  12.322  0.2309  0.1739 -0.2711
23492W        W39753  10.922  15.176   2.524 -0.1863  0.0775  0.1505
23493W        W39754   6.221   3.212   2.581  0.0153 -0.0063  0.1190
23494W        W39755  16.625   9.483  11.881  0.1552 -0.1959 -0.4140
23495W        W39756  16.551  14.575  10.747 -0.1428  0.0261  0.0800
23496W        W39757  17.659   6.800  11.935  0.1347 -0.0744 -0.2797
23497W        W39758   7.588   4.637  15.699  0.1514 -0.2683 -0.0739
23498W        W39759  12.597  14.307   1.678  0.1204  0.0411  0.1052
23499W        W39760  13.980  12.586   1.610  0.3371  0.0270  0.0404
23500W        W39761  14.155   6.535   1.976 -0.2678  0.2388  0.1870
23501W        W39762  12.474  11.555   4.957  0.1352  0.0024 -0.1194
23502W        W39763  10.432  17.153  11.222 -0.0726  0.3171  0.0892
23503W        W39764   6.344  13.497  15.477 -0.3712  0.0822  0.1198
23504W        W39765  13.792  15.630  12.325  0.1062 -0.2601 -0.1349
23505W        W39766  17.743  11.615  12.055 -0.1516  0.0548  0.0284
23506W        W39767  11.086   3.647  12.445  0.0847 -0.1320 -0.0359
23507W        W39768   3.668   7.704   3.714  0.3121  0.0858 -0.1788
23508W        W39769   0.037   6.334  11.958  0.0867  0.1550  0.0995
23509W        W39770   5.677  17.607   3.443  0.0624  0.0034  0.1865
23510W        W39771   7.925  14.523  12.786  0.0158  0.0916 -0.1516
23511W        W39772  11.052   8.867   2.777  0.0476  0.0585 -0.2518
23512W        W39773  13.476  10.771  12.784  0.0522 -0.0673  0.1332
23513W        W39774   5.548  17.743   4.915 -0.3816  0.3514 -0.2004
23514W        W39775  16.936   3.383   4.313  0.1349  0.1111  0.1252
23515W        W39776   4.401   0.299  15.090 -0.2249  0.0039 -0.1420
23516W        W39777  12.525   4.042   4.384  0.2898 -0.0371 -0.1014
23517W        W39778   8.610  11.532   5.448  0.1649  0.0438 -0.1820
23518W        W39779  12.244  15.862   5.159 -0.1185  0.0221 -0.1441
23519W        W39780   2.607  16.250   1.101 -0.1026  0.0757 -0.0077
23520W        W39781   6.948   0.006   4.775  0.3692  0.0054  0.1514
23521W        W39782   1.336   5.172   1.495 -0.1230 -0.0663 -0.3844
23522W        W39783   9.709  15.493   3.555  0.0798  0.3565 -0.2550
23523W        W39784   0.115   1.222   3.958  0.4613  0.1692 -0.3386
23524W        W39785   0.101  13.503  13.068 -0.1557 -0.1981  0.2501
23525W        W39786  17.645  11.105  12.163  0.0634 -0.1925 -0.1064
23526W        W39787   1.377  16.524   4.183  0.0189  0.1317  0.0967
23527W        W39788   9.073   4.921  12.242  0.0919 -0.0135 -0.3482
23528W        W39789   4.372   9.506   0.951 -0.2720  0.0494 -0.1493
23529W        W39790   2.969   6.004   2.069  0.1520 -0.2874 -0.2459
23530W        W39791  13.421  16.636  14.633 -0.4582 -0.0103 -0.3545
23531W        W39792   8.157  12.189   1.140  0.1590 -0.2418  0.1813
23532W        W39793  14.717   6.123   5.313  0.1756 -0.1148  0.0494
23533W        W39794   1.402  10.237  14.999 -0.1370  0.0565 -0.0817
23534W        W39795  16.262   3.513   5.914  0.0663  0.0813  0.1091
23535W        W39796   4.394   3.422   2.343  0.2295 -0.1591  0.1977
23536W        W39797   1.959  10.466   1.560  0.0378  0.0222  0.0117
23537W        W39798   0.013  10.455   0.318  0.0598  0.0058 -0.0783
23538W        W39799   3.605   5.384   2.078 -0.0856  0.1162  0.1344
23539W        W39800   5.585   5.002   0.546 -0.2242  0.0465  0.2973
23540W        W39801   9.592   3.926   5.364 -0.0281  0.2349 -0.0852
23541W        W39802  11.149   1.535   0.315  0.0274  0.0210  0.0202
23542W        W39803  17.153  16.910   3.040  0.3717 -0.1013  0.0568
23543W        W39804  10.091  16.880  15.178  0.0798 -0.1582  0.1499
23544W        W39805   0.252   1.802   3.238 -0.2751 -0.1561 -0.1403
23545W        W39806  11.830   2.872  16.596 -0.0046  0.1963 -0.1916
23546W        W39807  13.866  16.855   4.784 -0.0375  0.2894  0.0976
23547W        W39808   3.488  14.628  15.621  0.1178 -0.0346  0.0353
23548W        W39809  13.455   9.327   5.364 -0.2338  0.0170  0.4397
23549W        W39810  14.806  14.422   5.505  0.0010  0.3436 -0.1645
23550W        W39811  17.158   6.315  14.068 -0.0890 -0.0607  0.0153
23551W        W39812  13.159   2.090  11.860 -0.0628 -0.1869 -0.2784
23552W        W39813  16.896  14.633   2.925 -0.0549 -0.0188 -0.0325
23553W        W39814  13.206   7.465   3.355  0.0273 -0.2454  0.2151
23554W        W39815   5.289  15.776   3.927 -0.1913  0.1766 -0.0734
23555W        W39816  10.809  13.309  11.781  0.3602 -0.1132  0.0177
23556W        W39817   0.100   9.910  13.153 -0.1276 -0.0173 -0.0845
23557W        W39818  13.470  17.520   2.240 -0.0814  0.5689  0.0647
23558W        W39819  17.192   9.127   4.452 -0.3400 -0.0140  0.1028
23559W        W39820   1.382   2.931  15.544  0.0130 -0.0998  0.0187
23560W        W39821   3.967  12.342  15.738  0.1113 -0.0593  0.0182
23561W        W39822   9.003  13.448  11.770  0.3242  0.1508 -0.2161
23562W        W39823  11.886   4.267   5.234 -0.2199 -0.2014  0.2462
23563W        W39824   7.550  14.165   0.760  0.0723  0.0552  0.0483
23564W        W39825  13.890  17.551  12.706 -0.2489 -0.1944  0.2816
23565W        W39826  11.576  10.759  14.690  0.1094 -0.0313  0.1536
23566W        W39827   8.126  17.793  16.199  0.3089  0.0264  0.1901
23567W        W39828   1.898   2.731   2.356 -0.0530  0.0417 -0.1921
23568W        W39829  14.953  10.878   5.442  0.2468 -0.1220  0.1862
23569W        W39830   4.432   8.459   2.702 -0.0581 -0.0060 -0.1708
23570W        W39831   7.432   0.182  12.716 -0.2645  0.2580 -0.1552
23571W        W39832  16.996   2.971  15.824  0.1076 -0.1297  0.1234
23572W        W39833   2.386  14.083   3.386  0.1575 -0.1926  0.1764
23573W        W39834  14.296   8.963   6.213  0.0259  0.0577 -0.0819
23574W        W39835  14.081  13.759   4.442  0.2739 -0.2594  0.1367
23575W        W39836  17.129   8.568  12.474  0.0879  0.2173  0.4058
23576W        W39837  17.027  13.873  14.543  0.4458  0.0913 -0.0387
23577W        W39838  13.486  14.437   4.248 -0.2852 -0.3482 -0.2236
23578W        W39839  17.108   2.579  15.474 -0.1540  0.0038  0.0472
23579W        W39840   8.194  15.488   2.989  0.2260  0.2297 -0.3848
23580W        W39841  17.788   3.000  16.072 -0.0622  0.4581 -0.1087
23581W        W39842   5.136   3.476  13.047  0.1059 -0.1877  0.1456
23582W        W39843   0.452  13.529  12.736  0.1607  0.0303  0.0249
23583W        W39844  12.174   8.803   5.957 -0.1507  0.0146 -0.0191
23584W        W39845   7.697   9.563   2.321 -0.0472  0.1125 -0.0216
23585W        W39846   6.828   5.021  12.224  0.2517 -0.0185 -0.1752
23586W        W39847   0.175  14.846  13.000 -0.1005 -0.3414 -0.1944
23587W        W39848  15.434   7.015   3.305  0.2993 -0.1555  0.1073
23588W        W39849   3.992  15.147  15.063  0.0626  0.2429 -0.0080
23589W        W39850   4.569   0.645   4.628 -0.2700  0.0714 -0.5030
23590W        W39851  13.918   7.640   0.378  0.0482  0.1404  0.0614
23591W        W39852   0.461  12.279   5.341  0.1871  0.2062 -0.0490
23592W        W39853   9.310   5.393   2.961 -0.0400  0.0067  0.1629
23593W        W39854   0.411  13.974  15.672  0.0540 -0.2852 -0.0168
23594W        W39855   3.397   1.790   0.931  0.0254  0.0555 -0.1886
23595W        W39856   2.354   1.326   4.746  0.1841 -0.1860 -0.1077
23596W        W39857  17.630  10.623  14.939  0.0146  0.1851 -0.1011
23597W        W39858   7.409  13.541   0.804  0.3186 -0.1281 -0.0797
23598W        W39859   0.656  11.891  14.325  0.0335 -0.3561 -0.1130
23599W        W39860  17.604  11.718  13.289  0.1912 -0.0890 -0.0161
23600W        W39861  15.347  15.179  11.432  0.0570  0.3057 -0.3194
23601W        W39862  15.248  15.737  13.993  0.1770 -0.1688  0.3868
23602W        W39863   6.350   0.221   3.002 -0.0008  0.0195 -0.0561
23603W        W39864   9.913   6.984  12.894 -0.0205 -0.2750 -0.0070
23604W        W39865   8.018  11.296  16.471  0.4299  0.0584  0.3561
23605W        W39866   7.863   6.258   1.651 -0.1605  0.1435 -0.3931
23606W        W39867   6.408  12.292  16.888  0.1327 -0.2309  0.1248
23607W        W39868   7.308  12.787  14.244  0.1138  0.1535 -0.2428
23608W        W39869  14.179   6.090  16.545  0.2732  0.0651  0.3080
23609W        W39870  13.053   5.240   2.005  0.0842 -0.0782  0.1035
23610W        W39871  11.500  17.456  15.311  0.0172  0.1575 -0.0098
23611W        W39872   0.821   1.578   1.883  0.1338 -0.0226 -0.1152
23612W        W39873  14.940   7.959  13.637  0.1118  0.1453  0.0698
23613W        W39874   4.420  16.213   2.330 -0.2529  0.0136  0.2057
23614W        W39875   2.315   5.349   5.615 -0.2671  0.1048 -0.4169
23615W        W39876   9.900   1.746  13.146  0.5948 -0.0641 -0.2662
23616W        W39877   8.661  15.031  14.049 -0.1933 -0.2228  0.2927
23617W        W39878   9.177   7.685   0.799  0.0375  0.1591  0.0922
23618W        W39879  14.297  11.241   0.481  0.2110 -0.2938  0.0870
23619W        W39880   7.538   3.841  13.609 -0.0694  0.1809  0.1448
23620W        W39881   3.289  14.923   5.166 -0.1718 -0.1646  0.1136
23621W        W39882   2.511   0.966   2.960  0.0581  0.4674  0.1417
23622W        W39883  10.310  10.671  16.840  0.0857 -0.1448  0.1982
23623W        W39884  10.565   1.683   3.454 -0.3546  0.1172  0.3922
23624W        W39885   0.180  17.442   2.079  0.2511 -0.0920 -0.1222
23625W        W39886  14.421  17.017  12.677 -0.0747 -0.2952  0.1736
23626W        W39887  13.314  11.364   1.336  0.0852 -0.2527  0.0083
23627W        W39888  10.084   6.355  16.668 -0.0028 -0.3304 -0.1538
23628W        W39889  10.693  17.238   1.615  0.0487 -0.1202 -0.0156
23629W        W39890  12.200  14.819   5.627 -0.2037  0.0413 -0.4160
23630W        W39891   6.677  10.005  12.944  0.0689  0.1037 -0.2564
23631W        W39892  16.882   7.665   4.471  0.3362  0.1810  0.3218
23632W        W39893  12.932  15.863  14.575  0.0695  0.2038  0.0203
23633W        W39894  13.554   3.121   4.361 -0.4355 -0.0841 -0.1571
23634W        W39895  12.065  16.869  12.620 -0.1219  0.1171  0.1760
23635W        W39896  10.482   9.947   2.518 -0.1829 -0.0118  0.1085
23636W        W39897  14.743   5.315  13.931  0.0008 -0.0236  0.0796
23637W        W39898   9.223   8.957   0.718  0.0155  0.0168  0.1291
23638W        W39899   0.237   9.112   5.281 -0.3125  0.3281 -0.1987
23639W        W39900   7.949   2.595  14.602  0.1012  0.2569  0.1223
23640W        W39901  14.258   8.310   2.458  0.3148  0.0841 -0.0801
23641W        W39902   8.228  11.832   1.602 -0.1189  0.1072  0.3172
23642W        W39903   4.445   3.753  14.158 -0.1437  0.2363  0.1754
23643W        W39904   1.344   0.438  16.839 -0.2256  0.2342 -0.1888
23644W        W39905  15.366   0.617   5.893  0.1091 -0.1533  0.0712
23645W        W39906   4.702   7.049   1.707  0.1934 -0.2337  0.0440
23646W        W39907  12.621  15.360   3.607  0.1293 -0.0449 -0.1749
23647W        W39908   4.201  15.451   3.118  0.1578  0.1449  0.1842
23648W        W39909  15.218   3.317   0.224  0.1270  0.1539 -0.0926
23649W        W39910  14.975   5.292  15.277 -0.1515  0.1313  0.2628
23650W        W39911   0.011  12.189   5.194 -0.2258  0.2839  0.0080
23651W        W39912   6.244  11.293  13.076 -0.0223  0.2180 -0.0907
23652W        W39913   3.502   1.975   0.005 -0.2414  0.1829 -0.3862
23653W        W39914   5.414   4.561  14.027 -0.0663  0.3002 -0.0910
23654W        W39915  17.137   9.724  14.754 -0.2347  0.1313  0.0618
23655W        W39916  11.649  12.552  16.841  0.0980 -0.2248  0.0251
23656W        W39917   5.684  13.988   4.988 -0.1527  0.1533  0.2016
23657W        W39918   9.349   8.526   5.505 -0.0359 -0.1038 -0.1502
23658W        W39919   9.678   0.690  10.754 -0.2433 -0.0974 -0.1007
23659W        W39920   5.146  16.562   3.182 -0.0908  0.1355  0.0582
23660W        W39921  15.715   4.778   4.970  0.1237 -0.2777 -0.2139
23661W        W39922   6.202   3.709   0.640 -0.1490  0.4645  0.2684
23662W        W39923  15.283  11.794  16.219 -0.0321 -0.3399 -0.0391
23663W        W39924  11.395   9.599  15.232  0.1035  0.0917 -0.0722
23664W        W39925  11.866   1.346   3.290  0.1488  0.0956 -0.1047
23665W        W39926  14.866   8.480  13.911  0.0651 -0.2759 -0.2197
23666W        W39927   6.046  16.391   1.677 -0.0772  0.0632  0.1490
23667W        W39928  17.051  15.658   6.053 -0.0740  0.1746 -0.1060
23668W        W39929  15.042   7.387  13.432  0.2270 -0.2699 -0.0064
23669W        W39930   9.419   1.237   4.248 -0.0284  0.1369  0.0342
23670W        W39931   5.492  10.669   1.013  0.3508  0.0876 -0.0201
23671W        W39932  17.793   3.661   3.839 -0.0184  0.0650 -0.0643
23672W        W39933  16.049   7.757  12.023 -0.1178 -0.0465 -0.1163
23673W        W39934   2.241   9.345  15.971 -0.2489  0.1630  0.0737
23674W        W39935   3.129   7.523   4.950 -0.0060  0.1221  0.1752
23675W        W39936  17.309  10.417   0.383 -0.0200 -0.2146 -0.1008
23676W        W39937   4.167  15.676   0.441 -0.1748  0.2758  0.1997
23677W        W39938  10.373  14.022  15.773  0.0929 -0.1198  0.1159
23678W        W39939  11.667   8.993   3.104  0.0507 -0.0177  0.2076
23679W        W39940  11.548   2.920  14.376  0.1620 -0.0493 -0.1319
23680W        W39941   8.337  15.293  16.667  0.1738  0.1192  0.1364
23681W        W39942  10.138  12.357   5.542  0.2329  0.1022 -0.0332
23682W        W39943   7.079  15.133  12.902  0.2067 -0.0616  0.2813
23683W        W39944   7.538  17.241   2.593 -0.1407  0.2430  0.0130
23684W        W39945  17.022   1.070   5.860 -0.0030  0.1550  0.1789
23685W        W39946   2.958  15.587  15.788 -0.0920  0.1974 -0.0382
23686W        W39947  11.744  10.026  11.694  0.0982  0.0701 -0.0588
23687W        W39948  14.705   5.080   1.045  0.0700  0.0710 -0.2167
23688W        W39949   9.510  12.689   3.804 -0.0970  0.1826 -0.0726
23689W        W39950   6.001  17.621   4.820 -0.0479 -0.0187  0.0195
23690W        W39951   4.608   8.671  15.393 -0.3370 -0.0903  0.3168
23691W        W39952   1.588  14.118  14.800 -0.0856 -0.0988 -0.1221
23692W        W39953  14.167   7.406   2.794  0.1742 -0.0042  0.2503
23693W        W39954  17.359   0.316   0.249  0.1121 -0.1685  0.0940
23694W        W39955  14.292   7.877   4.982 -0.0938  0.1332  0.1450
23695W        W39956   7.989   0.912  16.186  0.3456 -0.0883 -0.1565
23696W        W39957   5.238   1.399   0.347  0.4464  0.2662 -0.0730
23697W        W39958   1.691  15.825   0.176  0.1199 -0.2355 -0.0732
23698W        W39959  13.684  10.900  15.057 -0.2242  0.0280  0.0359
23699W        W39960   3.494  10.286  13.384 -0.0449 -0.0396  0.3438
23700W        W39961  14.684   0.186   4.623  0.1002 -0.1142 -0.0866
23701W        W39962   5.952   8.181   1.918  0.1554 -0.0097  0.0709
23702W        W39963   1.904   1.696  13.100  0.2142 -0.1507 -0.0445
23703W        W39964   9.910  14.067   0.910 -0.2391 -0.0794 -0.1463
23704W        W39965  17.728  11.628  16.773  0.1932  0.1976  0.0660
23705W        W39966   8.946  14.096  13.132  0.0214  0.1097  0.0540
23706W        W39967  14.558   2.739   1.326  0.0119  0.1976  0.1382
23707W        W39968  13.764   1.605  15.031  0.1101  0.0405  0.2437
23708W        W39969  16.704   9.943  15.147  0.2068 -0.0372  0.2787
23709W        W39970   7.297   6.501   4.378  0.3544 -0.1608 -0.0732
23710W        W39971  16.081  17.358  12.849 -0.0902 -0.1507  0.0067
23711W        W39972  12.464  13.159   2.307  0.1622  0.1795 -0.4881
23712W        W39973   6.379  13.137   5.218  0.2129 -0.0949 -0.1683
23713W        W39974   1.312  15.117  14.044 -0.0602  0.2390 -0.2215
23714W        W39975  10.299   2.275   4.719  0.2374 -0.1443 -0.2071
23715W        W39976  15.861   7.588  15.549 -0.0824  0.0100 -0.1692
23716W        W39977  16.465   9.787   1.848  0.3809  0.2367 -0.1504
23717W        W39978   6.576   3.862   5.241  0.1412  0.0431  0.0608
23718W        W39979   9.761   8.635   4.401 -0.1091  0.1140 -0.0137
23719W        W39980   1.127  17.231  15.691  0.2601  0.0170  0.2414
23720W        W39981  15.310  11.772  13.700 -0.0228 -0.0675  0.1977
23721W        W39982   5.912  17.812  13.196  0.1321  0.0896  0.2900
23722W        W39983  15.046   2.179  15.435  0.0451  0.0338 -0.1694
23723W        W39984   4.385   4.658   0.221 -0.0077  0.0929 -0.0486
23724W        W39985   7.223  13.568   3.882 -0.0387 -0.1578  0.2536
23725W        W39986  15.356   2.885   0.825 -0.0983 -0.1902  0.3469
23726W        W39987   6.278   1.212  11.985 -0.2244 -0.0058  0.1254
23727W        W39988  16.256  14.760  12.977 -0.1539  0.2347  0.4061
23728W        W39989  13.057   4.761  12.295 -0.0923 -0.3846  0.0296
23729W        W39990   1.044  17.214   0.188 -0.0391 -0.0660 -0.1447
23730W        W39991   3.192   6.742   2.082 -0.2148  0.0392 -0.1461
23731W        W39992  16.008  17.070  15.980 -0.0009  0.0009  0.0283
23732W        W39993  17.673  15.042   0.660 -0.1503 -0.0707  0.1831
23733W        W39994   5.893  14.773   5.803 -0.1081  0.2046 -0.0823
23734W        W39995   0.851   0.226  12.991 -0.0944  0.2974  0.1673
23735W        W39996  12.589   1.239   0.832 -0.0185  0.0528 -0.0093
23736W        W39997  17.835   8.964  13.779  0.1796 -0.4390 -0.1168
23737W        W39998  14.444   0.686   2.972  0.2646 -0.0849  0.2824
23738W        W39999  10.541  15.642   1.564  0.0058 -0.0647  0.3556
23739W        W40000   7.658  10.613  13.121  0.1080  0.0388  0.0329
23740W        W40001   4.485  16.615   6.080 -0.3218 -0.1105  0.3289
23741W        W40002  14.425  10.943   2.699 -0.1537 -0.1602  0.0879
23742W        W40003  14.455   6.834   3.943 -0.1179  0.3729 -0.2005
23743W        W40004  10.035   3.256   3.006  0.2117 -0.0186 -0.2539
23744W        W40005  10.642  12.114  14.055 -0.1498  0.0649  0.0724
23745W        W40006  10.926   8.982  14.602  0.1143  0.1632 -0.1002
23746W        W40007   3.718   8.239  16.012  0.1624  0.0584 -0.0388
23747W        W40008   9.317  12.521  15.727 -0.0427  0.2339 -0.1785
23748W        W40009  10.853  14.687  11.796 -0.0225  0.0316  0.0955
23749W        W40010  10.769   4.502   4.130 -0.1939  0.0377  0.0462
23750W        W40011   8.822  15.499  12.688  0.0842 -0.2156  0.1346
23751W        W40012   7.326   7.445  11.590  0.3999  0.2714  0.0170
23752W        W40013   4.092   4.818  16.148 -0.1697  0.0360  0.1934
23753W        W40014   2.025   1.925   0.098  0.0563  0.0327  0.3282
23754W        W40015  16.041  10.988   3.671 -0.0713  0.0938  0.4063
23755W        W40016  15.534   0.476   2.548 -0.0850 -0.2138  0.2793
23756W        W40017   4.194  12.825  16.505 -0.0209  0.1834 -0.2727
23757W        W40018   8.920  15.482   5.311  0.0630  0.0378  0.0208
23758W        W40019  15.607   1.086   3.437 -0.0198  0.0354 -0.1066
23759W        W40020  15.602  12.945   4.682  0.1436 -0.0983  0.0069
23760W        W40021   0.544  11.767   5.493 -0.0579 -0.1568 -0.2324
23761W        W40022  12.150  15.041   1.808 -0.3434  0.1495  0.0734
23762W        W40023   4.558  11.655  16.925 -0.0827 -0.2233  0.5027
23763W        W40024   8.377   7.283  16.374  0.4013  0.0173 -0.0278
23764W        W40025  13.242   8.245  12.644 -0.0028 -0.1614 -0.1363
23765W        W40026   1.680  16.224   3.023 -0.1012 -0.2806 -0.0214
23766W        W40027   3.833  13.552   5.166 -0.1861 -0.1742  0.1052
23767W        W40028  11.618  15.438   3.966 -0.2444 -0.1749 -0.1610
23768W        W40029  10.959   1.550  16.837  0.1265  0.2740  0.0785
23769W        W40030  16.709   6.909   0.733  0.1545  0.0243  0.1059
23770W        W40031  17.486   9.552   3.965  0.1743 -0.2362 -0.3280
23771W        W40032   4.637   7.155   5.007 -0.1495 -0.0884 -0.2648
23772W        W40033   0.046   9.574   2.007  0.0475  0.0077 -0.0387
23773W        W40034   8.249   8.830  15.318 -0.1944 -0.1034 -0.0653
23774W        W40035   9.539  13.557   2.393 -0.0804 -0.0966  0.0262
23775W        W40036   9.973  11.921   1.248  0.1992  0.0597 -0.1892
23776W        W40037  11.869  14.528   2.732 -0.2564 -0.1075  0.0836
23777W        W40038  11.603   4.926   1.804 -0.0108  0.0719  0.1148
23778W        W40039   3.918   5.365  15.375 -0.2273 -0.1677 -0.1229
23779W        W40040   8.741  14.852  16.028  0.0013  0.2146  0.0515
23780W        W40041  14.867  14.569  14.730 -0.0235 -0.0915 -0.3363
23781W        W40042  15.982  14.205   3.266  0.0860  0.1929 -0.1812
23782W        W40043   4.297   9.372   5.482 -0.2777  0.0561 -0.2315
23783W        W40044  14.073   5.239  16.966  0.0878 -0.1518 -0.0102
23784W        W40045   2.286  12.202   4.460  0.0143 -0.2466  0.0012
23785W        W40046  10.993   2.906   3.287 -0.0194  0.3523 -0.0327
23786W        W40047  17.406   3.120   0.193  0.3784  0.0473  0.2200
23787W        W40048  14.497  10.013  13.327  0.0029 -0.3010 -0.0787
23788W        W40049   2.538  11.044   2.857 -0.1349  0.2730 -0.2020
23789W        W40050   8.963  11.025  15.735 -0.0487  0.0415 -0.3264
23790W        W40051  12.884   3.238   4.639 -0.0632  0.2332 -0.2917
23791W        W40052   5.056  11.645  14.007  0.0540 -0.1133 -0.2192
23792W        W40053   0.683  17.591   0.111 -0.1128  0.2342 -0.0485
23793W        W40054  17.393   9.662  15.884  0.0720  0.1053 -0.0624
23794W        W40055  12.572   2.806  12.674  0.0401 -0.0341 -0.0587
23795W        W40056  17.648   4.904   6.095  0.1154  0.1644  0.1023
23796W        W40057  12.592   2.573  16.164  0.1625 -0.1362  0.1545
23797W        W40058  11.340  17.106  13.447 -0.2289  0.0120  0.1794
23798W        W40059  13.561   5.693  13.445  0.3426  0.0277 -0.3719
23799W        W40060   8.737   6.156  13.849  0.0111 -0.1337  0.0622
23800W        W40061   8.175   7.483  16.781  0.1285  0.0230 -0.0227
23801W        W40062  12.688   7.554  13.205  0.0761 -0.1800 -0.0136
23802W        W40063  12.606   3.581   2.308 -0.0483 -0.4222 -0.1034
23803W        W40064   6.139   5.918  14.597  0.2254  0.2830  0.0600
23804W        W40065   1.652  16.107  15.200  0.3118  0.3124  0.3325
23805W        W40066   0.719   1.822   4.406  0.1771  0.4009 -0.2252
23806W        W40067  14.819   6.586  13.627  0.2113 -0.0225 -0.2223
23807W        W40068   1.055  12.573   0.260  0.1437  0.0801  0.0134
23808W        W40069   6.557   3.799   0.122 -0.1440 -0.2678  0.0470
23809W        W40070  10.187  12.870   3.832 -0.1453  0.0681 -0.0059
23810W        W40071   8.497  11.662  14.459  0.2481 -0.2261 -0.1849
23811W        W40072   2.662  10.297  13.272 -0.2402 -0.0775 -0.0423
23812W        W40073   6.434  17.138  12.483  0.1792 -0.2043 -0.0188
23813W        W40074   9.803   2.856   2.029  0.0806 -0.1461  0.0517
23814W        W40075   2.373   6.866   2.706 -0.1045 -0.2243 -0.0664
23815W        W40076   2.240   5.348  14.900 -0.0072  0.1092 -0.1332
23816W        W40077   1.908  13.155  14.157 -0.0710  0.1180 -0.0513
23817W        W40078   3.426  11.503   5.480 -0.0183 -0.0260  0.2284
23818W        W40079  16.013   9.657   2.755 -0.2129 -0.1526 -0.1994
23819W        W40080   4.795  17.543  16.949  0.0763 -0.2470  0.0669
23820W        W40081   2.100  16.784  15.629  0.1354 -0.0003 -0.3716
23821W        W40082  15.752   9.423   0.778 -0.2534 -0.0790  0.0329
23822W        W40083  14.136  11.992  13.334  0.0553  0.0290  0.3093
23823W        W40084  16.432   3.146  14.528 -0.2286 -0.0416 -0.1499
23824W        W40085   7.058  14.851   5.098 -0.0377  0.1120  0.2740
23825W        W40086  14.861   1.839  12.888  0.1059  0.0830 -0.0960
23826W        W40087  10.619   3.167  16.502 -0.3377  0.2097 -0.0667
23827W        W40088   5.103  13.130   1.420 -0.1792  0.3188 -0.0655
23828W        W40089  11.329  15.000   5.184  0.2649  0.1550 -0.1470
23829W        W40090   0.576   2.953   6.071  0.1250  0.0013 -0.2694
23830W        W40091  17.706   2.867  11.732  0.2415  0.3340 -0.1562
23831W        W40092  11.126   3.359   1.787 -0.0702  0.0267 -0.0571
23832W        W40093  13.550   0.429   2.776  0.0278  0.0122 -0.0453
23833W        W40094  10.707   5.173   2.874 -0.1648 -0.2412  0.3759
23834W        W40095  11.088   8.728   5.565  0.2768 -0.0474  0.1041
23835W        W40096   3.992  12.722   2.652  0.0564 -0.1044  0.1699
23836W        W40097   2.046  17.035   0.237  0.2132  0.1918  0.3021
23837W        W40098   1.938   2.542   0.793 -0.0240  0.1268 -0.0067
23838W        W40099  14.416   5.615  13.187 -0.1664  0.1655 -0.1022
23839W        W40100  12.436  11.031   4.985  0.3519  0.1785  0.2277
23840W        W40101   5.486   7.218  15.713 -0.0851 -0.1943  0.1166
23841W        W40102   6.056   3.698  12.483 -0.0633 -0.0485  0.1876
23842W        W40103  16.799   0.560   5.758 -0.0701  0.0359 -0.3303
23843W        W40104   0.217  10.034   4.633 -0.1408 -0.0696 -0.0481
23844W        W40105  15.921  17.545   3.796 -0.2252  0.0635  0.0644
23845W        W40106   5.753  14.213  12.511 -0.0084  0.0656  0.0089
23846W        W40107  16.139   2.533   4.705  0.0906 -0.3887  0.2383
23847W        W40108  17.505  10.922   4.794 -0.0982  0.0684 -0.2796
23848W        W40109  11.710   1.984  11.932 -0.1053 -0.2921 -0.0734
23849W        W40110   1.843  11.048   0.629  0.1137 -0.0835  0.0097
23850W        W40111   7.792   7.946  14.407 -0.0869  0.4207  0.0453
23851W        W40112   3.094   5.321  15.492 -0.1920  0.3312 -0.1429
23852W        W40113  16.029  10.030  13.241 -0.0598 -0.3244 -0.0426
23853W        W40114   8.382  10.750  14.282 -0.0159 -0.3611 -0.0362
23854W        W40115   6.578   7.211  14.115 -0.0826 -0.1049  0.0354
23855W        W40116  14.773   0.384   2.597 -0.0327  0.0043  0.0381
23856W        W40117   6.849  15.850  13.075 -0.0656  0.2067 -0.0178
23857W        W40118   5.050   3.235  16.500  0.0377 -0.0336 -0.2408
23858W        W40119  10.450   1.609  12.122 -0.0662 -0.1365 -0.3288
23859W        W40120   2.914   8.631  16.010  0.3047  0.0084  0.1385
23860W        W40121  17.849   2.980   0.350 -0.1328 -0.1241  0.2444
23861W        W40122  16.624   5.696   1.056  0.1385 -0.0580  0.2012
23862W        W40123   6.130  14.110  13.329 -0.2155 -0.4053 -0.0808
23863W        W40124  12.271  16.661  15.072 -0.1467 -0.1038  0.1053
23864W        W40125   2.346  13.368  14.901  0.1080 -0.3900  0.0754
23865W        W40126  13.575   9.420  16.606 -0.2001 -0.0836  0.1000
23866W        W40127   3.694   2.215   3.464 -0.0399  0.0841 -0.1699
23867W        W40128  16.025  11.056  14.781  0.0484 -0.0041  0.1633
23868W        W40129   3.054   8.528   3.313  0.0203  0.0362 -0.3503
23869W        W40130   6.194  14.867   3.853  0.2643  0.0956  0.0934
23870W        W40131   4.756  15.109   0.070  0.0315  0.2134  0.1281
23871W        W40132   5.446   1.868   2.263 -0.1425 -0.1332 -0.2110
23872W        W40133  10.769  14.719  15.273  0.0729  0.0284  0.0147
23873W        W40134  12.698   7.745  11.103  0.0676  0.0037  0.1335
23874W        W40135  10.810  10.155  15.782  0.0834  0.1482 -0.1297
23875W        W40136   5.394  16.025   4.547 -0.1548  0.0285 -0.3468
23876W        W40137   3.573  14.466  16.172 -0.2722  0.1592 -0.1546
23877W        W40138   9.719  17.557   3.686 -0.0391 -0.1904  0.3417
23878W        W40139   5.763   3.032   2.677 -0.0021  0.1698  0.0818
23879W        W40140   9.681   4.269   4.490  0.0919  0.0716 -0.0515
23880W        W40141   6.942  10.097   0.409  0.0895 -0.0102  0.1135
23881W        W40142   9.067   1.867   1.804  0.3080  0.0189 -0.1328
23882W        W40143   4.873  14.626   0.108 -0.1020  0.1176 -0.0253
23883W        W40144  13.492  17.617   3.137 -0.1405  0.0209 -0.0946
23884W        W40145   2.357   2.029   2.642 -0.2879 -0.1132  0.2299
23885W        W40146  16.213  12.918   2.159  0.1751  0.0624 -0.1032
23886W        W40147  17.743  11.732   4.003  0.0492 -0.1982  0.1292
23887W        W40148   1.190  16.846  12.091  0.0889 -0.0342  0.4139
23888W        W40149  10.190   2.665   3.791 -0.0816 -0.2571 -0.1664
23889W        W40150  12.431   8.681   4.728 -0.3532  0.3325  0.0189
23890W        W40151  10.835  17.655  12.119 -0.1695 -0.1234 -0.0357
23891W        W40152   3.395   4.757  11.922 -0.2225  0.0632 -0.1132
23892W        W40153   0.289  10.933  12.236 -0.2385 -0.1042 -0.3059
23893W        W40154  10.091   1.765   4.636  0.1161 -0.1537 -0.0011
23894W        W40155   5.318  16.548  14.870 -0.5390 -0.0889 -0.2095
23895W        W40156   1.906   9.849  14.350 -0.2627  0.1968 -0.1312
23896W        W40157   6.411   3.053   5.006  0.0240  0.1914  0.2959
23897W        W40158  10.078  11.222  12.293  0.1497  0.3586  0.1834
23898W        W40159   4.667  13.742   4.992  0.2128  0.1882 -0.1031
23899W        W40160   6.736  14.178  16.042 -0.0178 -0.4177 -0.1362
23900W        W40161   4.563   7.402   2.557  0.2922 -0.1321 -0.4024
23901W        W40162   6.379   4.263  10.955 -0.0765  0.0588 -0.3868
23902W        W40163  12.670   3.308   5.082 -0.1573  0.1987 -0.2003
23903W        W40164  15.640  13.116  12.198 -0.1152  0.2735 -0.1671
23904W        W40165   3.924   6.790  15.841 -0.0087  0.1167 -0.1672
23905W        W40166  15.929   6.545  15.868  0.1396  0.0318  0.3320
23906W        W40167   7.793   0.503  12.983 -0.0925  0.3535  0.0730
23907W        W40168  10.970   5.283   3.822 -0.0010 -0.1818  0.2253
23908W        W40169   1.909  14.724   3.821 -0.0652  0.1591 -0.1216
23909W        W40170  17.380  11.034  14.768 -0.0602  0.0001  0.0884
23910W        W40171  17.153   4.576   0.202 -0.2575  0.1401 -0.0469
23911W        W40172   4.096   1.057   4.204 -0.0724 -0.3063 -0.0942
23912W        W40173  15.557  16.564  13.790 -0.0304  0.0212 -0.1162
23913W        W40174   0.449  14.545   5.241  0.2374  0.0768 -0.0261
23914W        W40175   6.908   9.195  12.772 -0.0702  0.0359  0.1203
23915W        W40176  16.027   9.169   4.561  0.0426  0.0129 -0.0615
23916W        W40177  11.738   7.872  14.857  0.2883 -0.2024  0.2530
23917W        W40178   9.246  13.962   1.558  0.2056  0.0812  0.0024
23918W        W40179  11.053   0.428  13.591  0.0021 -0.1964  0.0770
23919W        W40180   5.907  17.541   1.036 -0.0210  0.0610 -0.3469
23920W        W40181  13.157   3.870   1.093 -0.0108  0.1894 -0.1096
23921W        W40182  12.057   4.892   4.305  0.1944 -0.4531 -0.0010
23922W        W40183   9.957  14.827  16.009  0.0674  0.1555 -0.3771
23923W        W40184  17.302  16.670  13.558 -0.0853  0.2759  0.1236
23924W        W40185   6.739  13.205  15.434  0.0090  0.0654 -0.4076
23925W        W40186  15.015   1.737   3.303 -0.1506  0.0030  0.1441
23926W        W40187   7.741   6.118  14.031  0.3607  0.0448  0.1327
23927W        W40188   0.730  11.814  16.741  0.1484  0.0845  0.1661
23928W        W40189   3.173   3.061  13.525 -0.1845  0.1746 -0.4017
23929W        W40190  17.851  11.549   1.515 -0.1657 -0.0684  0.1112
23930W        W40191   6.267   7.163  13.708 -0.0498 -0.3023 -0.2369
23931W        W40192  15.212  15.198   4.943  0.0920 -0.0087 -0.1047
23932W        W40193   6.795   2.017   2.153  0.0233  0.0986  0.0631
23933W        W40194   6.242  11.077   0.344  0.1694  0.2126 -0.1187
23934W        W40195  16.207   9.456   0.987 -0.0374  0.1600 -0.0550
23935W        W40196  11.892   3.781  15.159  0.0620  0.1094 -0.0579
23936W        W40197  17.223  12.013  13.144 -0.0675  0.0324  0.0421
23937W        W40198   6.548  17.010   3.759 -0.1799 -0.0732  0.1598
23938W        W40199   5.864  13.280   4.110 -0.1421  0.2396 -0.2075
23939W        W40200  16.006  10.144   4.958 -0.1553  0.1459  0.0977
23940W        W40201   3.952   6.059   2.413 -0.0197  0.1030 -0.0112
23941W        W40202  12.883   7.605  14.470 -0.3822 -0.0818 -0.3772
23942W        W40203   8.021   3.425  16.034 -0.4617 -0.0140  0.2420
23943W        W40204   8.326   9.362  16.793 -0.0565 -0.0985  0.0369
23944W        W40205   7.246   6.922   2.024 -0.1077 -0.2643  0.1515
23945W        W40206   7.836   8.118  16.213 -0.1832 -0.0173  0.0350
23946W        W40207   3.581   3.730   1.704 -0.1813  0.1877  0.3232
23947W        W40208   6.869   7.321   4.728  0.0400  0.0527  0.1207
23948W        W40209  16.342   4.735  13.627 -0.1043  0.1546 -0.1683
23949W        W40210  15.671   2.191  12.013  0.0440 -0.0602 -0.1928
23950W        W40211   1.220  13.811   5.860 -0.0920  0.0055  0.0977
23951W        W40212  14.901  17.634  15.779  0.1845  0.0335  0.1249
23952W        W40213   9.652   0.651  15.098 -0.0915 -0.0966 -0.0004
23953W        W40214  16.854  12.772   0.578  0.1639 -0.1065  0.0181
23954W        W40215  15.712   2.589   3.940 -0.0416 -0.0844  0.0864
23955W        W40216   3.649  17.437   4.093 -0.0225 -0.0103  0.0294
23956W        W40217  17.580   1.722  15.957  0.0842  0.0618  0.1287
23957W        W40218   1.093  14.013  14.920 -0.2953  0.1561 -0.0213
23958W        W40219  16.441  15.028   1.854  0.4619 -0.2476 -0.0875
23959W        W40220   2.271  14.317   1.305 -0.0565  0.2052 -0.4224
23960W        W40221   2.964   3.965   3.955 -0.1885 -0.0401  0.0388
23961W        W40222   7.282  14.032   4.793 -0.3791  0.0833 -0.2029
23962W        W40223   3.589   4.891  16.176 -0.0987  0.1244  0.2894
23963W        W40224   6.094  17.612   4.321 -0.3154  0.1667  0.0719
23964W        W40225  13.391  15.029  15.473 -0.0339  0.0870 -0.0363
23965W        W40226  11.793   7.457   5.454  0.0639  0.0641  0.1941
23966W        W40227  17.246  17.828   1.788 -0.1806 -0.0714  0.0698
23967W        W40228   1.877   4.911  13.696 -0.1171  0.0175  0.1619
23968W        W40229  10.440  12.013  16.248 -0.2189 -0.2646 -0.5099
23969W        W40230  14.132   2.097   2.489  0.2828 -0.2039  0.2002
23970W        W40231   6.565  15.764  12.426  0.1046 -0.1262  0.2416
23971W        W40232   7.619  12.135   1.407  0.1740  0.0307 -0.3223
23972W        W40233  13.970   1.676   1.421  0.0342  0.1239  0.0827
23973W        W40234  16.992   8.509   3.119 -0.3000 -0.0805 -0.0098
23974W        W40235   9.987  17.172   0.969 -0.1639 -0.1265  0.0135
23975W        W40236   8.630  16.636   0.666  0.1787  0.0143 -0.0855
23976W        W40237   2.741   6.902  12.279 -0.2217 -0.1089 -0.1479
23977W        W40238   7.525   9.374   0.972 -0.0601  0.2005 -0.0799
23978W        W40239   6.957   9.544   2.404 -0.0830 -0.0812 -0.1375
23979W        W40240  17.048  14.326  16.354  0.0348 -0.2013 -0.2564
23980W        W40241  11.486   0.667  14.347  0.2686 -0.0557 -0.1924
23981W        W40242  10.447  14.166   5.797 -0.1299  0.2856  0.0550
23982W        W40243   9.668  10.132   1.819  0.0651 -0.1492 -0.2582
23983W        W40244  14.240  15.180   6.054 -0.1374 -0.0955  0.0017
23984W        W40245  11.510   8.512   2.843  0.0677 -0.3590  0.2075
23985W        W40246  16.627  10.026   3.028  0.0761  0.2329  0.2816
23986W        W40247   7.701  12.519   2.712  0.0442 -0.0512  0.4384
23987W        W40248   8.470  14.453  15.623 -0.1528  0.0015  0.2570
23988W        W40249   2.717  10.131  10.827  0.2327 -0.3087  0.0023
23989W        W40250   2.849  12.034  15.186  0.1171 -0.3416 -0.0303
23990W        W40251   9.175  15.096  15.297 -0.1755 -0.5912 -0.0710
23991W        W40252   3.805   7.946   2.036 -0.1145 -0.2140 -0.1028
23992W        W40253   2.415  16.612   2.968 -0.1096  0.2094  0.0201
23993W        W40254  16.450   2.874   0.206  0.1346  0.1371 -0.0134
23994W        W40255   1.496   6.049   2.975  0.0665 -0.2053 -0.2698
23995W        W40256   8.553   5.875  14.963 -0.0170 -0.0111 -0.2127
23996W        W40257  12.119   7.626   2.330  0.0803 -0.2590  0.2594
23997W        W40258   6.522  11.387  14.802 -0.1766  0.1851 -0.1117
23998W        W40259   4.823   1.371   5.199  0.1421  0.2292  0.0936
23999W        W40260   2.878   5.537  14.064  0.2372 -0.1550 -0.0512
24000W        W40261   3.217   2.917  11.881 -0.1657  0.2362  0.1938
24001W        W40262   4.630   0.451   2.626 -0.0705 -0.0289 -0.1789
24002W        W40263  16.863  11.929   4.248 -0.0900  0.2693  0.1375
24003W        W40264   3.913  16.601   3.652  0.3008 -0.2240  0.2686
24004W        W40265   5.703   7.564   5.726 -0.1777 -0.1655  0.3545
24005W        W40266   7.284   1.949  11.638  0.3856  0.1624  0.2764
24006W        W40267  17.307  16.462   0.804 -0.3104  0.3903 -0.0808
24007W        W40268  17.862  15.512  11.966  0.0561 -0.2154  0.1329
24008W        W40269  17.608  12.755   4.154 -0.0660  0.3303 -0.0235
24009W        W40270  14.248   0.863   5.015  0.0809 -0.1531 -0.0345
24010W        W40271  17.578  15.090  16.233 -0.1993  0.0350 -0.0282
24011W        W40272   3.669  14.195  11.431  0.0554 -0.2378  0.1478
24012W        W40273   2.022  14.236  16.503  0.0728  0.0449  0.1481
24013W        W40274   7.209   2.876   3.829 -0.0256  0.2452  0.0468
24014W        W40275   7.433   1.991   4.379 -0.3439 -0.0343 -0.0331
24015W        W40276   9.649  17.380  11.514  0.1343 -0.1556  0.1018
24016W        W40277   7.234  13.970  15.258 -0.0890  0.0939  0.0102
24017W        W40278  14.448   1.528   1.735  0.0060 -0.1997 -0.0103
24018W        W40279   9.643   3.939  15.028 -0.0868 -0.0201  0.3344
24019W        W40280  10.078  12.284  12.247  0.1619 -0.1137 -0.2409
24020W        W40281   2.397   2.777   2.065 -0.1543 -0.0414 -0.0528
24021W        W40282   5.882  13.109  11.630  0.3673 -0.2148  0.0237
24022W        W40283   1.013   0.687   3.778 -0.0372 -0.2242 -0.0159
24023W        W40284  11.272  12.300  16.914  0.0107  0.0960  0.1872
24024W        W40285  14.917   1.203  15.829 -0.2347  0.1634  0.3775
24025W        W40286  11.969   7.486  14.651  0.1735 -0.2567 -0.2865
24026W        W40287   3.439   3.016   1.469 -0.2272  0.1761 -0.2553
24027W        W40288  10.720   9.509   3.824 -0.1999 -0.0384  0.1678
24028W        W40289  17.847   6.594   2.042  0.0872 -0.0122 -0.0129
24029W        W40290   7.774  17.501  11.931 -0.4038 -0.2013 -0.2290
24030W        W40291  16.612   0.478  16.624 -0.0492  0.1826 -0.0622
24031W        W40292   1.250   8.532  13.805 -0.0822  0.3046 -0.2568
24032W        W40293  10.608   8.322   5.948 -0.1033  0.0743  0.1201
24033W        W40294  16.672   3.107  13.523  0.1021  0.0032 -0.1218
24034W        W40295   7.644  13.699  13.675 -0.1337  0.2646 -0.1893
24035W        W40296   5.264  12.421  13.135 -0.1325 -0.0444 -0.0835
24036W        W40297   6.673  14.873  11.973 -0.1788 -0.0809  0.0352
24037W        W40298   6.456   9.068  12.964 -0.1452 -0.0384  0.1410
24038W        W40299   0.952   5.012  12.144  0.0746  0.1048 -0.0703
24039W        W40300   2.726  13.511   4.738 -0.2148 -0.1635  0.1985
24040W        W40301  12.565   3.830   3.788 -0.0350  0.1046 -0.0551
24041W        W40302  11.047   4.239  13.154  0.1039 -0.1513 -0.1070
24042W        W40303  17.641  16.330  15.510 -0.1544 -0.1071  0.4432
24043W        W40304  10.338   9.671  12.330 -0.3399 -0.2426  0.1651
24044W        W40305   3.541  17.225   3.174  0.1555 -0.1609 -0.1117
24045W        W40306  13.948   1.293  16.067 -0.2849 -0.0512  0.0892
24046W        W40307   4.142  10.744  16.569  0.0495 -0.1304 -0.0027
24047W        W40308  15.746   2.611   2.606 -0.2792  0.1062  0.0013
24048W        W40309   6.671   9.710  11.897  0.1087 -0.0370 -0.0943
24049W        W40310  12.978   6.507  11.755 -0.1669 -0.0541 -0.1125
24050W        W40311  14.931  15.057  14.083 -0.1282 -0.0340 -0.1784
24051W        W40312  15.284  10.622   5.933  0.0339  0.0923 -0.1475
24052W        W40313   5.907   8.167   4.766 -0.0567  0.1074  0.0069
24053W        W40314  15.731  12.200   1.884 -0.0167  0.1571 -0.2234
24054W        W40315  15.691   5.673  15.135 -0.1152  0.0966  0.2409
24055W        W40316  12.915   1.714   6.000  0.3294  0.3044 -0.2885
24056W        W40317   2.083   7.319  13.093 -0.1041  0.0458 -0.2816
24057W        W40318   6.966  11.015  11.609  0.0507 -0.0402  0.0415
24058W        W40319  14.225   8.202   1.671  0.1408 -0.4175  0.0552
24059W        W40320   9.412  13.575  12.842 -0.1663 -0.1511  0.3761
24060W        W40321   1.614  13.917   1.239  0.0532  0.2124  0.1545
24061W        W40322  13.788  16.126   0.593  0.1498 -0.0033 -0.0609
24062W        W40323   6.196  12.702   5.524  0.0372  0.0741  0.1726
24063W        W40324   3.710   6.554   1.560 -0.0596  0.0361 -0.1050
24064W        W40325  15.505   5.581   2.054 -0.1530  0.1869 -0.2052
24065W        W40326   1.353   2.258  12.905  0.0365 -0.4167 -0.1824
24066W        W40327   9.978   7.317  11.724  0.0117  0.1343 -0.2333
24067W        W40328  14.398   1.075  12.549 -0.2388  0.1417  0.3877
24068W        W40329   2.589  17.802  13.251  0.1667  0.0635  0.2496
24069W        W40330   2.337  15.609  11.573  0.1144 -0.1283  0.2313
24070W        W40331   3.412   4.705  15.767  0.0285 -0.3272  0.2142
24071W        W40332   2.319  15.256  16.066 -0.2753 -0.2277 -0.2021
24072W        W40333   8.296   8.813   0.484 -0.3412 -0.1282 -0.0345
24073W        W40334  10.908   1.963  16.085  0.1505 -0.0795 -0.1942
24074W        W40335  11.103   1.220  15.513  0.2012 -0.1320 -0.0458
24075W        W40336   9.908  10.455  13.866  0.0727  0.0389 -0.2205
24076W        W40337  14.562   6.785   1.613 -0.1507  0.0534 -0.0964
24077W        W40338   0.833  15.046  16.620 -0.0789  0.2321 -0.0896
24078W        W40339   9.606   5.781   3.471 -0.0798 -0.1861 -0.0526
24079W        W40340   5.426   4.848   1.873 -0.2373  0.1189  0.2126
24080W        W40341   0.725   1.247   0.116 -0.1593  0.1780  0.1780
24081W        W40342   4.911   0.785   1.290 -0.0469  0.0042 -0.2492
24082W        W40343  16.724  12.389   4.420  0.2589 -0.0018  0.1026
24083W        W40344   7.065  17.040  12.612 -0.1108 -0.4225  0.1669
24084W        W40345  17.407  16.434   1.523 -0.2060 -0.0796  0.1882
24085W        W40346  13.516  15.270   3.421 -0.0231  0.1656  0.0242
24086W        W40347   2.126   2.358   4.861 -0.0026  0.2076  0.4041
24087W        W40348   2.815   0.581   1.528 -0.2019  0.0931  0.1020
24088W        W40349  15.118   3.626  15.927  0.0342 -0.0552  0.2196
24089W        W40350  11.276   7.220   1.187 -0.0078  0.0635  0.1413
24090W        W40351   4.433  12.786   5.061  0.1422  0.1190  0.2746
24091W        W40352  14.510   0.492  11.891 -0.1291 -0.1842 -0.0418
24092W        W40353  10.288  15.301  12.383  0.0847 -0.4722 -0.1501
24093W        W40354   2.768   5.711  13.523  0.2711 -0.2667 -0.2659
24094W        W40355   3.778  16.126   4.585  0.0217  0.0248  0.1528
24095W        W40356   3.863   6.454   4.345 -0.1940  0.1205 -0.1237
24096W        W40357   5.168   5.864   6.108 -0.1958  0.1877  0.0932
24097W        W40358   5.094  17.826   1.479  0.0613  0.3333 -0.3042
24098W        W40359   2.205  13.289  15.900 -0.0285 -0.2629 -0.0222
24099W        W40360   3.764   9.013   1.288 -0.0930 -0.4392 -0.2791
24100W        W40361  11.502  14.032  13.466 -0.0273 -0.2410  0.0055
24101W        W40362   6.651  12.639  11.825 -0.2191 -0.0592  0.0272
24102W        W40363   7.603   4.933   1.397 -0.3584  0.4640  0.0649
24103W        W40364  15.318   5.779  15.464 -0.4851 -0.0082  0.2215
24104W        W40365   9.276   5.193  15.337  0.1903  0.0323 -0.1812
24105W        W40366   3.849  16.329  16.783 -0.0729  0.1515  0.0994
24106W        W40367   2.938   9.410   4.677  0.2187  0.2917  0.1445
24107W        W40368  16.547  11.036   3.413 -0.2386  0.0328  0.2489
24108W        W40369   6.602   7.798  15.302  0.0662  0.1589 -0.0801
24109W        W40370   6.963   9.782   5.456  0.0071  0.0947 -0.0773
24110W        W40371  13.465   8.791   0.690 -0.0880  0.2362 -0.0410
24111W        W40372  14.774   6.203   3.500  0.1596  0.2011 -0.1637
24112W        W40373   1.528   9.272   4.862  0.1163  0.2389  0.2599
24113W        W40374   9.170   2.698  14.255 -0.1267 -0.0988 -0.0520
24114W        W40375   2.717  12.820   0.593 -0.1419 -0.3767  0.4391
24115W        W40376  15.578  12.083  15.691  0.1206 -0.4394  0.1581
24116W        W40377   9.842   1.377   2.471 -0.1230  0.1635 -0.1979
24117W        W40378   6.810   8.918  14.801 -0.0724  0.0236  0.2577
24118W        W40379   4.709   1.272   3.284  0.0335 -0.2110  0.0747
24119W        W40380   3.158   0.251  16.285 -0.0778  0.0546  0.1657
24120W        W40381  10.639   0.021  11.252 -0.1844  0.2851  0.1573
24121W        W40382   4.006   4.336   3.330 -0.1004  0.0829  0.1295
24122W        W40383   8.670  17.398  12.978 -0.0014  0.3019  0.1988
24123W        W40384  10.802  13.209  12.958  0.1830  0.1404 -0.1437
24124W        W40385  16.805  11.467   1.558  0.1077 -0.2174 -0.0310
24125W        W40386   8.027   0.782   4.999 -0.3203  0.0490  0.0729
24126W        W40387  15.042   8.032   3.311  0.0204  0.0428  0.0106
24127W        W40388   1.860   4.916   4.941 -0.1402  0.0783  0.1527
24128W        W40389  13.474  16.975   5.108  0.0146  0.4513 -0.2022
24129W        W40390  11.997   9.865  16.302 -0.0176  0.0008 -0.0622
24130W        W40391   6.798   4.211   1.840 -0.1024  0.1757 -0.1496
24131W        W40392  17.113   7.142  16.239 -0.0649 -0.2526  0.0106
24132W        W40393   4.286   4.199   0.768  0.0536 -0.1690  0.0852
24133W        W40394  14.038  10.655  11.117 -0.1910  0.0738  0.0752
24134W        W40395   0.326  16.308   1.248 -0.1910 -0.1002 -0.0074
24135W        W40396   7.261  13.316   2.590  0.2672  0.0542 -0.1895
24136W        W40397   7.668   1.026  16.559 -0.0092 -0.1653  0.1268
24137W        W40398  16.853  15.274   0.524 -0.0396 -0.4411  0.2393
24138W        W40399   0.833  13.650  12.392 -0.4499  0.1415 -0.0727
24139W        W40400   0.059  17.006   1.305  0.0161  0.1197 -0.0094
24140W        W40401   0.421   7.221  12.395  0.0109  0.0018 -0.1912
24141W        W40402  11.439  10.164   0.963  0.3343 -0.1147  0.1607
24142W        W40403  15.307   0.113  15.914 -0.0717 -0.0208  0.1115
24143W        W40404  13.887  12.666  16.560  0.4127 -0.0976  0.0242
24144W        W40405  11.964   1.480  13.292 -0.0804  0.1009  0.2439
24145W        W40406   7.746   6.398   3.085  0.1089 -0.1759 -0.0453
24146W        W40407   2.272  10.556   3.187 -0.0854 -0.2164  0.0480
24147W        W40408  11.651   3.839   3.460  0.2094 -0.0098 -0.3347
24148W        W40409   1.121   7.733  14.539 -0.0513 -0.2632 -0.3906
24149W        W40410   3.249  11.375  14.254 -0.3680 -0.0359 -0.0074
24150W        W40411   0.813  10.231   2.315  0.0512  0.1978  0.0213
24151W        W40412   0.221   6.685   0.646  0.2402 -0.1890 -0.3453
24152W        W40413   1.302  14.408   2.685 -0.0077 -0.0040 -0.0013
24153W        W40414   0.534   8.689   2.825  0.0703 -0.0202  0.1117
24154W        W40415  16.557   2.218  13.964 -0.0985 -0.3360  0.0718
24155W        W40416   0.292  12.777  14.774  0.1097  0.0043 -0.1092
24156W        W40417  16.481   3.044   2.318 -0.0756 -0.1265  0.0207
24157W        W40418   6.790   9.265   3.202 -0.1267  0.0343  0.0722
24158W        W40419  11.955  11.293  16.451 -0.0729 -0.0824 -0.0685
24159W        W40420   7.590   3.392   0.776 -0.0110 -0.2113  0.0414
24160W        W40421  17.628   7.867   1.325 -0.0130 -0.0463  0.0445
24161W        W40422  13.178   2.126   5.925 -0.1859 -0.4234  0.2619
24162W        W40423  14.955   8.087  15.056 -0.0281  0.0484  0.1790
24163W        W40424   6.378  14.939   4.358 -0.0537  0.2373 -0.1440
24164W        W40425   5.789   1.908  16.371 -0.0907  0.3139 -0.1590
24165W        W40426   9.111   8.829   2.731 -0.3592  0.2295  0.0890
24166W        W40427   2.529  10.120  12.462  0.0049 -0.3648  0.1465
24167W        W40428  10.758  14.357  11.417  0.2388  0.1870  0.0536
24168W        W40429   7.533   8.424   2.011  0.0752 -0.2849 -0.1978
24169W        W40430   2.362   6.644   2.215 -0.2607  0.2576  0.0880
24170W        W40431   4.868   4.463  15.496  0.3530  0.0961 -0.0031
24171W        W40432  11.490   8.777   1.302  0.2390  0.1264  0.1775
24172W        W40433  10.087   6.850   2.026  0.0799 -0.0845 -0.2234
24173W        W40434   4.288   7.577   0.737  0.0177 -0.4630  0.3748
24174W        W40435  12.390   1.937   3.740  0.0251 -0.0085  0.1344
24175W        W40436  11.114   4.921  15.312 -0.1859  0.2960 -0.1114
24176W        W40437  10.474   0.535   3.252  0.2451  0.0325  0.2333
24177W        W40438   9.420   7.852   4.478  0.1531 -0.2304 -0.1393
24178W        W40439   9.768   8.100   0.435 -0.1851  0.2382 -0.0676
24179W        W40440   3.187  10.786  16.290 -0.2719 -0.0456  0.0083
24180W        W40441   5.500  17.571  12.200 -0.3301  0.2388 -0.3151
24181W        W40442   6.845  14.222   1.956  0.2337  0.0095 -0.2362
24182W        W40443  11.443  15.016  16.760  0.0573  0.2288 -0.0306
24183W        W40444  11.502   6.560   6.527  0.0399  0.1748  0.1143
24184W        W40445   5.107   3.581   0.480 -0.1085  0.0010 -0.2306
24185W        W40446  14.524   0.926  12.071  0.0216 -0.1835 -0.1324
24186W        W40447   0.358  15.629  15.399 -0.1383 -0.0275 -0.3500
24187W        W40448  11.628   1.088  13.534 -0.1301  0.0308  0.2149
24188W        W40449  12.865  11.819   4.752  0.1455  0.0030 -0.1082
24189W        W40450  11.050   2.393   5.696  0.0818 -0.1350  0.2335
24190W        W40451   8.450   8.601   4.262  0.1700  0.1371  0.2493
24191W        W40452   8.208  15.013   1.002  0.0905  0.3497 -0.0506
24192W        W40453  13.688  10.454  14.711 -0.2009  0.0759 -0.0380
24193W        W40454   9.800   8.843   5.426  0.2110  0.3045 -0.0770
24194W        W40455  11.504   1.158   2.586  0.0936  0.1175  0.0947
24195W        W40456   3.617   3.967  15.270 -0.2777 -0.0771 -0.0082
24196W        W40457   2.992  13.555   1.153  0.0361  0.1979 -0.0465
24197W        W40458   8.982  13.171  12.921 -0.2541  0.0707 -0.1376
24198W        W40459   5.588  15.746  12.159 -0.2244  0.1981 -0.1224
24199W        W40460   3.773  15.849   5.360  0.1194  0.0216  0.1790
24200W        W40461   8.809   0.241   6.138 -0.0932 -0.0226  0.1595
24201W        W40462   0.166  11.199   3.024  0.2031 -0.0907  0.0227
24202W        W40463   6.317   2.591  11.421 -0.0149 -0.0609 -0.1093
24203W        W40464   1.453   9.889   1.998 -0.2053  0.0199 -0.1075
24204W        W40465  11.641  10.348  13.874  0.0232  0.3091 -0.1146
24205W        W40466  11.166   8.401   5.028  0.0125 -0.1106 -0.0790
24206W        W40467   3.864   6.404   1.043  0.1058  0.4295  0.0797
24207W        W40468  12.065  14.776  12.253 -0.1617  0.1102 -0.2468
24208W        W40469   2.896  15.070   1.952  0.3781 -0.3750 -0.0081
24209W        W40470  11.566  17.615  14.163  0.1351  0.2108 -0.1017
24210W        W40471   2.502  17.312  14.759  0.2490  0.0641  0.0075
24211W        W40472   6.395   1.420  13.454  0.1253 -0.2613 -0.2749
24212W        W40473   4.489  10.216   3.580  0.1030  0.1852 -0.1287
24213W        W40474   3.401   7.660   5.770  0.0828 -0.1300  0.2671
24214W        W40475   8.152   3.574   4.147  0.0761  0.1840  0.0455
24215W        W40476   9.841   8.812  14.408 -0.2990  0.0799 -0.2552
24216W        W40477  10.747  16.033  15.025 -0.1514 -0.0736  0.1901
24217W        W40478  11.095   9.983   0.519 -0.0778 -0.0801 -0.0082
24218W        W40479   1.406   4.978  12.410 -0.1356  0.2312 -0.0792
24219W        W40480   5.180   3.197   5.707 -0.5356  0.2373 -0.0103
24220W        W40481   2.263  15.161  13.847 -0.2185 -0.0461  0.0479
24221W        W40482  10.291   2.567   0.565 -0.1094 -0.0644  0.1108
24222W        W40483  14.817  16.392  12.843  0.0472 -0.1030 -0.3812
24223W        W40484  11.112  15.237  12.609 -0.0538  0.2126  0.1082
24224W        W40485   3.406  16.689  11.550 -0.0871  0.0434 -0.3454
24225W        W40486  10.345  12.683  11.932  0.2895 -0.3203  0.0224
24226W        W40487   9.895  14.713  12.889  0.3713  0.0632  0.0549
24227W        W40488   9.559   5.579   4.795  0.2748  0.2316 -0.0577
24228W        W40489  15.495   2.194   2.458  0.0579  0.0047 -0.0615
24229W        W40490  14.123   0.311   2.703  0.2866 -0.0057 -0.3815
24230W        W40491  10.115   4.745   3.207  0.1889 -0.0870  0.0422
24231W        W40492   5.190   6.118   5.655  0.0119 -0.0167 -0.1375
24232W        W40493  10.393   8.710   0.558 -0.0916  0.0413  0.0942
24233W        W40494   6.736  14.630   1.342  0.0177  0.2097 -0.3647
24234W        W40495   4.589  13.270  13.865 -0.0894  0.1060  0.0678
24235W        W40496   4.528   1.728   3.344  0.0817  0.0905  0.1507
24236W        W40497   8.326   3.709   5.225 -0.1093 -0.2270  0.1789
24237W        W40498   9.018  16.316   5.523 -0.1640  0.0633 -0.1274
24238W        W40499  16.150   4.774   0.278 -0.2496  0.1549  0.0227
24239W        W40500  14.025   2.962   2.043  0.0808 -0.5628 -0.1186
24240W        W40501  11.282  14.708  13.381  0.1153 -0.1163  0.2456
24241W        W40502  16.872   4.697  16.004 -0.0759 -0.1223 -0.0745
24242W        W40503  15.490   1.215   1.670 -0.2690 -0.1212  0.1502
24243W        W40504  16.767   2.338  13.536 -0.1779 -0.0438 -0.0354
24244W        W40505   7.132  15.039  13.944  0.2966  0.0923  0.0739
24245W        W40506  15.439   9.043   3.426 -0.0233  0.1785 -0.1541
24246W        W40507   5.111  12.648  15.289 -0.2421 -0.0062  0.1328
24247W        W40508  12.242   6.262   5.709  0.2099 -0.1701  0.0543
24248W        W40509  10.178  12.592  13.214 -0.0893 -0.1914 -0.1643
24249W        W40510   1.313  13.614   3.143 -0.2184  0.1454  0.0164
24250W        W40511   0.390   7.776   2.546  0.0757  0.2779 -0.5086
24251W        W40512  15.666   4.222  12.104 -0.0161  0.2264 -0.1734
24252W        W40513   4.762   2.397   2.657  0.0121  0.1666 -0.2695
24253W        W40514  16.371  17.860   1.454 -0.0056  0.0351 -0.2345
24254W        W40515   8.136   0.045  15.739  0.0256  0.2032  0.0382
24255W        W40516  10.815   5.436   0.262 -0.3549 -0.1107  0.0520
24256W        W40517   0.499  14.179  13.626  0.2869  0.1311  0.1338
24257W        W40518  15.609  13.084   5.488 -0.1730  0.0455 -0.0463
24258W        W40519   8.330  16.719  11.466  0.0547 -0.2481 -0.2962
24259W        W40520   4.213   5.881   1.577  0.0478  0.0061 -0.0346
24260W        W40521  11.122   2.358  13.531 -0.2684 -0.1698  0.0520
24261W        W40522   5.844  17.326  11.303  0.1568  0.0492  0.0952
24262W        W40523   0.497   4.097  16.715 -0.1794 -0.3658 -0.2503
24263W        W40524   7.212   5.256   1.229  0.0001  0.4043  0.0302
24264W        W40525  14.990   9.922   3.072  0.0065  0.0118  0.0284
24265W        W40526   4.865   0.742   2.969  0.1669 -0.3372 -0.1858
24266W        W40527  15.862  13.578   5.394  0.0983 -0.2512  0.0275
24267W        W40528  17.244   9.515  10.583 -0.0877 -0.0633  0.2896
24268W        W40529  10.342  16.598  12.678  0.1625  0.0853 -0.1353
24269W        W40530   5.373   5.284   5.586 -0.2033  0.0339  0.1251
24270W        W40531   9.523  15.286  11.893 -0.0332 -0.0868 -0.0662
24271W        W40532   6.773   4.716   1.867 -0.2424  0.1941 -0.2631
24272W        W40533  17.735  17.781   5.315  0.2341 -0.0499  0.0224
24273W        W40534   3.201  15.059   2.969  0.0808 -0.0509 -0.2333
24274W        W40535  11.720   0.480  15.190  0.0305  0.0080  0.1912
24275W        W40536  16.832   9.553   4.641  0.0205 -0.8136 -0.2851
24276W        W40537   1.441  12.789   0.533  0.3074  0.1116  0.0561
24277W        W40538  16.642   7.264  16.315  0.4411  0.1993 -0.0671
24278W        W40539  13.812  17.030   1.182 -0.1861 -0.0674  0.1341
24279W        W40540  17.500  14.378   5.389 -0.1858 -0.0024 -0.1877
24280W        W40541   8.850   9.853  12.399  0.0029 -0.0785 -0.2603
24281W        W40542  14.553   5.824   4.953 -0.1975 -0.2018  0.2202
24282W        W40543  12.768   7.117   2.154 -0.3673 -0.0462 -0.3037
24283W        W40544   2.784  12.936   2.946 -0.1397 -0.2157  0.1063
24284W        W40545  10.983   5.264  13.372 -0.0813 -0.0010 -0.1454
24285W        W40546  12.016   1.904  13.536 -0.0486 -0.1411 -0.0800
24286W        W40547   2.536   8.993  13.015 -0.0799  0.0832 -0.0413
24287W        W40548   3.500   8.291  16.663  0.1495 -0.2215 -0.0689
24288W        W40549   3.992   7.800   1.618  0.0653 -0.0872 -0.2497
24289W        W40550  10.269  17.351  15.833  0.0470  0.0937  0.1245
24290W        W40551   0.587   2.064   5.520 -0.1020  0.1258 -0.3695
24291W        W40552   5.253   4.502  15.133  0.0844 -0.0037 -0.0354
24292W        W40553   7.767   3.673   3.392 -0.0570 -0.1516  0.2118
24293W        W40554  17.745   4.191   0.815  0.2088 -0.2013  0.0434
24294W        W40555  14.304   3.356  12.645  0.0195  0.1717 -0.0617
24295W        W40556   1.954  15.825   3.927  0.0137 -0.0892  0.0018
24296W        W40557  14.746  14.391   3.981  0.1826  0.0652 -0.0408
24297W        W40558  14.190   4.535   3.948  0.0309  0.0185  0.1232
24298W        W40559  15.743  13.093  16.438 -0.2805  0.0361  0.0409
24299W        W40560  14.269  11.599   5.153 -0.1415 -0.0571  0.2200
24300W        W40561   3.005   2.607   5.169  0.0005 -0.1663  0.0353
24301W        W40562  12.969  10.728   1.697  0.0203  0.4651  0.0752
24302W        W40563  16.606  15.196   0.939  0.3388  0.4258 -0.0772
24303W        W40564  10.153  10.252   0.124  0.2331 -0.1057  0.1849
24304W        W40565   5.576  16.282  13.024 -0.0318  0.2099 -0.1189
24305W        W40566  15.249  10.853   1.638  0.0694 -0.0298 -0.0901
24306W        W40567  16.072  16.886   5.648 -0.0717  0.0643  0.0331
24307W        W40568  12.907   1.633   2.406  0.1012 -0.5013 -0.1745
24308W        W40569  17.680  15.610  13.781 -0.0754 -0.2561  0.1074
24309W        W40570  15.441   4.246  13.441  0.2742  0.3922 -0.2847
24310W        W40571  11.682   7.349   1.503  0.3095  0.0262 -0.2470
24311W        W40572  14.987   9.350  12.393 -0.2894 -0.1546 -0.1737
24312W        W40573  10.661  12.514  15.459  0.0921  0.0446 -0.0925
24313W        W40574   2.342   7.222  12.244  0.0384  0.0391  0.1316
24314W        W40575  15.294   7.685  14.870  0.0941 -0.1538  0.0567
24315W        W40576   4.140  12.435   4.276  0.0002 -0.0524 -0.2142
24316W        W40577   4.147  14.437  13.113  0.1428  0.1096  0.0272
24317W        W40578  13.511   5.485   1.857  0.0487 -0.2469  0.1450
24318W        W40579  17.048   1.041   2.550  0.0970 -0.0673 -0.0267
24319W        W40580  13.320  15.431   0.007 -0.1444 -0.0559 -0.2183
24320W        W40581   4.838   7.846  13.491 -0.0204  0.1347  0.2741
24321W        W40582   3.088  13.103  11.928 -0.1085 -0.1487  0.1305
24322W        W40583   3.926  14.239   4.666  0.3128 -0.0502 -0.0887
24323W        W40584   2.979  13.016   3.768 -0.1164 -0.0181 -0.1299
24324W        W40585  11.733   5.797  15.196 -0.1574 -0.0511 -0.2508
24325W        W40586   0.932   1.337  16.002  0.2291 -0.3294  0.2260
24326W        W40587  12.349  10.263  14.976  0.0397 -0.2267  0.2252
24327W        W40588  15.641   0.663  12.681 -0.1229  0.0420 -0.1319
24328W        W40589   7.231   9.035   5.562 -0.0475  0.2786  0.1697
24329W        W40590   9.676   2.319  12.454 -0.0094 -0.1330 -0.0035
24330W        W40591  14.656  15.457  15.525  0.0468 -0.2463 -0.1479
24331W        W40592  17.597  12.061   3.198 -0.0441  0.3705  0.0482
24332W        W40593   6.240   6.216   5.513 -0.1359 -0.3064  0.0142
24333W        W40594  11.406   6.268   0.559 -0.0809 -0.2282 -0.1162
24334W        W40595   9.760   1.114   3.740 -0.0378 -0.1754  0.1112
24335W        W40596  12.969  16.816   5.254 -0.1932 -0.4097  0.1404
24336W        W40597  12.891  11.127  11.974 -0.1564  0.0935  0.0430
24337W        W40598   9.339   8.249   4.047 -0.1182  0.3930 -0.3233
24338W        W40599   9.427  12.417  13.423 -0.0579 -0.0296  0.0156
24339W        W40600   5.773  12.291  16.974 -0.1454 -0.1965  0.3013
24340W        W40601  15.667   5.933   5.471 -0.4481 -0.1090 -0.2255
24341W        W40602   7.763  10.997  14.407  0.1138  0.0464 -0.2694
24342W        W40603   6.196   2.087  16.748  0.0293 -0.1797 -0.1284
24343W        W40604   0.516  13.947  14.545 -0.1257  0.1944  0.0798
24344W        W40605   8.223   8.481  12.595  0.1052 -0.1295 -0.0444
24345W        W40606   7.057   5.685   0.280  0.1712  0.1697  0.2429
24346W        W40607  16.084   0.679   4.194 -0.1219 -0.1127  0.2006
24347W        W40608   0.524   0.534   5.394  0.0854  0.2150  0.2312
24348W        W40609  12.448  17.524   5.650  0.2543  0.3014 -0.1355
24349W        W40610   0.304   3.241  12.318 -0.0787 -0.0409  0.1049
24350W        W40611   0.328   9.408   3.315 -0.0846 -0.0984 -0.3689
24351W        W40612   4.028   0.595  14.090 -0.0055  0.1017  0.2227
24352W        W40613  11.827   0.808  16.125  0.0253 -0.0641 -0.0490
24353W        W40614   2.549  11.914   1.696  0.2592  0.2640  0.0092
24354W        W40615   7.798   9.662   3.710 -0.0106  0.1070  0.2425
24355W        W40616   4.081   4.944   1.308 -0.0113  0.0754  0.3551
24356W        W40617   1.138  16.838  14.418  0.0211  0.0653 -0.3134
24357W        W40618  10.675  16.123   1.519  0.1895  0.1633  0.2126
24358W        W40619  15.208  17.454   2.248  0.1105 -0.2078  0.0761
24359W        W40620  12.780   3.223   2.577 -0.1747 -0.1210 -0.4691
24360W        W40621  11.235   0.027   0.442 -0.2727  0.1385 -0.3260
24361W        W40622  10.364   4.756   1.547  0.2296 -0.0484 -0.4788
24362W        W40623  12.569   1.791   3.320  0.0232 -0.0369 -0.4048
24363W        W40624  11.751   2.997   2.546  0.2883  0.1715  0.1258
24364W        W40625  10.613   8.278   0.927 -0.1027  0.0054 -0.2260
24365W        W40626   9.486  11.040  15.866  0.2813 -0.0078  0.1598
24366W        W40627   1.335   1.681  16.463 -0.0015 -0.0879 -0.3481
24367W        W40628  11.264  13.015  14.999 -0.2841  0.0469  0.0376
24368W        W40629  16.279  13.853  16.197 -0.4384  0.1034  0.1275
24369W        W40630   4.522   9.231   0.537  0.5191 -0.1623  0.0473
24370W        W40631   0.425  10.285  13.341  0.0498 -0.0154  0.1398
24371W        W40632   0.639   3.096   2.573  0.0141  0.2094  0.0047
24372W        W40633  14.315   0.448  14.049 -0.0176 -0.1569 -0.0159
24373W        W40634   3.175   6.612  12.192 -0.0859 -0.0184 -0.0718
24374W        W40635  15.201  10.253   4.379 -0.2866  0.2606 -0.0603
24375W        W40636   2.148   7.368   2.770 -0.0086  0.0340  0.1908
24376W        W40637   1.061   9.108   4.887 -0.0933 -0.1362 -0.1071
24377W        W40638   8.346   6.156  15.326 -0.0504  0.1273 -0.0060
24378W        W40639  12.870  14.917  15.563 -0.1196  0.0677  0.0360
24379W        W40640  10.070   2.812  15.934 -0.1470 -0.0597  0.1837
24380W        W40641   8.455   7.314  12.521  0.1083  0.1510  0.0677
24381W        W40642  17.498   9.507  12.347  0.1902 -0.1996  0.0877
24382W        W40643  14.969  16.920   1.936  0.2285  0.2375 -0.0158
24383W        W40644  10.006  11.376   3.679  0.3051  0.0549 -0.3685
24384W        W40645   1.991   9.696   4.132  0.2323  0.1697 -0.1693
24385W        W40646  10.841  14.503  12.852 -0.2692  0.2397 -0.4195
24386W        W40647  15.344   6.506  13.523  0.1239  0.1890  0.2053
24387W        W40648   1.600   2.605   2.969 -0.1279  0.3500 -0.0772
24388W        W40649   0.907  13.532   0.098  0.0112  0.0560 -0.1293
24389W        W40650   3.099   1.444  13.475 -0.1316 -0.1100 -0.0671
24390W        W40651   4.646   3.605  12.750  0.0812 -0.0817  0.0548
24391W        W40652   0.312   1.332  16.802  0.1364 -0.2283  0.0688
24392W        W40653   6.583   5.906   4.639  0.1931  0.1911  0.2613
24393W        W40654   3.147   7.695  14.534 -0.1243  0.0272  0.2883
24394W        W40655   8.754   3.006  16.329  0.1001  0.0019  0.2147
24395W        W40656   4.804   6.315  12.699  0.0333  0.0784  0.2390
24396W        W40657  11.490   0.562  13.004 -0.0671 -0.0432  0.2547
24397W        W40658   9.491  13.914   2.710  0.0839 -0.0082  0.2876
24398W        W40659   3.106   3.944   0.585 -0.1475 -0.1804  0.0479
24399W        W40660  14.084   2.673  13.578 -0.2157 -0.0796  0.2274
24400W        W40661  14.144   1.792  15.351  0.0017  0.0039  0.0433
24401W        W40662   8.109  15.321   0.164 -0.1294  0.3516 -0.0745
24402W        W40663   4.794   8.456  16.424  0.0382  0.3504  0.1081
24403W        W40664  12.483   5.715   1.681 -0.3185 -0.5049 -0.3817
24404W        W40665   8.695   5.743  12.461  0.2789 -0.1598  0.2495
24405W        W40666   7.156  14.118   0.396  0.1267 -0.1549 -0.0772
24406W        W40667   2.241   3.202  16.286  0.0118 -0.2018  0.1264
24407W        W40668   0.773   7.501   2.661 -0.2004 -0.0691 -0.4508
24408W        W40669   8.869   0.074  15.125  0.0932  0.2946  0.4135
24409W        W40670   4.990  14.814   1.346 -0.3092  0.2301  0.0046
24410W        W40671   4.806   1.697  14.274 -0.0964 -0.0120  0.2816
24411W        W40672   9.359  12.044   5.451  0.0479  0.2705  0.0671
24412W        W40673   3.349   0.651   5.127 -0.1330  0.3715  0.2309
24413W        W40674  12.600   8.157  14.199 -0.0267  0.2004 -0.2165
24414W        W40675   6.511   5.062  16.295 -0.2184  0.1032 -0.0477
24415W        W40676  13.913   2.024  12.940  0.0856 -0.3437  0.1262
24416W        W40677  12.152  12.767   5.630  0.1474  0.2852 -0.3015
24417W        W40678   4.173  16.417   4.918  0.0282  0.2357 -0.1587
24418W        W40679   3.542  13.717  15.289  0.0908 -0.1107  0.1747
24419W        W40680   6.340  12.194   5.607 -0.1367  0.2739 -0.1979
24420W        W40681   6.775   7.505   0.616  0.0101 -0.0821  0.1114
24421W        W40682  17.028   0.899   1.995 -0.0191  0.0797 -0.2409
24422W        W40683   9.360   4.057   1.337 -0.1967 -0.1212  0.0485
24423W        W40684   7.467   2.725  14.411 -0.0956  0.2059 -0.0826
24424W        W40685  11.084   9.861  16.053  0.1894 -0.0341 -0.0691
24425W        W40686   5.598   1.023  14.215 -0.1288 -0.0176  0.1407
24426W        W40687   5.551   0.458   3.824 -0.0106 -0.1511 -0.0317
24427W        W40688  14.999   9.781  13.616 -0.1244  0.3420  0.0505
24428W        W40689   2.544   4.309   1.583 -0.0568 -0.0475  0.0495
24429W        W40690   8.928   2.217   2.683 -0.1011  0.2587  0.0477
24430W        W40691   6.117  15.006   0.575 -0.2757  0.1407 -0.2168
24431W        W40692  15.857  17.083   3.720 -0.1518  0.0508 -0.0151
24432W        W40693   8.183   9.826  15.546 -0.0465 -0.0827 -0.4387
24433W        W40694   9.490   3.926   4.807 -0.0204  0.2318  0.0347
24434W        W40695   0.396   7.990  13.915  0.2813 -0.1771  0.1339
24435W        W40696  17.056   4.956  16.864  0.1152  0.0198 -0.1566
24436W        W40697  17.677   7.876  14.098  0.1680 -0.1275  0.1859
24437W        W40698   4.493  17.341  16.021 -0.4564 -0.1038  0.2891
24438W        W40699  11.275  13.109  14.486  0.0386  0.1423 -0.2674
24439W        W40700   3.557   0.203  11.902  0.3211 -0.2683  0.1874
24440W        W40701   8.189   4.953  13.259  0.2466 -0.0581  0.0992
24441W        W40702   4.272  12.380   3.719  0.1422 -0.1142  0.3414
24442W        W40703   7.117   8.368  13.892  0.0132 -0.2386  0.0450
24443W        W40704  12.699   3.957  12.879 -0.2105 -0.2273  0.1648
24444W        W40705   7.472   4.534  14.357  0.0206  0.0273  0.2771
24445W        W40706   2.564  10.752   4.715 -0.1725  0.0842  0.2236
24446W        W40707   3.759   6.374   6.108  0.1106  0.2372  0.3051
24447W        W40708  11.324   3.564   0.673  0.0860  0.0209 -0.0137
24448W        W40709   6.736   3.004  13.913  0.2658 -0.1855 -0.1909
24449W        W40710   3.555   3.796  12.334 -0.0764  0.1796  0.0092
24450W        W40711   1.350  15.764   0.561  0.0135 -0.2963 -0.0013
24451W        W40712  15.317   5.189   4.317  0.0129  0.1332 -0.1915
24452W        W40713  11.319   8.535  15.455  0.0562  0.0230  0.0151
24453W        W40714   6.812   6.541   5.337 -0.1906 -0.3035  0.1323
24454W        W40715   9.400  13.673   1.082 -0.3635 -0.1187  0.1334
24455W        W40716  11.772   0.103   2.548  0.2859 -0.0785 -0.0428
24456W        W40717  14.745  15.411   4.009 -0.2048 -0.0949  0.1643
24457W        W40718   6.351   3.340  12.583  0.3719 -0.1339 -0.1097
24458W        W40719  14.040  10.143  12.136  0.5948  0.0510  0.0044
24459W        W40720   5.559   0.158  12.510 -0.0981  0.2395 -0.1168
24460W        W40721   4.973   3.933  15.658 -0.4278  0.0917 -0.2062
24461W        W40722   8.888  16.860  14.101 -0.1926  0.3090 -0.0786
24462W        W40723   0.585   8.995  12.712 -0.2313 -0.2992  0.0751
24463W        W40724   3.618   3.259  12.634  0.0491  0.0548  0.2900
24464W        W40725   4.760  14.253  16.584 -0.2405 -0.0892 -0.2075
24465W        W40726  15.835   0.776  11.744  0.0332  0.1544  0.1119
24466W        W40727  11.023   8.223   3.437  0.0779  0.0817  0.3823
24467W        W40728   2.185  17.040   1.889 -0.0944 -0.0953  0.0154
24468W        W40729   9.829   3.704  13.669  0.0606 -0.1063 -0.0135
24469W        W40730  12.493  17.571  12.654 -0.4455 -0.1399 -0.1617
24470W        W40731   4.670   4.385  13.763 -0.0404 -0.0995  0.2282
24471W        W40732   3.298   0.056  14.738  0.2657 -0.1743 -0.2016
24472W        W40733  15.385   4.767  13.357 -0.2764  0.0115 -0.0011
24473W        W40734  11.556   1.002  15.740  0.0024  0.2737 -0.0170
24474W        W40735  12.613   0.873   1.239 -0.3375 -0.0474  0.3708
24475W        W40736   0.213  15.576  14.116 -0.2722 -0.1512  0.1345
24476W        W40737   4.714   1.146  12.633  0.2753 -0.1837  0.0455
24477W        W40738   1.011   8.968   2.848  0.0621  0.0971  0.0854
24478W        W40739  17.110   9.981   3.094  0.1032 -0.1383 -0.0268
24479W        W40740   2.471  17.166   1.097  0.2352  0.2906 -0.0803
24480W        W40741  10.338  11.796  14.328  0.0920 -0.2733  0.2184
24481W        W40742  13.249   0.410  12.897  0.1097  0.1695  0.0255
24482W        W40743   3.172   1.240   3.508 -0.1817 -0.1892  0.1569
24483W        W40744   2.953  11.307   3.052 -0.2268 -0.2706 -0.0605
24484W        W40745  16.804   8.931  16.964  0.0938 -0.1111 -0.0384
24485W        W40746  10.182  14.422   2.600 -0.1501 -0.0939 -0.1585
24486W        W40747   7.910  12.169  11.624 -0.0791  0.0012 -0.1310
24487W        W40748   1.408   0.538  15.809  0.3859 -0.1797  0.1934
24488W        W40749   0.567  11.724  12.685  0.2040  0.2706  0.0105
24489W        W40750   2.158  11.359  12.590 -0.1664 -0.0896 -0.0642
24490W        W40751  13.397  13.004  12.512  0.0441 -0.2557  0.0402
24491W        W40752  15.370  11.394  16.896 -0.5525  0.1635  0.4112
24492W        W40753   2.214  11.596   2.072  0.1031  0.5081 -0.2435
24493W        W40754   7.770  12.912   1.871  0.3691  0.0211 -0.2095
24494W        W40755  17.275   5.551  14.409  0.2020 -0.0065  0.0433
24495W        W40756  15.404  11.321  16.128 -0.0181  0.0758  0.1760
24496W        W40757   6.322  16.024  15.913  0.3800 -0.1790  0.0705
24497W        W40758  12.118  16.672   5.629 -0.2556  0.0906 -0.1884
24498W        W40759  17.514   8.094   0.444  0.3001 -0.1598 -0.0930
24499W        W40760   5.536   2.704  13.588 -0.0837  0.1174  0.0871
24500W        W40761   6.264   5.889   2.280 -0.0531  0.1095  0.0357
24501W        W40762  16.365   4.599   3.122 -0.0140  0.0386  0.0779
24502W        W40763   2.153  12.292  16.879  0.0096  0.1576  0.1697
24503W        W40764  14.389  14.042   1.996 -0.1085  0.1529  0.0454
24504W        W40765  17.380   7.338   5.397 -0.3646 -0.1632  0.1837
24505W        W40766  10.296   3.971  13.789 -0.1381  0.0409  0.0143
24506W        W40767   2.111   4.101  16.129  0.2305  0.1134 -0.2483
24507W        W40768  13.929  16.802   3.744  0.0574 -0.2616 -0.0899
24508W        W40769  11.617  17.830   5.704  0.2535  0.0758  0.0043
24509W        W40770  15.963  12.365   3.971  0.1994  0.1602 -0.1122
24510W        W40771   8.537   1.215  16.638  0.0640  0.0416 -0.2593
24511W        W40772   5.094   5.760  16.624  0.0135  0.3480 -0.1162
24512W        W40773  15.571   3.930   5.166 -0.0281  0.0854 -0.0118
24513W        W40774   4.300   3.750  12.231  0.0400 -0.1692  0.0809
24514W        W40775   8.157  16.656  13.831  0.2051  0.2557 -0.0362
24515W        W40776  13.092  14.512   4.535  0.1972  0.1442 -0.1873
24516W        W40777  17.264  16.387  15.895  0.1886  0.0123  0.1524
24517W        W40778   7.791  14.347   3.739 -0.3316  0.3612  0.1653
24518W        W40779   1.996   4.088   2.298 -0.0166 -0.0477 -0.1606
24519W        W40780   4.458   0.316  11.651 -0.0790  0.0701 -0.0741
24520W        W40781  11.730  16.220   2.324  0.0202  0.0940  0.3797
24521W        W40782   3.978   0.708   5.464  0.1393 -0.1245  0.0732
24522W        W40783   4.403   1.013   2.849 -0.2434 -0.1546 -0.1123
24523W        W40784   9.528   6.751   2.339  0.1262 -0.2192  0.3404
24524W        W40785  10.313   3.337   2.621  0.1249  0.0685 -0.2340
24525W        W40786  11.740   0.613  10.843  0.0171  0.0328 -0.2224
24526W        W40787   6.034  10.460   5.161  0.4510  0.1905  0.2136
24527W        W40788   2.730  17.312  16.403 -0.0623  0.0910  0.0021
24528W        W40789  13.938  15.683  14.439 -0.0024 -0.1070 -0.3765
24529W        W40790  16.806  17.346   2.227 -0.3302 -0.2844 -0.2513
24530W        W40791  14.636  10.252   4.647  0.2792 -0.1122 -0.0393
24531W        W40792   4.930   0.743   4.234 -0.3074  0.0714  0.0565
24532W        W40793  10.927  13.266  16.376  0.0464 -0.1553  0.2537
24533W        W40794  15.610   5.620   0.881  0.2433  0.0422  0.0690
24534W        W40795   1.958   5.312   5.223  0.1743 -0.3247  0.0188
24535W        W40796   8.957  16.876   3.580 -0.0661 -0.0680 -0.2152
24536W        W40797   7.625   3.633  15.815 -0.3926  0.2147  0.1751
24537W        W40798   5.216  14.331   4.175  0.2374 -0.0361 -0.0311
24538W        W40799   5.330   3.306   2.719  0.0051 -0.0050  0.0691
24539W        W40800   9.790   2.610  14.188 -0.0749 -0.2503 -0.0425
24540W        W40801  15.007  15.276   4.494  0.0472  0.2460  0.3534
24541W        W40802  12.351   6.722  12.766  0.3561 -0.0706 -0.1026
24542W        W40803   1.760  14.900  15.798 -0.0155 -0.0739 -0.3031
24543W        W40804   8.051  11.147  15.213 -0.0153 -0.1989  0.1002
24544W        W40805   0.069  13.130  14.373 -0.2355 -0.1001  0.2722
24545W        W40806  15.872   8.339   1.216 -0.1253 -0.1345  0.1715
24546W        W40807   2.786   0.659  12.972  0.1163 -0.0923  0.2451
24547W        W40808  13.885   4.439   3.530  0.0991 -0.1030 -0.0372
24548W        W40809  15.838   3.409  13.802  0.0984 -0.0156  0.0495
24549W        W40810  14.574  10.033  13.810 -0.0984  0.2006 -0.0470
24550W        W40811   0.261   9.433  12.874 -0.1834 -0.0758  0.0638
24551W        W40812   9.849   8.094   4.371 -0.2472  0.2705 -0.1046
24552W        W40813  16.634   6.475  12.779 -0.0343 -0.0944  0.0175
24553W        W40814   3.111   9.408  15.595  0.2618  0.0462 -0.1124
24554W        W40815   9.557  15.014  11.480  0.0146  0.3695  0.1938
24555W        W40816  10.900  11.234   4.786  0.2962 -0.0195  0.0046
24556W        W40817   8.532  13.163   0.999 -0.0180 -0.0910  0.1229
24557W        W40818  16.544   9.797   0.691 -0.0475 -0.1387 -0.1039
24558W        W40819   7.042   1.657  13.019 -0.1826 -0.3098  0.0265
24559W        W40820  11.116   7.333  11.878 -0.3637  0.0229 -0.0338
24560W        W40821   5.046   5.516  13.803  0.0197  0.1433  0.3604
24561W        W40822   3.041  15.546   1.663 -0.3263  0.0252 -0.0927
24562W        W40823   9.872  11.201   4.717 -0.1489 -0.0213 -0.3253
24563W        W40824   9.677   1.107   2.944  0.0731  0.4217 -0.1333
24564W        W40825  12.540  14.654  14.191 -0.0593 -0.2221 -0.3195
24565W        W40826  17.725   0.256   1.228 -0.1702  0.2354  0.2633
24566W        W40827  12.519   7.089  11.488 -0.0648 -0.1958 -0.0264
24567W        W40828   4.275   0.230  14.362 -0.2143  0.0423  0.0997
24568W        W40829   4.982   8.754   1.924  0.0002  0.0787 -0.0738
24569W        W40830  14.800  16.810   3.310 -0.3506  0.0390 -0.0146
24570W        W40831   3.567  12.502  14.203  0.0092 -0.1463 -0.0160
24571W        W40832   8.114  12.555  11.966  0.4587  0.1770  0.0510
24572W        W40833   2.098  13.314   2.385 -0.1433 -0.0027  0.2473
24573W        W40834  10.289   7.373  13.834  0.1084  0.0119 -0.2197
24574W        W40835  12.607  11.251  14.731  0.0889  0.2457 -0.1731
24575W        W40836  12.318  13.968   3.419 -0.1624 -0.0278  0.1300
24576W        W40837  16.570   0.094  16.928 -0.0995  0.0267 -0.1332
24577W        W40838  13.516   9.642  16.115 -0.1914  0.2200 -0.1736
24578W        W40839  10.167   2.440  12.323  0.1039 -0.2100 -0.2287
24579W        W40840   2.808  13.697   3.363  0.1413  0.1608 -0.0610
24580W        W40841   7.829   0.765   0.634 -0.1097  0.2261 -0.2729
24581W        W40842  11.082  12.011   1.102  0.2042  0.2683  0.2278
24582W        W40843  11.503  16.387  11.557 -0.0675 -0.0371 -0.0469
24583W        W40844  14.974   2.751  14.899 -0.0129  0.3339 -0.0908
24584W        W40845   9.641   8.381   1.864  0.1339  0.4029  0.3400
24585W        W40846   8.821   9.296  16.672 -0.4086 -0.1444  0.1014
24586W        W40847   8.089   4.141  11.935  0.0952  0.2443  0.1849
24587W        W40848   6.110   7.335   5.881 -0.3361  0.4296 -0.0047
24588W        W40849  16.968  17.448   0.520  0.1524 -0.3295 -0.0787
24589W        W40850  11.706  16.484  15.061  0.4498 -0.1953  0.0710
24590W        W40851   9.146   8.415   3.553  0.2935  0.3656 -0.1860
24591W        W40852   6.306  13.823   3.440 -0.0222  0.1762 -0.1030
24592W        W40853  11.164   2.164   4.271  0.1442 -0.1494  0.2922
24593W        W40854   8.645  12.874  11.982 -0.0208 -0.0955  0.2279
24594W        W40855  12.420   3.525   2.793  0.1252  0.1064 -0.0256
24595W        W40856   1.015  14.775   1.467  0.0401  0.2949  0.0302
24596W        W40857   6.101   5.128  12.215  0.0065  0.0656 -0.0626
24597W        W40858   6.638  13.159  12.578  0.0045  0.0320  0.1401
24598W        W40859  13.010  16.037   2.803 -0.1081  0.3728 -0.5300
24599W        W40860  16.333  14.852   3.428  0.1025 -0.0148  0.0779
24600W        W40861   0.980   3.813  11.829  0.1383  0.5863 -0.2808
24601W        W40862  14.360  15.058  15.333 -0.0346 -0.0239 -0.0399
24602W        W40863  15.852  11.521  13.580  0.0711  0.2308  0.2032
24603W        W40864   6.287  17.445  11.579 -0.1225  0.2376  0.2612
24604W        W40865  10.746   3.381   0.413 -0.0036 -0.0634  0.1099
24605W        W40866   4.168   7.308   3.651  0.1797  0.0863  0.1217
24606W        W40867  14.444  14.241   5.846  0.1352 -0.3421 -0.0223
24607W        W40868   0.821   5.284  14.613 -0.0115 -0.5520 -0.0162
24608W        W40869   5.782  14.542  15.420 -0.2290  0.1236 -0.1930
24609W        W40870   9.043  17.781  16.479  0.0551  0.0488 -0.0293
24610W        W40871  17.131  15.050   3.132  0.3126  0.2277  0.0104
24611W        W40872  12.444   8.480   5.647  0.0206  0.2009  0.0046
24612W        W40873   0.934  10.783   5.022 -0.1838  0.0128 -0.0689
24613W        W40874  16.999  13.717  12.389  0.0493 -0.0469 -0.0716
24614W        W40875   7.662   4.839  15.270 -0.1660  0.1125  0.0221
24615W        W40876   2.851   0.226   1.164  0.3227  0.1604 -0.0591
24616W        W40877  12.908   4.097   5.288 -0.0187 -0.2391  0.2394
24617W        W40878  14.728   5.505  16.824 -0.2037 -0.0097 -0.1713
24618W        W40879  13.361   8.484   5.341 -0.0497  0.3494 -0.2139
24619W        W40880   4.367  12.882   2.987  0.2479 -0.0470 -0.0415
24620W        W40881  13.145  11.184   2.703  0.3263 -0.0423 -0.1255
24621W        W40882  17.754   9.688   3.047  0.2795  0.0387 -0.0891
24622W        W40883   4.606   8.512  15.944 -0.2610  0.2360 -0.2623
24623W        W40884   1.931   4.284   0.029 -0.0563 -0.0216  0.2709
24624W        W40885   1.628   5.773  14.272  0.0032 -0.0567  0.2952
24625W        W40886   0.666  11.173   0.503  0.1973 -0.2940 -0.1312
24626W        W40887   3.904  12.761   3.589 -0.1191 -0.1872 -0.3306
24627W        W40888  14.872  13.755  10.974 -0.0277 -0.1148  0.1556
24628W        W40889  15.972  11.906   4.734  0.1423 -0.0104  0.0056
24629W        W40890   1.408  14.189  13.525 -0.0618  0.2757 -0.1399
24630W        W40891   2.011  16.229   0.301 -0.1765  0.2410  0.0900
24631W        W40892   6.227   5.395   4.065 -0.0152 -0.1525 -0.0338
24632W        W40893  15.137  11.768  13.182  0.1670 -0.1622 -0.1863
24633W        W40894  14.570   4.160   0.653  0.1134  0.2849 -0.1407
24634W        W40895  16.683  16.705  11.788 -0.1384 -0.1393 -0.1579
24635W        W40896   6.844   3.263   4.525 -0.0911 -0.1640 -0.1945
24636W        W40897   6.179   9.847   3.686 -0.2666 -0.0541 -0.2387
24637W        W40898   7.103   8.151   0.584  0.0016 -0.0942 -0.3623
24638W        W40899   7.207   1.058  12.056 -0.0429 -0.2838  0.2482
24639W        W40900   6.151   3.864  15.293 -0.0127 -0.2098  0.2926
24640W        W40901  13.899   5.635   1.252  0.0207 -0.0183  0.1712
24641W        W40902   0.987   0.141   0.172 -0.0733 -0.0867 -0.2030
24642W        W40903  15.786  12.680   1.980  0.0116 -0.1873  0.0632
24643W        W40904  12.910  14.886   1.906  0.0782 -0.0041 -0.1143
24644W        W40905   0.962   9.472  16.410  0.0773 -0.1009 -0.0272
24645W        W40906   2.969  13.562  14.474 -0.0315  0.0592  0.3176
24646W        W40907  10.983  12.324  11.586 -0.3140  0.0884 -0.0623
24647W        W40908   3.081   9.988   0.396 -0.0058  0.2032 -0.0421
24648W        W40909   7.410  14.187  11.959 -0.0034 -0.3037  0.0932
24649W        W40910  17.590   6.795  12.798 -0.1654  0.4308  0.3785
24650W        W40911  15.558   9.169  13.192  0.2235 -0.2297 -0.2654
24651W        W40912   7.308   2.405   3.118 -0.0267  0.1489  0.4727
24652W        W40913  13.737  10.512  11.997 -0.1126 -0.1015 -0.1195
24653W        W40914   5.095  10.605   5.054 -0.0513  0.0910 -0.1128
24654W        W40915   7.689   2.172  12.418  0.0867 -0.0636  0.0640
24655W        W40916   2.751  10.814   3.258  0.0974  0.0237 -0.1695
24656W        W40917  12.727  13.186   4.611  0.0613  0.2819 -0.0056
24657W        W40918   8.412   2.861   2.425 -0.1202  0.1181 -0.1076
24658W        W40919  16.674  15.827  15.474  0.0694  0.1931  0.0507
24659W        W40920   9.578   6.035  11.927 -0.0860 -0.1198 -0.2435
24660W        W40921   7.056   9.340  15.628 -0.0453 -0.1983 -0.3319
24661W        W40922   5.532  11.217   0.680 -0.0765 -0.1958  0.0694
24662W        W40923  12.555  12.226   3.249 -0.1680 -0.0684 -0.3167
24663W        W40924   9.129   2.900  13.022  0.0276  0.0059  0.2260
24664W        W40925   0.168  16.922   2.525  0.1339  0.0184 -0.1526
24665W        W40926   2.298  11.047  16.247  0.3943 -0.1815 -0.2679
24666W        W40927   9.590  12.935  14.173  0.1318  0.3332 -0.2989
24667W        W40928   8.748  11.437   4.964  0.1142 -0.0804  0.3278
24668W        W40929   7.558   9.258   0.036  0.2513  0.1806 -0.3951
24669W        W40930  15.205  15.859  13.304  0.1438 -0.1291 -0.0577
24670W        W40931  12.507  11.354   0.122  0.1336 -0.0283  0.1351
24671W        W40932  16.953  14.124  11.516  0.3911 -0.1107 -0.1645
24672W        W40933   9.231  12.157  16.619 -0.0535  0.0954  0.0138
24673W        W40934   6.794   7.430   2.910 -0.1044  0.1895  0.1536
24674W        W40935   4.349   9.017  15.774 -0.0818  0.2637  0.0694
24675W        W40936   1.771   6.247  16.584 -0.1642 -0.1037  0.4065
24676W        W40937   3.190  13.678  14.958  0.0463 -0.0339  0.0309
24677W        W40938   1.327  15.387  12.737 -0.2001  0.0672 -0.1836
24678W        W40939  12.140  15.016  14.267  0.4371  0.3134 -0.0726
24679W        W40940   7.789   0.547  16.521 -0.0474 -0.2168  0.0703
24680W        W40941   5.292   2.496  13.135 -0.3206 -0.2143 -0.1535
24681W        W40942   0.859   6.764  14.520  0.2275  0.0465 -0.0185
24682W        W40943   0.822   3.555   2.591  0.0052  0.2274  0.0363
24683W        W40944  16.783   1.293  12.644  0.2533 -0.0973 -0.0900
24684W        W40945  10.331   5.962   4.940  0.0109 -0.2107 -0.1355
24685W        W40946   7.108   1.878   3.002  0.0785 -0.1997  0.1941
24686W        W40947   4.524  16.303  12.329 -0.3499  0.4359 -0.0967
24687W        W40948  17.000   3.790  15.739 -0.1558 -0.0257  0.1535
24688W        W40949   9.518   0.032  14.224  0.0033 -0.1904 -0.0347
24689W        W40950   6.404   6.447  15.340 -0.0547  0.2126  0.0682
24690W        W40951  16.818   4.754  12.434  0.0002 -0.1455  0.0675
24691W        W40952   8.144  16.319   4.607  0.3006  0.0510  0.1580
24692W        W40953  11.692  13.306   4.590  0.2620  0.0782 -0.0335
24693W        W40954  13.562  13.818   1.516  0.0880 -0.2227  0.1576
24694W        W40955   5.065   0.266  12.423  0.2912 -0.0040  0.2480
24695W        W40956   0.922   8.926   0.684  0.2175  0.2026 -0.0615
24696W        W40957   5.541   2.930   5.097 -0.2329  0.1768 -0.0084
24697W        W40958   1.792   6.345   5.844  0.1618 -0.0047  0.1412
24698W        W40959  15.077  13.964   3.683 -0.1421  0.2139 -0.0219
24699W        W40960   7.434  10.213   0.491 -0.1530  0.0304  0.0852
24700W        W40961   4.005   1.777  15.218  0.1423  0.2749  0.1638
24701W        W40962  15.073   4.542   3.570 -0.1814  0.0750 -0.0534
24702W        W40963  16.433  10.632   3.662 -0.1899  0.2734  0.1078
24703W        W40964   0.249   6.640   4.623  0.1050  0.0821 -0.1614
24704W        W40965   1.488   5.894   4.920  0.0578 -0.0968 -0.0296
24705W        W40966  11.318   4.759   2.242  0.3274  0.3612  0.5101
24706W        W40967   5.406  15.345  13.202  0.2395  0.3215 -0.1856
24707W        W40968  15.841  12.468   5.351  0.1248  0.2724  0.0275
24708W        W40969   0.932  11.280   4.879 -0.0864  0.2678  0.0559
24709W        W40970   5.563   0.385   4.809  0.0133 -0.2260  0.4188
24710W        W40971   0.714  12.486  14.809  0.0006 -0.1350 -0.1569
24711W        W40972  11.404  12.887   3.353  0.2269 -0.0782  0.0782
24712W        W40973  10.645   1.165  13.529 -0.2040  0.2796  0.1435
24713W        W40974  14.375   2.970   0.237  0.1982  0.1209 -0.0437
24714W        W40975  10.507  10.970  12.650  0.0891 -0.0830  0.4374
24715W        W40976  15.076  16.606   3.797  0.0368 -0.2203  0.0206
24716W        W40977  16.943   7.270  14.289  0.1330 -0.1972 -0.0036
24717W        W40978   6.775  14.489  16.511 -0.0595 -0.4650  0.0248
24718W        W40979   4.206   0.646  11.895  0.0278 -0.2161 -0.1828
24719W        W40980  10.452  12.525  16.513  0.0586  0.1371  0.1857
24720W        W40981   9.821   1.189  16.465  0.0117 -0.0680 -0.4866
24721W        W40982   7.778  14.433  11.600  0.0854 -0.0599 -0.1231
24722W        W40983   3.084  15.317  16.244  0.0275  0.0139 -0.0469
24723W        W40984  11.768  11.958  12.986  0.2725  0.0257  0.1463
24724W        W40985   7.716   1.394  12.014  0.0299 -0.0764 -0.2804
24725W        W40986  13.442   5.032   4.229 -0.2577  0.0088 -0.0286
24726W        W40987   8.822  13.700  16.865 -0.1248  0.0865 -0.0899
24727W        W40988   8.999   3.664  16.226  0.3930 -0.1043 -0.2911
24728W        W40989   9.374   6.258  12.998 -0.3247  0.2468 -0.2166
24729W        W40990   2.439  11.852   4.154 -0.3732 -0.1524  0.0862
24730W        W40991  16.153  13.926   5.175  0.2282 -0.0346 -0.2647
24731W        W40992  12.852   4.190   4.020 -0.2454  0.1965  0.2849
24732W        W40993   3.707   9.822  12.764 -0.0772  0.0929 -0.0350
24733W        W40994  17.448  15.950   0.904  0.2595 -0.0594  0.0327
24734W        W40995  13.030  12.681  15.567 -0.0465 -0.2714 -0.4868
24735W        W40996   2.107  16.274  13.627 -0.1142 -0.6124  0.0375
24736W        W40997  11.644  13.129   5.637 -0.0639  0.3951  0.1357
24737W        W40998  13.739   3.507   5.204 -0.3593  0.0666 -0.3066
24738W        W40999  12.855   0.075  14.600 -0.2035  0.1595 -0.2744
24739W        W41000   8.405   5.657  15.497  0.1287  0.1366  0.0562
24740W        W41001   8.453  16.778  16.293 -0.0237  0.0590  0.2927
24741W        W41002  15.907   5.943   2.902 -0.1287  0.1244  0.2522
24742W        W41003   0.006   1.523   3.603 -0.2074 -0.0631 -0.1609
24743W        W41004   1.447   7.246  13.045 -0.1073 -0.0539  0.0467
24744W        W41005   6.137  14.446   5.111  0.1756 -0.1504 -0.0949
24745W        W41006   0.569  11.600  16.063  0.1082 -0.0880  0.2579
24746W        W41007   1.169  14.889   2.710 -0.3023 -0.0726 -0.0886
24747W        W41008   9.382   4.386  13.346 -0.2770 -0.2942  0.1007
24748W        W41009   8.515  17.365  13.484 -0.0795 -0.0927 -0.3357
24749W        W41010   1.886   2.570  12.072  0.3667 -0.1921  0.3801
24750W        W41011   3.884   5.647   4.100  0.0654  0.0107 -0.0899
24751W        W41012   6.828   8.952  10.748  0.0529 -0.2036  0.2651
24752W        W41013  15.355   6.616   2.993 -0.0862 -0.0400 -0.0183
24753W        W41014   7.653   2.434  16.539  0.0651  0.5325 -0.0351
24754W        W41015   9.091   2.358  12.950 -0.0816 -0.0505 -0.1849
24755W        W41016  12.097  13.183   0.492 -0.3061  0.0767  0.0440
24756W        W41017  14.713   7.980   1.056  0.1310 -0.2097  0.0357
24757W        W41018  15.243   5.190   1.255  0.0298  0.1694  0.0794
24758W        W41019  12.383   4.526   4.463  0.2301 -0.0962  0.0381
24759W        W41020  15.595   6.920  12.543  0.0052 -0.1059 -0.1001
24760W        W41021   3.747   2.915   3.972 -0.4151  0.0958 -0.2198
24761W        W41022   0.064  15.988  11.255 -0.3620  0.1020  0.1714
24762W        W41023  10.683   3.361   4.285  0.3484 -0.0836  0.2694
24763W        W41024   7.202   7.094  13.222  0.1313  0.3307 -0.0139
24764W        W41025  13.683  15.181   0.745  0.0584 -0.2821 -0.0018
24765W        W41026   1.982   6.003  13.337 -0.1674  0.0385  0.0631
24766W        W41027   7.035  12.481  12.973 -0.0082 -0.2489 -0.0287
24767W        W41028   0.749  15.305  16.206  0.1544 -0.0935  0.3285
24768W        W41029   8.963  16.635   2.264  0.0874 -0.0391 -0.0133
24769W        W41030   6.473   0.252   4.058  0.1383 -0.2078 -0.1919
24770W        W41031  16.786  17.816  14.960 -0.0604  0.0193 -0.1602
24771W        W41032  14.301   0.516  15.490 -0.1617  0.2509  0.0711
24772W        W41033   0.250   0.271  12.268  0.1076  0.0524 -0.0285
24773W        W41034  13.905   0.120  16.280  0.2679  0.2293 -0.1504
24774W        W41035   4.682  13.747   0.648 -0.2045  0.1067  0.0716
24775W        W41036   6.808  14.762  10.649 -0.0457  0.0968 -0.0414
24776W        W41037   8.681   5.725  13.557  0.0279  0.0659  0.0824
24777W        W41038  14.176   7.930   3.186  0.3097 -0.1567  0.3223
24778W        W41039   3.099  14.393   2.459  0.1069 -0.0477 -0.2892
24779W        W41040  14.343  13.009  12.491 -0.0515 -0.4055  0.2434
24780W        W41041  14.520   1.811   0.779  0.1207  0.1947 -0.1852
24781W        W41042   7.536  14.139  14.127  0.0277  0.1929  0.2093
24782W        W41043   9.421   8.874  12.140 -0.2508  0.0983 -0.2257
24783W        W41044  12.167   9.252  11.565  0.0912 -0.3343  0.1827
24784W        W41045   0.384   2.583   0.339 -0.0371 -0.1891 -0.0223
24785W        W41046   3.463   8.789  16.682 -0.0749 -0.2745 -0.1895
24786W        W41047   6.334   1.971   3.529  0.0219 -0.2908  0.0639
24787W        W41048  10.891   0.934   2.410  0.4669  0.2071  0.2229
24788W        W41049  11.036  10.522   3.521  0.2980  0.0477 -0.0421
24789W        W41050   6.114  15.079  16.552 -0.0422 -0.1726 -0.2020
24790W        W41051  13.534  15.594   5.421 -0.0123  0.0364  0.1611
24791W        W41052   6.577   0.155  16.568 -0.0303 -0.1278 -0.0852
24792W        W41053   3.063  15.937  14.754 -0.2332  0.0585 -0.0790
24793W        W41054   4.939  15.923   4.287 -0.0184 -0.1080  0.4291
24794W        W41055   7.169   9.299   1.310  0.1491  0.0677  0.0686
24795W        W41056  15.564  14.099   6.469  0.2455 -0.2269  0.0169
24796W        W41057  14.600  15.075   2.953 -0.0392  0.1089 -0.2963
24797W        W41058  13.940   3.170  15.808 -0.0680  0.0251 -0.2148
24798W        W41059   9.808   8.613   1.410  0.5340 -0.0169 -0.2138
24799W        W41060   4.895  16.008   5.200  0.0211  0.0176 -0.0336
24800W        W41061   4.582   4.030   3.242  0.2614  0.1711  0.3650
24801W        W41062   9.286  10.313   0.839  0.1192 -0.2632  0.0111
24802W        W41063  10.457  17.705   4.178 -0.1773  0.1161  0.1081
24803W        W41064  11.250   7.740   5.707 -0.1015  0.0088 -0.3687
24804W        W41065   8.253   8.157   4.668  0.4235  0.2411  0.1144
24805W        W41066   7.807  13.235  11.518 -0.3401  0.2030  0.3362
24806W        W41067  11.659   2.954  11.741  0.0867  0.0704  0.2364
24807W        W41068   4.012   2.094   0.018 -0.3320  0.2672 -0.2326
24808W        W41069  17.753   4.933  16.369  0.2905  0.1365  0.1751
24809W        W41070  12.356   3.854  13.749  0.1413  0.1332 -0.1213
24810W        W41071   1.318  13.684  13.704  0.3778 -0.1662 -0.5614
24811W        W41072   2.929  10.390  16.150 -0.0524 -0.0473  0.1322
24812W        W41073  10.262  15.557  15.801  0.0271  0.3069  0.0674
24813W        W41074  15.194   2.216  12.724 -0.2373 -0.0693  0.0757
24814W        W41075  12.719  16.101  16.475  0.0414  0.2429 -0.0850
24815W        W41076   5.922   6.937   3.704 -0.1397  0.1343 -0.1879
24816W        W41077   3.639   9.053   0.386 -0.1432 -0.1821  0.2008
24817W        W41078  15.824  11.537  14.923 -0.3736 -0.1863  0.3786
24818W        W41079   3.987  10.160  13.290 -0.0011 -0.1021  0.0627
24819W        W41080  16.217   2.270   3.856  0.1164  0.1384 -0.0867
24820W        W41081  14.646   2.120   3.072 -0.0471  0.1050  0.0571
24821W        W41082   3.039   8.545  16.652  0.1017 -0.0447  0.0096
24822W        W41083   7.899   5.736   1.504 -0.1141 -0.0365 -0.2572
24823W        W41084  11.355   1.616  15.039 -0.1393 -0.0192  0.1729
24824W        W41085   8.668   5.259   1.057  0.2212  0.0156  0.0335
24825W        W41086   8.069   0.166   2.042 -0.1002 -0.2275  0.0599
24826W        W41087  15.113   9.367   4.129  0.0678  0.0711  0.0196
24827W        W41088   8.809   4.783   0.630  0.0207  0.0261  0.1053
24828W        W41089   4.367  12.052  13.382 -0.0073  0.0828  0.2944
24829W        W41090   0.476   0.625   3.579  0.0487 -0.1769  0.4305
24830W        W41091   8.732  13.991   2.740  0.0590 -0.0785  0.1662
24831W        W41092  11.952  12.368   2.234 -0.2082 -0.2020 -0.5740
24832W        W41093  14.781   2.647  13.085 -0.0943 -0.0240  0.0245
24833W        W41094   0.478   5.782   4.045  0.2320  0.1091  0.1449
24834W        W41095   4.165  13.938  16.913 -0.2112 -0.2759 -0.0342
24835W        W41096  13.804  10.038  12.846  0.0920  0.0687 -0.0899
24836W        W41097   8.972   6.400   2.003  0.2191 -0.0643 -0.1257
24837W        W41098   6.986  12.843  16.771  0.1561 -0.0126 -0.2742
24838W        W41099   2.741  17.127   2.730  0.1352  0.1729 -0.0560
24839W        W41100  11.666   8.377  11.875 -0.1377 -0.0075  0.0653
24840W        W41101   4.450  13.614  14.727 -0.0325  0.3292  0.0683
24841W        W41102   9.676   0.932  13.161 -0.1603 -0.2380  0.0658
24842W        W41103   8.991   7.641  15.837 -0.2275 -0.0917  0.0889
24843W        W41104  11.215   1.823  13.581 -0.5303 -0.0128 -0.1944
24844W        W41105  17.645   1.523  12.288 -0.0508 -0.3734 -0.0111
24845W        W41106   1.500  15.956   5.706 -0.3645  0.1153 -0.4548
24846W        W41107   2.028   3.108   3.373  0.2679  0.1006 -0.0708
24847W        W41108  15.351  13.942  13.091 -0.0224 -0.0947  0.2145
24848W        W41109   4.747   7.701   0.572 -0.0938  0.0225  0.0462
24849W        W41110   9.607   9.379  16.960  0.1381  0.0753  0.1680
24850W        W41111  12.273   4.762  13.576 -0.1471  0.2636  0.2750
24851W        W41112   0.664   4.474   1.517 -0.0786 -0.1492  0.3637
24852W        W41113   4.566  15.213  14.065  0.0540  0.0053  0.0952
24853W        W41114   8.614   0.281  15.517 -0.0221 -0.0301  0.3506
24854W        W41115   9.437  13.052  12.403  0.5023 -0.1109 -0.2602
24855W        W41116  16.800  17.582  16.545  0.1221 -0.1893  0.0980
24856W        W41117  16.963   1.222   2.993 -0.1796  0.1520  0.0327
24857W        W41118  12.477   5.089  15.585 -0.2721 -0.1455 -0.0819
24858W        W41119  17.585   1.127   5.757 -0.0765  0.1391  0.0200
24859W        W41120   7.021  12.026  13.258 -0.0710  0.4819  0.1575
24860W        W41121  10.899  12.638  16.804 -0.3470 -0.1933  0.2317
24861W        W41122  11.711   7.046   3.296  0.2007 -0.0332  0.0554
24862W        W41123   0.106   6.994  16.204 -0.0665  0.0228  0.0303
24863W        W41124  14.879  17.764   3.089 -0.0180 -0.2810  0.2495
24864W        W41125  12.210  17.603   4.169  0.0425  0.1972  0.3300
24865W        W41126   8.220   9.343  14.127 -0.0031 -0.2939 -0.0689
24866W        W41127  13.151   2.125   1.403  0.1322 -0.1774  0.0075
24867W        W41128   5.852  12.338  12.942  0.0992 -0.1177 -0.1658
24868W        W41129   3.445   9.787  13.276  0.1915 -0.1159 -0.2603
24869W        W41130  14.758   0.203   5.455  0.3468 -0.0751 -0.2435
24870W        W41131  12.485   8.957   0.209  0.2186  0.2673  0.0564
24871W        W41132  16.605   0.452  12.766 -0.4906  0.1852  0.0585
24872W        W41133   6.930   6.181   3.686  0.0937  0.2321  0.2849
24873W        W41134   2.103  12.736  15.940 -0.1008  0.0878  0.0437
24874W        W41135  11.894   6.874  16.777 -0.3839  0.1475  0.0883
24875W        W41136   5.479   5.148   4.580 -0.1272 -0.3608  0.0963
24876W        W41137   4.756  14.174   5.257 -0.1420  0.1011  0.1129
24877W        W41138  10.175  11.989   0.759  0.4161 -0.0456 -0.2028
24878W        W41139  17.147  17.183  14.347 -0.0333  0.0148 -0.0304
24879W        W41140   8.005  13.262   0.980 -0.3252  0.1841  0.1608
24880W        W41141  13.656  14.595   4.730  0.1619 -0.0102  0.2656
24881W        W41142  17.438  12.507  16.033  0.1335  0.1085 -0.2534
24882W        W41143   5.264   4.935   2.866 -0.0047  0.1997  0.1829
24883W        W41144  16.622  11.446   5.321 -0.2166  0.0537  0.0830
24884W        W41145   0.582  12.139   2.864 -0.4194  0.2244 -0.0488
24885W        W41146  14.164   2.086   0.039 -0.0694 -0.3547 -0.2050
24886W        W41147   7.351   0.451   4.209 -0.2366 -0.1083 -0.0666
24887W        W41148  11.826  16.920  13.423 -0.2651  0.0873 -0.2470
24888W        W41149   1.136  11.837   5.554 -0.1808  0.3420  0.2592
24889W        W41150   1.747   2.999  14.439  0.0567 -0.5231  0.4359
24890W        W41151  13.459  12.187  14.329 -0.3228  0.3146  0.3581
24891W        W41152   4.758   4.425  12.055  0.2203 -0.0058 -0.3372
24892W        W41153   2.180  13.509  13.799 -0.4468  0.2550 -0.0180
24893W        W41154  15.480  15.365  11.964  0.0511  0.0037 -0.2045
24894W        W41155   7.066  15.184  11.438 -0.1899 -0.0824  0.2584
24895W        W41156  13.825   2.125  15.202  0.1257 -0.0768 -0.1625
24896W        W41157   4.050   7.831   4.578 -0.1114 -0.0278  0.0560
24897W        W41158   4.484  11.641   5.814  0.2401 -0.0531  0.1113
24898W        W41159   5.971   7.186   1.658 -0.2077 -0.2236 -0.3134
24899W        W41160   2.672  10.366  11.317 -0.0799  0.0245  0.0886
24900W        W41161  15.919   7.761   1.773  0.1716 -0.1777 -0.2718
24901W        W41162   9.538  14.032  15.418 -0.2194 -0.0346 -0.1477
24902W        W41163  17.048   4.010   2.623  0.0845 -0.0272  0.0059
24903W        W41164  11.106   9.172  13.707 -0.3854 -0.0468  0.0590
24904W        W41165   1.981  15.204  13.424  0.0334  0.0766  0.1296
24905W        W41166  11.089   5.448   2.758 -0.0148  0.1652  0.0172
24906W        W41167   0.433   0.597   5.852 -0.0880  0.0311  0.1354
24907W        W41168   5.877   1.353  16.273 -0.1597 -0.2112  0.2071
24908W        W41169  15.267  15.695   4.725 -0.0255 -0.0296 -0.2594
24909W        W41170  14.447   2.914  13.295 -0.1434 -0.2614  0.2007
24910W        W41171   9.676  16.632   0.214 -0.0885  0.1611 -0.0454
24911W        W41172   9.671   8.342  12.252  0.1634  0.2734 -0.0600
24912W        W41173   8.625   5.954   4.435  0.0069  0.1153 -0.1130
24913W        W41174   9.909   7.751  13.716 -0.0656 -0.0206 -0.3229
24914W        W41175   7.720   9.218  14.313  0.2461 -0.5110  0.3546
24915W        W41176   2.746  16.002   0.655  0.2091 -0.1393  0.3017
24916W        W41177  14.983   8.438   4.645 -0.1978  0.1339  0.0141
24917W        W41178  12.313  13.179  15.748  0.0976 -0.2662  0.1101
24918W        W41179   6.958   8.751  16.213  0.4833 -0.0721  0.0373
24919W        W41180   7.679   4.964   5.391  0.0009  0.0279  0.1506
24920W        W41181  10.724  10.874   3.079  0.4211  0.2557 -0.0342
24921W        W41182   2.074   3.027   4.227  0.1528 -0.0365 -0.3796
24922W        W41183   6.820   5.850   0.656 -0.0764  0.1564 -0.2045
24923W        W41184   8.245   8.643  15.808 -0.1648  0.2351 -0.0045
24924W        W41185  15.751   0.439  14.414  0.3431 -0.0486  0.2399
24925W        W41186  13.028  15.516   2.798  0.2659 -0.2233 -0.1545
24926W        W41187  14.996   4.155  15.923 -0.1600 -0.1154 -0.0572
24927W        W41188   2.823  12.367   2.042 -0.3111  0.0305 -0.1464
24928W        W41189   4.268   3.341  15.961 -0.2175 -0.4778  0.0864
24929W        W41190   9.834  10.902   3.853  0.1918 -0.2822  0.1270
24930W        W41191  17.797  10.152   2.095 -0.1811 -0.4142 -0.0417
24931W        W41192  12.728   9.465  16.712  0.0258  0.1348  0.0992
24932W        W41193  13.525   4.105  11.922  0.1566 -0.0947  0.0222
24933W        W41194  14.826   5.862  13.108  0.0727 -0.0251 -0.0432
24934W        W41195  13.050   9.842   3.766 -0.1700  0.1245  0.0152
24935W        W41196  15.094   6.676   1.356  0.2281  0.0888  0.0937
24936W        W41197  13.806  12.667   3.349  0.0908 -0.1512  0.1818
24937W        W41198  17.544   4.560   4.357  0.1164 -0.0413  0.1826
24938W        W41199   9.149  14.398  11.188 -0.0934  0.0833  0.0164
24939W        W41200  12.656   8.470  11.715  0.1243  0.0180  0.3522
24940W        W41201   4.431   5.798   0.764 -0.2796 -0.0802 -0.2208
24941W        W41202  17.175  17.661  15.212  0.2456  0.2260 -0.0458
24942W        W41203  17.699   2.714  14.213  0.0080 -0.0733 -0.1928
24943W        W41204  14.247  12.808   4.028  0.1397 -0.0819 -0.0709
24944W        W41205   1.109   9.080   2.126 -0.0973 -0.3724 -0.4001
24945W        W41206   9.582  16.496  15.136  0.0596 -0.1431  0.1677
24946W        W41207  17.524  10.706   1.346  0.0971  0.2020  0.0029
24947W        W41208   3.809   7.320   1.466  0.2073  0.1389  0.2883
24948W        W41209  12.330  11.341  12.850  0.1943 -0.1123 -0.0627
24949W        W41210   2.019  11.159   3.132  0.0070  0.0174  0.3894
24950W        W41211   8.818  16.503   3.854  0.1681  0.2090  0.1227
24951W        W41212   2.970   5.469  14.700  0.1291 -0.0026 -0.1534
24952W        W41213  14.791  13.012  12.761 -0.1083  0.1543  0.1403
24953W        W41214   0.730  17.009  12.222 -0.0702 -0.1379 -0.1956
24954W        W41215   2.215  10.860  15.118  0.1016  0.1596  0.0711
24955W        W41216   4.877   4.987  14.514 -0.0039 -0.0784  0.0242
24956W        W41217   6.840   8.605   3.781 -0.1341  0.0651 -0.1083
24957W        W41218  14.597   0.390  13.604  0.0082  0.0124  0.1026
24958W        W41219   6.476   0.482  11.904 -0.2802  0.1301  0.0351
24959W        W41220   6.005  16.302  14.536 -0.1248 -0.1603  0.2116
24960W        W41221   0.943   2.893  16.039 -0.1754  0.1109  0.1210
24961W        W41222   6.461  14.646  15.188 -0.0582 -0.3122  0.0723
24962W        W41223  14.248   9.663  13.042 -0.2573  0.1421 -0.1910
24963W        W41224   4.816   1.349  15.158 -0.1521  0.0886  0.1252
24964W        W41225   3.134  16.227   0.847  0.1036 -0.1033  0.0387
24965W        W41226  17.740   6.780  11.201 -0.0103 -0.0471 -0.1285
24966W        W41227   2.261   1.112  14.775  0.1148 -0.2153  0.0498
24967W        W41228   9.214   5.855   5.080 -0.1934 -0.0165 -0.4863
24968W        W41229   5.652   0.282   3.253 -0.2200  0.0113 -0.0026
24969W        W41230   3.833  14.245  16.603 -0.0088  0.0963 -0.3275
24970W        W41231   9.100  11.074   5.309  0.1046 -0.0592 -0.0311
24971W        W41232   2.090   3.067   0.246 -0.2745 -0.0383 -0.1374
24972W        W41233  17.055   3.189  16.390 -0.2641  0.1932  0.1010
24973W        W41234  15.518  17.783   2.476  0.2650 -0.0889  0.1104
24974W        W41235   4.439   4.485   4.728  0.2046  0.2202 -0.1446
24975W        W41236  15.714   8.618   1.654  0.2985 -0.0884  0.1386
24976W        W41237   5.874  14.756   4.286  0.1811  0.1384 -0.2869
24977W        W41238   6.506  13.697  12.988  0.0753 -0.0000  0.0736
24978W        W41239  13.881   1.628   2.551 -0.1723  0.1339  0.2771
24979W        W41240   8.934   2.753  13.489 -0.0685 -0.1566  0.1509
24980W        W41241   1.030  14.769   3.983 -0.1913 -0.2560 -0.2464
24981W        W41242  12.504   0.089   2.741 -0.1256  0.0430 -0.1798
24982W        W41243   4.574   8.068   0.946 -0.0003 -0.0473  0.3979
24983W        W41244   5.874  17.208  16.577 -0.2287  0.1828 -0.0278
24984W        W41245   9.806  13.920  15.859 -0.0196  0.1437  0.0545
24985W        W41246   6.391   3.305   3.553  0.1013  0.1463 -0.1382
24986W        W41247   0.044   8.667   1.038 -0.1646 -0.0630 -0.2124
24987W        W41248   6.615   3.243  15.221 -0.0522 -0.0184 -0.1116
24988W        W41249  11.934   6.980   2.297  0.2632 -0.1968 -0.0116
24989W        W41250  11.081   6.173  13.523  0.5943  0.2073  0.1456
24990W        W41251  15.626   3.716   6.086 -0.0336 -0.2025 -0.1089
24991W        W41252  15.805   4.658   3.052  0.0680 -0.0940 -0.0281
24992W        W41253  16.118   5.012  14.502 -0.0160  0.1573  0.0337
24993W        W41254  12.728  13.719   6.275 -0.1349  0.1024 -0.2404
24994W        W41255  16.124  15.908   0.625 -0.0518  0.0062  0.2136
24995W        W41256   8.207   2.887  12.616  0.0481 -0.1454  0.0357
24996W        W41257  11.162   7.684   0.816  0.2506  0.0437 -0.0920
24997W        W41258   7.279  13.573  16.352 -0.1287  0.0610 -0.2375
24998W        W41259  10.507   3.395  16.917 -0.0490 -0.1478 -0.3434
24999W        W41260  12.431   1.444   1.339  0.2502  0.0691  0.1595
25000W        W41261   1.904   9.558  15.648 -0.0065  0.0248 -0.2610
25001W        W41262  16.991   2.260   2.055 -0.2205  0.3181 -0.1495
25002W        W41263   2.720   7.064   2.140 -0.0438  0.2460 -0.3055
25003W        W41264   5.487   7.045   2.885  0.1543  0.0781 -0.1244
25004W        W41265  15.380   6.870   5.474  0.0686  0.3517  0.0211
25005W        W41266   5.878   7.069  12.707  0.1658 -0.0885  0.3543
25006W        W41267   5.959   2.831   1.550 -0.0988  0.1818  0.0290
25007W        W41268  16.639   5.377   4.634 -0.0962  0.2297 -0.0163
25008W        W41269   9.228   1.306  14.708 -0.0632 -0.1084  0.0158
25009W        W41270  14.910   1.729   0.044 -0.0526 -0.2657  0.1277
25010W        W41271  13.154  13.788  13.916 -0.3117  0.1569  0.0269
25011W        W41272   5.713  10.086   2.784  0.1332 -0.1409 -0.0773
25012W        W41273   8.691  16.814   5.151  0.1650 -0.0005 -0.3634
25013W        W41274  12.306  16.866  11.806 -0.1115  0.2315  0.0028
25014W        W41275  12.861  14.153   0.611  0.1319 -0.0373 -0.2412
25015W        W41276  12.364  17.089  12.274  0.0945 -0.0374 -0.1484
25016W        W41277   4.792  11.094  12.702  0.1174  0.0663  0.1391
25017W        W41278  13.607  15.660   2.112  0.1941 -0.1888  0.0275
25018W        W41279   4.602   9.129  15.217 -0.0180 -0.1014 -0.1339
25019W        W41280  10.103   5.167  15.306 -0.0114  0.3721 -0.2018
25020W        W41281  15.327   2.638   2.296  0.0958 -0.0416  0.1977
25021W        W41282   7.612  14.987  12.414  0.0419 -0.0608  0.1218
25022W        W41283  15.637   0.648   0.381  0.1913  0.0895 -0.3587
25023W        W41284  13.573  11.763  14.111  0.0437  0.2891 -0.1471
25024W        W41285  10.951   4.725  15.938 -0.0161  0.2376  0.0460
25025W        W41286   4.942   7.230   0.681 -0.1318 -0.1892 -0.0067
25026W        W41287   6.894   2.071   1.640 -0.0243 -0.1417 -0.1076
25027W        W41288   7.292  13.363  12.543 -0.1752  0.0901 -0.2405
25028W        W41289   6.916   4.683  16.402 -0.1853 -0.1464  0.0272
25029W        W41290   3.222   8.938   1.826 -0.1317  0.1252  0.0651
25030W        W41291  13.592   7.383  15.233  0.3082  0.1295 -0.0217
25031W        W41292  14.723   9.592  13.129 -0.0828 -0.0369  0.2355
25032W        W41293   1.191  13.634  12.714 -0.1604 -0.1295  0.1445
25033W        W41294   8.850   6.653  13.802 -0.0586 -0.0246 -0.0363
25034W        W41295   8.093  13.081  12.193 -0.2339  0.4123 -0.1544
25035W        W41296  15.008   9.837  15.826  0.4662 -0.0660  0.1719
25036W        W41297   9.725   5.244  16.429  0.1980 -0.1552 -0.1850
25037W        W41298  10.018   0.356   2.980  0.0299 -0.3272 -0.1032
25038W        W41299   8.282  11.832  11.421 -0.0505  0.0278 -0.0898
25039W        W41300   3.392  15.365  16.703  0.0437  0.4779  0.0945
25040W        W41301   1.641  17.266   2.208  0.0048  0.0807  0.1776
25041W        W41302  16.255   1.120  13.941  0.1544  0.0447  0.1737
25042W        W41303  14.133  16.730  16.274  0.0409 -0.1954  0.0823
25043W        W41304   2.519  15.317  12.579 -0.0916  0.0538  0.1529
25044W        W41305   4.544   2.848  13.592 -0.1537  0.1441  0.0457
25045W        W41306  16.055  14.207  16.616 -0.0659 -0.0056 -0.0456
25046W        W41307  10.594  12.275  12.015 -0.0236  0.0669  0.0308
25047W        W41308   8.431   1.318   4.313  0.1427 -0.2145 -0.0516
25048W        W41309  13.557  13.574   2.228 -0.2871  0.1472 -0.0796
25049W        W41310   6.451  15.054   1.498 -0.0859  0.0874  0.0580
25050W        W41311   7.641   0.122  11.781  0.0578 -0.2152 -0.0772
25051W        W41312   9.515  17.184   4.455  0.1393 -0.2311  0.0546
25052W        W41313   2.954   1.673  13.018  0.1256 -0.0426 -0.2326
25053W        W41314  16.953  15.689  15.886 -0.1571 -0.0521  0.1512
25054W        W41315  14.863  17.285  16.305  0.0818 -0.2865  0.2754
25055W        W41316   1.405   3.754   0.513 -0.1320  0.1805  0.1724
25056W        W41317   3.798   9.204  12.952 -0.0465 -0.1975 -0.1261
25057W        W41318  12.471  12.106  16.653  0.0510  0.1130 -0.1529
25058W        W41319  15.928   1.775  12.222 -0.1286 -0.0767  0.3332
25059W        W41320   2.136  11.239  13.480 -0.1768 -0.0308  0.2070
25060W        W41321  10.800  10.505  11.517  0.1291  0.3012 -0.0873
25061W        W41322  11.423  12.186  13.304 -0.3198  0.0433 -0.2569
25062W        W41323   7.558   7.301   4.018 -0.2201  0.1534  0.2769
25063W        W41324  13.737  10.658   3.037 -0.1220 -0.1530 -0.0634
25064W        W41325  15.588   9.975  13.009  0.2031 -0.3348  0.1324
25065W        W41326   9.445   3.107   3.856 -0.1883  0.0160  0.1202
25066W        W41327   4.311   7.402  15.890 -0.2410  0.0376 -0.0656
25067W        W41328   4.981  11.418   2.209 -0.1389 -0.0021 -0.1068
25068W        W41329  10.286   8.051   4.622 -0.0244  0.0726  0.1696
25069W        W41330  10.368  11.789   3.363  0.0533  0.2526  0.0538
25070W        W41331   2.624   9.629   1.978 -0.1326  0.0552  0.0059
25071W        W41332   8.572   6.776  13.314 -0.0949 -0.0304 -0.0455
25072W        W41333  11.357   3.896   4.640 -0.2019  0.1895  0.0543
25073W        W41334  16.488   7.876   4.982  0.2220  0.0687  0.2131
25074W        W41335  14.268  15.329   1.538 -0.0573 -0.0659  0.2313
25075W        W41336  17.810   3.172  14.497  0.1136 -0.0255  0.1609
25076W        W41337   8.661   7.354  11.697 -0.3125 -0.1601  0.1243
25077W        W41338   3.514   7.239  15.894  0.0495  0.1397 -0.0412
25078W        W41339   2.202   3.341  12.809  0.0289  0.0685  0.0357
25079W        W41340   1.527   0.896   1.189 -0.0255 -0.1584  0.3709
25080W        W41341  11.667   4.511  16.960  0.0125 -0.2455  0.0188
25081W        W41342  12.093   2.269  12.129  0.1165  0.1420  0.2065
25082W        W41343   7.334  15.010  11.979 -0.1643  0.1549  0.2990
25083W        W41344  10.690   2.513   4.507 -0.1449 -0.1187 -0.0443
25084W        W41345   8.043   4.244  12.479 -0.0492  0.2379  0.0413
25085W        W41346  15.685  17.392   4.693  0.0392 -0.0746 -0.0840
25086W        W41347  13.518   5.599  16.603  0.0431  0.1771 -0.0078
25087W        W41348   5.414  13.158   5.178  0.1076  0.1705 -0.4574
25088W        W41349  15.591   1.393  13.119  0.1359  0.1293  0.2173
25089W        W41350  11.399  14.703  12.862  0.0359  0.2445  0.2609
25090W        W41351   4.377   9.200   5.019 -0.1434 -0.1832 -0.1068
25091W        W41352  15.078  12.853   5.669  0.2266 -0.2693  0.2020
25092W        W41353  14.619  11.608   4.047  0.0073  0.1341  0.1619
25093W        W41354  15.565   5.786  16.406  0.1282  0.1411 -0.3997
25094W        W41355   7.945   8.260   2.425  0.0580  0.0621 -0.1003
25095W        W41356  13.073  14.358   1.997 -0.3447 -0.0466  0.0790
25096W        W41357  13.362  11.893   1.574 -0.0786 -0.1365  0.0403
25097W        W41358   7.946   2.627   0.594 -0.1280  0.0392 -0.1462
25098W        W41359  16.285  12.394   5.486 -0.3135  0.1170 -0.0849
25099W        W41360   0.467  12.405   1.339 -0.0434  0.0980  0.1595
25100W        W41361   8.126  14.696  16.043  0.0243 -0.0395 -0.1090
25101W        W41362   1.138  10.887   0.501  0.1996  0.1187 -0.0010
25102W        W41363  12.078   8.920  16.034  0.2735  0.0514 -0.0019
25103W        W41364   8.177  12.847  15.844  0.3138  0.2080 -0.1375
25104W        W41365  11.280   0.909   5.925 -0.4153 -0.0833  0.0397
25105W        W41366  16.610  15.567   1.689  0.0052  0.3022 -0.0883
25106W        W41367  13.416  11.725  16.913 -0.3037  0.0300  0.2634
25107W        W41368   5.091   9.497   0.352 -0.1237  0.2799  0.0137
25108W        W41369  12.469  15.036  15.169  0.2379  0.1875 -0.0353
25109W        W41370   3.725   5.614  13.547  0.1592  0.2073  0.2346
25110W        W41371  13.785  12.785  13.895  0.2638 -0.0577 -0.1790
25111W        W41372   5.377   3.011  13.919  0.0178 -0.0345  0.0609
25112W        W41373  15.188   5.315   3.556 -0.0407  0.2525 -0.2320
25113W        W41374  14.525  10.315  16.730 -0.2796 -0.1293  0.0798
25114W        W41375  13.120  10.279   0.119 -0.0178  0.1463 -0.1037
25115W        W41376   3.548  10.941   3.459  0.2252 -0.2106  0.1476
25116W        W41377   8.500   3.023   3.553 -0.1252  0.0808 -0.0465
25117W        W41378   0.567  13.019  13.588 -0.0961 -0.1442 -0.0780
25118W        W41379   9.833  13.651   0.729 -0.1208 -0.3785  0.2057
25119W        W41380   8.028  10.350   2.556  0.3923 -0.2081 -0.0857
25120W        W41381  15.583  12.637  15.500  0.2130  0.0310  0.0621
25121W        W41382   1.782   5.247   5.658 -0.0530 -0.0951  0.2611
25122W        W41383  11.523   6.896   1.645 -0.0260 -0.0936  0.0881
25123W        W41384   1.011  15.933   4.892 -0.3278  0.0437  0.2583
25124W        W41385   9.324   7.560  12.564 -0.2082  0.2002  0.1543
25125W        W41386  13.266  10.646   3.508  0.0842  0.2224 -0.3046
25126W        W41387  12.424   4.633  11.686  0.0501  0.1333 -0.0026
25127W        W41388   5.473   3.246  12.763 -0.0200  0.0468  0.6228
25128W        W41389  11.633   6.508  11.684 -0.0076 -0.1306 -0.0882
25129W        W41390   3.415  17.140  11.675  0.4094 -0.1673  0.1566
25130W        W41391  17.778  15.239  13.304 -0.1804  0.1053  0.0241
25131W        W41392  15.469  12.136   4.911  0.4123 -0.0755 -0.2311
25132W        W41393  16.615   8.089  14.879 -0.0214  0.3318 -0.1571
25133W        W41394   9.325  13.107  14.981  0.0529 -0.1054  0.2013
25134W        W41395  10.155  13.295  14.105  0.2162  0.1255 -0.0621
25135W        W41396  13.404  11.309  15.120 -0.2454 -0.0024  0.2855
25136W        W41397  12.229   9.136   6.339  0.2245  0.1597 -0.0416
25137W        W41398  16.700  14.595  16.664  0.2873 -0.0364  0.2606
25138W        W41399  15.240   1.340  16.653 -0.1713 -0.1737 -0.0164
25139W        W41400   2.924  16.208  13.061 -0.0959  0.0619 -0.1266
25140W        W41401  11.327  10.574  15.530 -0.1540 -0.1018  0.0789
25141W        W41402  10.211   0.286  16.472 -0.0913 -0.0060 -0.0567
25142W        W41403   0.907   5.024   5.247 -0.0245  0.3912 -0.0487
25143W        W41404   3.157   0.024   2.626 -0.4199 -0.1973  0.2024
25144W        W41405   2.104   7.021  16.646 -0.1466  0.0256 -0.2310
25145W        W41406  15.028  11.331   1.659  0.0402  0.2512 -0.1005
25146W        W41407  12.027   0.476   1.680 -0.1624 -0.2189 -0.0567
25147W        W41408   9.618  13.783   1.843 -0.0766  0.1441  0.1763
25148W        W41409  15.688   5.077  16.504  0.3433 -0.0487  0.1183
25149W        W41410  17.526   6.161  14.972  0.0908 -0.1293  0.2794
25150W        W41411   1.386   5.621  13.006  0.0111 -0.1925  0.1779
25151W        W41412   6.629   7.367   5.178 -0.0572  0.1242 -0.1457
25152W        W41413   8.986  15.662   3.561 -0.2038 -0.2298  0.0300
25153W        W41414  14.965  13.536   1.225  0.4050  0.2136  0.0899
25154W        W41415   9.324  10.583  14.497  0.0203  0.0277  0.0157
25155W        W41416  12.653  12.887  15.999 -0.0496  0.0788  0.3231
25156W        W41417   6.245  15.460   1.374 -0.0945  0.1811 -0.2119
25157W        W41418   8.674   5.817   2.499  0.0016  0.1757  0.2062
25158W        W41419   5.925   3.408   2.988 -0.2843  0.3486  0.0633
25159W        W41420  16.447   7.092   2.801  0.1082 -0.0402  0.3369
25160W        W41421  15.348  14.280  14.377  0.0547  0.0341 -0.1564
25161W        W41422   2.764   1.796  13.580 -0.0501 -0.1065 -0.2133
25162W        W41423   5.813   1.965   2.590  0.0661 -0.4224  0.2166
25163W        W41424  14.850   7.648  12.160  0.2024  0.1429 -0.3045
25164W        W41425  17.584   2.440   0.917 -0.0484  0.0587 -0.2736
25165W        W41426   0.271   7.733  12.092 -0.0895 -0.1845 -0.1835
25166W        W41427  16.315   1.643   0.953  0.0680 -0.2729  0.0200
25167W        W41428   5.458   3.345   3.810 -0.2590  0.0548  0.1794
25168W        W41429   5.316   9.355  11.441 -0.0797 -0.1601 -0.3403
25169W        W41430   8.158   4.579  16.598 -0.3376 -0.2864 -0.0723
25170W        W41431   2.281   1.088   1.970  0.0008  0.0173  0.0658
25171W        W41432   8.092  11.668   5.647  0.0545  0.0325 -0.0100
25172W        W41433  13.548   3.730  12.559 -0.1919 -0.1346 -0.0070
25173W        W41434  13.316   4.236   5.698  0.0575  0.0453  0.0276
25174W        W41435   5.021  13.723   0.300 -0.1946 -0.0445  0.0738
25175W        W41436   7.166  16.171   0.914 -0.1293 -0.2857 -0.0417
25176W        W41437   2.913  16.748   3.784 -0.1235 -0.0236  0.1681
25177W        W41438  13.440  15.373  13.190  0.1084 -0.2273 -0.0533
25178W        W41439  12.468  14.678   1.957 -0.3727 -0.1089  0.0525
25179W        W41440  13.419   0.116  15.535  0.1909  0.2093 -0.0386
25180W        W41441  14.888  11.875  12.397  0.2317  0.0628 -0.4867
25181W        W41442   5.347  11.917   4.260  0.3172  0.0113  0.1502
25182W        W41443  16.776   1.855   2.991  0.0918  0.0896  0.0068
25183W        W41444  17.242  17.157   4.374  0.1340 -0.0786 -0.1877
25184W        W41445   6.964   3.934   3.677 -0.0774 -0.3149  0.0433
25185W        W41446  16.761   9.517   1.560  0.0372 -0.1877 -0.1216
25186W        W41447  15.487   6.231  15.913 -0.0217 -0.2033 -0.2169
25187W        W41448   7.675   2.477   1.890  0.0489 -0.1041  0.0137
25188W        W41449  14.637  16.800   4.003 -0.1562  0.0577  0.0878
25189W        W41450   6.975  10.147   1.949 -0.0591  0.0414 -0.2690
25190W        W41451  11.327  13.222  15.456 -0.0244 -0.0209  0.0411
25191W        W41452   5.841   4.348   3.338 -0.2316  0.1682 -0.0453
25192W        W41453  16.955  11.330  12.748  0.0457  0.2543 -0.2210
25193W        W41454   4.858  17.846   0.513  0.0754  0.0413  0.2136
25194W        W41455   0.297  10.101  15.535  0.0402 -0.4346  0.1962
25195W        W41456  16.092   2.472  13.093 -0.0886  0.0527 -0.2585
25196W        W41457  15.635   7.112  14.143 -0.1101 -0.0404 -0.1578
25197W        W41458   9.070  10.883  14.858  0.1997 -0.1446  0.0106
25198W        W41459   0.643   8.434  14.083  0.0837 -0.1655 -0.1168
25199W        W41460   1.474  13.807  14.446  0.1252  0.0819 -0.2296
25200W        W41461   4.235   9.784  15.077  0.2421 -0.3579  0.0437
25201W        W41462  12.303   7.288   3.414 -0.1577 -0.0331  0.2013
25202W        W41463  11.142   9.455  14.392  0.2230 -0.1775  0.0059
25203W        W41464   4.148   3.706  15.512 -0.2406  0.4082 -0.2927
25204W        W41465   4.555  17.791   0.915 -0.1058 -0.0766  0.0862
25205W        W41466  12.945   4.008  13.544  0.0548 -0.1420 -0.0107
25206W        W41467  13.095  16.402  12.944  0.1831 -0.2099 -0.0352
25207W        W41468   3.970   0.205   4.750  0.0691  0.3515  0.3383
25208W        W41469   6.016   5.716   5.421 -0.0433 -0.0349  0.2599
25209W        W41470  10.268  17.430  16.864 -0.0014  0.0919  0.0239
25210W        W41471  13.877   9.259  13.980 -0.2216  0.3148 -0.0879
25211W        W41472   6.246  17.089   2.788  0.1643  0.0531 -0.0865
25212W        W41473   4.479   4.800   0.786  0.0653  0.1442  0.0917
25213W        W41474  17.082   2.335   4.173  0.1142  0.0418  0.0165
25214W        W41475   6.936  11.972  13.999  0.2022 -0.0952  0.0251
25215W        W41476   6.052   5.252  12.734  0.0992 -0.2487 -0.0806
25216W        W41477   4.929  13.246   0.597  0.3565  0.1011  0.0597
25217W        W41478   1.612   9.598   5.654  0.2046 -0.2795  0.3401
25218W        W41479   0.005   7.325   1.108 -0.3634 -0.2818 -0.1260
25219W        W41480   4.563   6.702  16.489 -0.2994 -0.0833  0.0848
25220W        W41481  15.513   4.321   3.593  0.0040  0.1601  0.2460
25221W        W41482   2.031  16.755   2.278 -0.1571 -0.2702 -0.0993
25222W        W41483  13.631   5.999   1.573 -0.1642 -0.3529 -0.3102
25223W        W41484  12.292  11.713   5.548  0.1123  0.1912 -0.0779
25224W        W41485   7.521   2.240  14.368  0.0697  0.0181 -0.2630
25225W        W41486  11.235   4.054   3.387 -0.2576 -0.1548 -0.1156
25226W        W41487   1.291  13.756  16.182 -0.2645 -0.1614  0.1439
25227W        W41488  15.671  11.341  15.481 -0.2048 -0.2515  0.1400
25228W        W41489   1.697  16.791  11.878  0.1558  0.0289  0.1866
25229W        W41490  11.665  14.209   0.171  0.0097 -0.2972 -0.0965
25230W        W41491  15.203   0.490  12.562  0.1423  0.0823  0.3570
25231W        W41492  17.848   3.311  16.883  0.2572 -0.0884  0.0251
25232W        W41493   9.532   3.767  12.782  0.4568  0.1500  0.3011
25233W        W41494  13.116  14.299  14.871 -0.0016 -0.0821 -0.3328
25234W        W41495  16.897   1.799  12.639  0.0556  0.0391  0.0590
25235W        W41496   2.953  14.806  13.402 -0.0772  0.2953 -0.0398
25236W        W41497  13.047  12.395  16.128  0.0373 -0.0380  0.1714
25237W        W41498   7.418   1.169  13.851 -0.1211  0.2692  0.2970
25238W        W41499  17.736   1.527  13.557 -0.1968  0.2049 -0.2078
25239W        W41500   8.823   8.000  16.745 -0.2133  0.0359  0.0526
25240W        W41501  13.042  13.557   0.841 -0.1581 -0.1338 -0.3581
25241W        W41502   3.258  17.638  15.647  0.0094 -0.2019  0.0509
25242W        W41503  14.833  17.252   2.888  0.2914  0.3966 -0.2962
25243W        W41504  17.831   1.066  13.424  0.1516  0.3873  0.0841
25244W        W41505   5.711   2.688   4.573  0.3506  0.0077 -0.0361
25245W        W41506   2.673   5.901  16.664  0.2123 -0.0520  0.2524
25246W        W41507   1.335   2.188   6.104  0.0607  0.1903 -0.1581
25247W        W41508   0.705  17.613  11.543 -0.0528  0.0897 -0.0582
25248W        W41509   3.381  12.261  12.919  0.1500 -0.0035 -0.2212
25249W        W41510   9.420   9.767  13.358  0.1668 -0.0982 -0.3214
25250W        W41511   3.019   6.508   3.441  0.2355  0.1186  0.0027
25251W        W41512  16.682  12.301  10.878  0.1758  0.0689 -0.2103
25252W        W41513  10.030  14.948  11.344  0.0151  0.1167  0.1272
25253W        W41514  14.275   3.394   2.196  0.1841  0.5889  0.1793
25254W        W41515   9.110  12.605   3.264  0.2649 -0.1519  0.0500
25255W        W41516   1.701   0.236  16.489 -0.0420  0.1983 -0.1373
25256W        W41517  17.827  10.113   0.732 -0.3163  0.2407  0.1071
25257W        W41518   0.218   4.198  14.840 -0.0778  0.1972  0.0219
25258W        W41519  13.566  12.596   2.205 -0.3140  0.1824 -0.1153
25259W        W41520   8.071   5.754   3.552  0.0194  0.0874  0.0713
25260W        W41521   1.548   6.316   4.308  0.2424 -0.0098  0.5038
25261W        W41522   1.580   6.375   2.338 -0.3556  0.0261  0.1502
25262W        W41523   1.220   4.150   0.816 -0.1872  0.0140  0.1177
25263W        W41524   6.595  10.011  16.500  0.2933  0.1012 -0.3886
25264W        W41525   3.770   6.914   1.178  0.1822 -0.0207  0.0523
25265W        W41526   1.264   2.424   5.138 -0.2063  0.1994  0.1192
25266W        W41527  16.577  15.761  14.920 -0.1928  0.0664  0.1036
25267W        W41528   4.725  10.784   0.949  0.1241 -0.0060  0.1756
25268W        W41529   5.666   5.521  12.880  0.1312 -0.1735  0.1183
25269W        W41530   0.736   3.046  11.979  0.1049  0.2483  0.0835
25270W        W41531   1.467  15.022  12.327 -0.1806 -0.0012  0.2877
25271W        W41532   7.826   0.479   1.543  0.1225  0.0707 -0.0810
25272W        W41533   6.476   9.193   0.626  0.1175  0.1431 -0.0767
25273W        W41534  10.694   8.430  16.300 -0.2084  0.1353 -0.4878
25274W        W41535   0.042   8.102   4.917 -0.1818 -0.1155  0.1010
25275W        W41536  13.460   9.982   1.951 -0.3063 -0.0374  0.0789
25276W        W41537  10.381   4.219  12.150 -0.1289  0.0388 -0.1727
25277W        W41538  12.253   5.786   1.143 -0.3984 -0.1589 -0.2667
25278W        W41539  14.717  15.550  16.754 -0.0735  0.1309 -0.3210
25279W        W41540  17.845  12.755  11.912  0.1264  0.0972  0.2888
25280W        W41541  16.674  12.146  14.640 -0.0351 -0.3199  0.2077
25281W        W41542   1.816  11.085   0.073 -0.0443  0.2540 -0.3956
25282W        W41543   0.718   2.712  14.855 -0.0529  0.1867 -0.0406
25283W        W41544   7.322   5.717   1.317  0.1244  0.1043  0.1973
25284W        W41545   7.187   0.112  11.381 -0.1093  0.0305 -0.1890
25285W        W41546  16.915   8.910   0.474 -0.1834 -0.2044 -0.1633
25286W        W41547   0.282  17.086   5.840  0.1782  0.2154  0.0944
25287W        W41548   6.282   6.285   4.311 -0.4851  0.2066 -0.0589
25288W        W41549   6.246  11.890  12.180 -0.0219  0.1141 -0.2619
25289W        W41550  11.975  10.828   4.353  0.2581  0.1774  0.0050
25290W        W41551   6.222  17.721   5.824  0.1432 -0.1501  0.0437
25291W        W41552   1.795   1.968   2.145 -0.0073  0.1396 -0.0986
25292W        W41553   7.023  16.414  12.236 -0.0782  0.1799 -0.4652
25293W        W41554   4.846   3.639   4.206 -0.1590  0.1022 -0.1302
25294W        W41555   5.382  10.269  16.292  0.1032 -0.0537  0.2493
25295W        W41556   5.598   5.835  15.047  0.3220 -0.2101  0.3204
25296W        W41557   6.092   2.505  13.627  0.1646 -0.1720  0.3544
25297W        W41558  10.092  15.674  15.290  0.0464  0.0606  0.2508
25298W        W41559  14.832  11.909  13.843  0.0528  0.0343  0.2695
25299W        W41560   9.283   9.747  14.191 -0.0963 -0.0470 -0.1830
25300W        W41561   6.694   3.291  13.484 -0.3411 -0.1383  0.2468
25301W        W41562  10.574   8.557  13.318 -0.0564  0.2837  0.0952
25302W        W41563   8.993  15.701  13.525 -0.0756  0.0644 -0.0630
25303W        W41564  10.383  11.630   2.534  0.0248 -0.0704 -0.2689
25304W        W41565   7.341  11.772  16.144 -0.0302 -0.2076 -0.2938
25305W        W41566  13.775   0.918  14.313 -0.1310 -0.1632  0.0244
25306W        W41567  12.759   2.896  14.731 -0.2226 -0.1826 -0.2577
25307W        W41568   7.879   5.318  14.458 -0.1904 -0.0394 -0.1308
25308W        W41569  15.520  12.701  12.481 -0.2225  0.0872 -0.0683
25309W        W41570   3.171   3.446  13.188 -0.0205  0.0262 -0.3285
25310W        W41571   9.702   2.092  16.262 -0.1451 -0.0581  0.0797
25311W        W41572  11.563   3.970  11.775 -0.0928  0.3376 -0.1373
25312W        W41573   0.007   6.802   4.095  0.5553 -0.1565  0.0347
25313W        W41574  13.040   8.196  16.852 -0.0302 -0.0756 -0.4022
25314W        W41575   6.117   1.436  12.899  0.5075  0.1591 -0.1299
25315W        W41576   4.209  13.498  12.212 -0.0643  0.0423  0.1254
25316W        W41577   0.802  14.665   0.027  0.0677 -0.0415 -0.3076
25317W        W41578  12.255   5.527   5.176  0.1114 -0.1316  0.0136
25318W        W41579   1.647   5.620   3.237  0.0444  0.1847  0.0798
25319W        W41580   0.900   2.288   2.107  0.0044  0.5708 -0.1191
25320W        W41581  15.822   0.388  13.095  0.0822 -0.3048 -0.0238
25321W        W41582   6.868   3.170   1.162 -0.0383 -0.0926  0.2853
25322W        W41583   7.163   1.542   0.881 -0.2686 -0.0396  0.2472
25323W        W41584   1.963  14.608  12.648 -0.1857 -0.0560  0.1836
25324W        W41585  11.732   0.685   6.544  0.0122 -0.1353  0.0651
25325W        W41586  13.544  11.783   5.524  0.1273  0.2147 -0.1051
25326W        W41587   3.865   2.048  14.422 -0.1117  0.0873 -0.2743
25327W        W41588  12.147   7.591  15.684  0.0847  0.1203 -0.1356
25328W        W41589   3.880  15.215  14.126 -0.1169  0.0328  0.0038
25329W        W41590  13.932   8.124  15.164  0.0903 -0.0418 -0.1813
25330W        W41591  12.409   6.210  12.717  0.2827 -0.1054 -0.0737
25331W        W41592   8.791   4.502  13.655  0.4751 -0.2129  0.1243
25332W        W41593  14.492  11.309   5.506  0.1881  0.2758  0.0317
25333W        W41594  17.804   5.817  13.692 -0.0507  0.2355  0.1560
25334W        W41595   4.782   9.244   4.704  0.0979  0.0240 -0.3476
25335W        W41596   6.553  16.225  14.632  0.2286 -0.0642  0.1326
25336W        W41597   7.076  11.347   1.394 -0.0544 -0.0580  0.2247
25337W        W41598  15.377  10.731   5.008  0.1119 -0.0255 -0.0224
25338W        W41599  16.718   4.788   5.610  0.0937  0.1822 -0.3233
25339W        W41600  12.957  15.639  16.178  0.1432  0.2339 -0.0851
25340W        W41601  11.772   7.730   0.027 -0.4013 -0.0414 -0.1278
25341W        W41602  11.612  15.500  12.881  0.2352  0.0689  0.0636
25342W        W41603  17.510  13.113   1.165 -0.1218 -0.0349  0.1786
25343W        W41604   4.586  10.302   3.075 -0.2419  0.1142 -0.1130
25344W        W41605   0.901   1.563   2.445  0.1002 -0.1446 -0.0567
25345W        W41606   3.316   7.372  15.498 -0.0320  0.0025  0.0641
25346W        W41607   9.258  15.608  15.089 -0.1108 -0.0738 -0.2224
25347W        W41608   0.835   4.898   1.239 -0.3342 -0.0341  0.2756
25348W        W41609   7.452   8.455  16.279  0.2191  0.1908 -0.1518
25349W        W41610  14.894   7.682  11.551  0.2610  0.0694 -0.3502
25350W        W41611   7.400  12.212   5.255 -0.1922  0.0872  0.1860
25351W        W41612   2.600   2.332   1.874  0.0992 -0.2744 -0.0873
25352W        W41613  15.877   1.720  16.961 -0.0028  0.0190 -0.1664
25353W        W41614  13.277  13.900   1.941  0.0559 -0.0584  0.1329
25354W        W41615   8.016  11.028  16.069 -0.0363 -0.0056  0.0601
25355W        W41616  12.802  12.950   1.990  0.1002  0.2339 -0.0390
25356W        W41617   2.481  15.306  15.056 -0.0413 -0.1145 -0.0814
25357W        W41618   7.860   3.179  12.022 -0.3569 -0.0941  0.0546
25358W        W41619  12.787   1.022   3.093  0.0291  0.2352 -0.0390
25359W        W41620  17.412  17.638  14.142 -0.1137 -0.0602 -0.0757
25360W        W41621  13.493  13.851  14.473 -0.1033  0.0966  0.1197
25361W        W41622  12.199   4.006  15.468 -0.0538  0.1466 -0.2970
25362W        W41623  12.451   7.220  15.449 -0.1949 -0.1837  0.2956
25363W        W41624  17.842  11.305   2.426 -0.2398 -0.1330 -0.0435
25364W        W41625  17.554  16.251   4.135  0.2108  0.0004  0.0946
25365W        W41626  16.833  12.537   0.147 -0.3744 -0.0372 -0.1161
25366W        W41627   9.155   8.828  12.559  0.2210  0.3669  0.0303
25367W        W41628   0.939   5.952   1.666  0.1928  0.5290  0.2035
25368W        W41629   3.239  10.336  12.437  0.3386 -0.0730  0.2015
25369W        W41630   1.904  17.786  12.593  0.0270 -0.1596  0.0952
25370W        W41631   3.150  10.122   3.665  0.0786 -0.3542 -0.0624
25371W        W41632  11.242   1.552   4.012  0.1629 -0.2204  0.1786
25372W        W41633  12.282  10.255   2.666 -0.0086 -0.1801  0.2821
25373W        W41634   6.038  12.837   4.415 -0.1593  0.1435  0.0598
25374W        W41635  10.687  12.203  15.868  0.1541  0.2934  0.0638
25375W        W41636  12.841  14.103  15.378  0.1222 -0.0818 -0.0043
25376W        W41637  13.740   0.906  15.419 -0.1575 -0.1637 -0.1413
25377W        W41638  15.083   8.988   1.338  0.1543 -0.1099 -0.1774
25378W        W41639   5.585  15.813  16.211 -0.1563 -0.0738 -0.0889
25379W        W41640  12.573   6.902   3.604 -0.2321  0.0539  0.0333
25380W        W41641   6.005   0.884   0.860  0.4454  0.0812 -0.2035
25381W        W41642   2.143  14.096   5.528 -0.0195 -0.3052 -0.1099
25382W        W41643  12.042   3.890  11.632  0.1028  0.0972 -0.0425
25383W        W41644  12.309   0.584  12.440  0.0230 -0.0446  0.1658
25384W        W41645  10.997  16.529   3.531 -0.0169 -0.0097 -0.1404
25385W        W41646   3.267  14.984  15.896 -0.1980  0.0591 -0.2397
25386W        W41647   9.379   8.358  13.093  0.3027 -0.1856  0.1096
25387W        W41648   9.612   4.758  12.104  0.1104  0.0476  0.1071
25388W        W41649   6.369  10.870  16.848  0.0582 -0.1558  0.0495
25389W        W41650  15.656  16.327   1.883  0.0833 -0.0613  0.2310
25390W        W41651   8.176  13.290  16.683 -0.0822  0.0207  0.0172
25391W        W41652  13.124   7.367  16.609  0.1966 -0.1883 -0.1806
25392W        W41653  16.054  11.253   0.490 -0.1011 -0.0511  0.1337
25393W        W41654  11.772   6.397   5.449  0.1783  0.1423 -0.0819
25394W        W41655  17.823  13.738  12.370 -0.1603  0.1122  0.1661
25395W        W41656  14.155  15.128  12.432 -0.5073  0.0047  0.3178
25396W        W41657   4.482  15.092   4.967 -0.1168  0.0967  0.0318
25397W        W41658   2.831   0.861  16.853 -0.2457 -0.2150 -0.0104
25398W        W41659   2.749  10.581  12.412  0.2989 -0.0032  0.0589
25399W        W41660  15.334   1.431  14.819  0.2663  0.0706 -0.0337
25400W        W41661  11.268  16.987   2.394 -0.0395  0.0265 -0.0579
25401W        W41662   9.007   8.226   1.662 -0.0535 -0.2487  0.2648
25402W        W41663   5.348   6.462   4.070  0.1118 -0.0905 -0.1610
25403W        W41664   8.329   2.664  11.931 -0.1718  0.2779 -0.0468
25404W        W41665   4.094   6.571  16.293  0.1611 -0.1972 -0.1202
25405W        W41666   1.746  12.218  15.134  0.0497  0.0864 -0.0337
25406W        W41667   3.122   7.275   3.086  0.0111  0.1020 -0.0889
25407W        W41668   3.944  10.653  15.159  0.1061 -0.1738 -0.0938
25408W        W41669  14.532  12.021  12.819  0.4044 -0.0859 -0.0212
25409W        W41670   7.734   5.324   5.056  0.0597 -0.3553  0.2020
25410W        W41671   3.525  15.684   1.714  0.1624 -0.0891 -0.1419
25411W        W41672  16.593   5.827  14.885  0.0878 -0.0599 -0.0520
25412W        W41673  11.656   8.263   2.105  0.2207  0.1997  0.0618
25413W        W41674   7.415   6.566   0.813 -0.3699 -0.0249  0.2230
25414W        W41675   8.778   5.581  15.854  0.2168 -0.0010  0.3633
25415W        W41676   1.095  11.591  13.497  0.0377  0.1593 -0.0990
25416W        W41677  11.871  13.373  11.647 -0.1273  0.0797  0.2679
25417W        W41678  14.887  14.576   0.214 -0.1483  0.1964 -0.0964
25418W        W41679   2.403   1.931   3.468  0.1311 -0.2356  0.2172
25419W        W41680   6.115   1.820  15.052 -0.2735  0.1852 -0.1375
25420W        W41681  14.946   4.426   4.430 -0.1431 -0.2918 -0.2275
25421W        W41682  13.793   6.448  12.309  0.0268  0.1327  0.0414
25422W        W41683  15.460   7.759  11.555  0.0291 -0.0451 -0.2434
25423W        W41684   7.626   1.267  16.153 -0.0987 -0.2377  0.3952
25424W        W41685   6.891  17.695  15.208  0.3626 -0.0079 -0.2063
25425W        W41686  11.847   7.599  14.146  0.1789 -0.0778 -0.2302
25426W        W41687   5.198   3.659   6.677 -0.0161  0.2895  0.0674
25427W        W41688   8.490   2.113   2.975  0.2878 -0.2629  0.3060
25428W        W41689   6.885   0.298   4.343 -0.3019 -0.1187  0.0742
25429W        W41690  11.489   3.991  15.978 -0.0701  0.0228 -0.0303
25430W        W41691   6.186   8.082   4.250  0.2210 -0.0046  0.0949
25431W        W41692  12.890   1.519   2.954  0.0516  0.2605 -0.2469
25432W        W41693   8.108  12.264   3.987  0.0394 -0.0705 -0.1894
25433W        W41694  15.738   7.603   0.440  0.1626 -0.0865  0.1405
25434W        W41695   5.349  10.529   3.759  0.1630  0.0782 -0.2781
25435W        W41696  11.623  16.223   0.437 -0.0994  0.1042  0.0047
25436W        W41697   4.836   6.647  15.980 -0.1981  0.1573 -0.1800
25437W        W41698  16.408   6.473  14.511 -0.1669  0.0617 -0.0146
25438W        W41699   1.758  13.571   4.593  0.0407  0.0484 -0.0919
25439W        W41700   4.300   4.973  13.181  0.0394  0.0245 -0.0437
25440W        W41701   7.157   6.463  11.880  0.1543 -0.2435 -0.3447
25441W        W41702  12.138  14.607  15.166  0.0911  0.0135  0.1599
25442W        W41703  15.878   8.738  13.939  0.3212 -0.1833  0.1550
25443W        W41704   0.179   2.354  14.096 -0.0107 -0.2867 -0.1431
25444W        W41705   0.349   5.709   4.557  0.3257 -0.0572  0.1181
25445W        W41706  17.437   4.970   0.416  0.0373  0.1220 -0.0126
25446W        W41707  17.828   4.180   5.836  0.3082 -0.0172 -0.0197
25447W        W41708   9.093   3.984  12.684  0.2224 -0.0528  0.0605
25448W        W41709   5.449  10.379  11.663 -0.0808  0.3987 -0.4015
25449W        W41710   1.056   9.519  16.895  0.1474  0.1848 -0.1340
25450W        W41711   9.863   7.037  12.157 -0.1965  0.2393 -0.2992
25451W        W41712  10.097   8.212  14.752 -0.4337 -0.0961 -0.0132
25452W        W41713  16.385   9.268   0.130 -0.0016  0.0066 -0.1786
25453W        W41714  10.569   8.912  12.537 -0.1373 -0.0321 -0.0303
25454W        W41715   1.718   3.228   1.523  0.0537  0.1358 -0.0115
25455W        W41716  14.733  14.932  12.136  0.2012  0.0854 -0.0628
25456W        W41717  12.125   1.285  16.165  0.0671  0.2359  0.0367
25457W        W41718   6.176  13.440   0.085  0.0892  0.0284  0.1662
25458W        W41719  13.207   2.006   4.736 -0.0430  0.2343 -0.0266
25459W        W41720   5.599   7.611  16.018  0.1459  0.0681 -0.0164
25460W        W41721   8.267   7.904   5.877  0.1718  0.2275 -0.0368
25461W        W41722  16.806   4.225   0.298  0.0467  0.1414 -0.2320
25462W        W41723  13.742   7.648  11.882  0.4796 -0.0210  0.0831
25463W        W41724  12.158   2.713   1.946 -0.0606  0.1123 -0.3711
25464W        W41725  16.802  10.387  12.940  0.0348  0.1642 -0.3558
25465W        W41726   3.315  11.751   3.120 -0.1427  0.1021  0.1414
25466W        W41727   7.257  12.031   2.103 -0.1529  0.0877  0.2470
25467W        W41728  17.685   1.879   2.935  0.2130  0.1473  0.1607
25468W        W41729   2.664  10.532  14.941  0.0574 -0.2497  0.3146
25469W        W41730  16.539   1.354   5.107  0.0307  0.0530 -0.1281
25470W        W41731   9.335  14.931   0.225 -0.2357 -0.0030 -0.4329
25471W        W41732   6.281  13.821  16.141 -0.0776  0.0383  0.1428
25472W        W41733  17.066  10.303  16.514 -0.0481 -0.1885  0.1029
25473W        W41734  11.283   1.240  14.505  0.2968 -0.0558  0.2071
25474W        W41735  14.217   4.941   1.106 -0.0628  0.2496  0.2231
25475W        W41736  13.458  11.619   0.555  0.1607  0.2521 -0.0185
25476W        W41737  16.628  16.138  16.571  0.0705 -0.2890 -0.0502
25477W        W41738   1.674  11.449  12.688  0.2824 -0.0332 -0.2365
25478W        W41739  15.393   7.968  13.907 -0.0906  0.0951 -0.2419
25479W        W41740   2.857  16.923  13.845 -0.3547  0.0667 -0.3005
25480W        W41741  14.682  13.268   2.642 -0.0043  0.4712 -0.0413
25481W        W41742   7.812   2.999  14.841  0.0757  0.1561 -0.3762
25482W        W41743   9.472  11.078  11.878 -0.2053 -0.1606  0.2626
25483W        W41744  15.003  10.407   3.268 -0.1405 -0.1643 -0.2884
25484W        W41745  17.176  17.697  15.725 -0.0449 -0.1326  0.0354
25485W        W41746  16.846  11.851   3.752  0.0151  0.2802 -0.4834
25486W        W41747  13.339  11.623   3.969 -0.0766  0.0984 -0.0508
25487W        W41748  16.457   6.058   3.606  0.0880 -0.2840 -0.1602
25488W        W41749   0.082   9.696   4.240 -0.1867 -0.1750  0.0848
25489W        W41750  17.549   9.696  14.113  0.0801  0.2251  0.3435
25490W        W41751   7.599  10.716   2.349 -0.1081 -0.1091 -0.1013
25491W        W41752   2.057   9.528  15.101 -0.0121 -0.1122 -0.2154
25492W        W41753  15.247  12.394   2.567  0.0554 -0.0638  0.3381
25493W        W41754   5.843   7.765   1.466 -0.4137  0.0793  0.1673
25494W        W41755  17.052   2.370   0.824  0.1050  0.1375  0.1916
25495W        W41756   1.430   9.571  16.505 -0.2525  0.3479 -0.1404
25496W        W41757  10.922  13.465   1.756  0.0114  0.1304 -0.0345
25497W        W41758   9.815  13.259   1.548 -0.2687  0.0820 -0.0800
25498W        W41759   1.489  16.506  14.622  0.0007  0.2888  0.3409
25499W        W41760  13.528  13.491  15.101 -0.3420  0.2068  0.0387
25500W        W41761  14.074   5.870  13.489  0.0659  0.3247  0.2355
25501W        W41762   3.494   6.321  11.918 -0.2108  0.1993  0.0758
25502W        W41763  16.106   0.447  15.218 -0.1154 -0.0800 -0.1580
25503W        W41764  11.358   0.745  15.343  0.0148  0.1892  0.0577
25504W        W41765  17.861  17.514  13.283  0.0673  0.0247 -0.2456
25505W        W41766   6.541  12.774   4.326  0.2968  0.2526 -0.2535
25506W        W41767   1.243   5.189  12.948  0.0515  0.0110 -0.0123
25507W        W41768   1.385   1.306   4.670  0.0022  0.0679  0.0045
25508W        W41769   7.239   7.657   3.209 -0.0078 -0.1264  0.4310
25509W        W41770   5.485  15.156  14.067  0.1284  0.1066 -0.1443
25510W        W41771   6.278  17.725   0.031 -0.1823 -0.0805 -0.2526
25511W        W41772   3.430   3.816   3.820  0.0558  0.2772 -0.2761
25512W        W41773  11.637   3.203  14.765  0.0875  0.0631 -0.1802
25513W        W41774   4.980   8.118  16.061  0.0157 -0.2293  0.1591
25514W        W41775  16.897   0.451   0.481  0.2542  0.0039 -0.1595
25515W        W41776   4.248  12.346   2.835  0.2405 -0.0122  0.0019
25516W        W41777   0.487   8.991  15.139 -0.1660  0.2848  0.1037
25517W        W41778   7.823   0.725   4.172  0.2097 -0.0428  0.3805
25518W        W41779   1.987   5.921   5.925 -0.1788 -0.3200 -0.2559
25519W        W41780  17.398   8.809  15.829 -0.1662 -0.0727  0.0016
25520W        W41781  14.371  11.161  12.103 -0.1763  0.3187 -0.2090
25521W        W41782  17.334   2.788  16.191  0.0961 -0.0413 -0.1869
25522W        W41783   1.265   9.783  15.066  0.3447  0.0326  0.2421
25523W        W41784   6.192  12.424   1.363  0.1352  0.1042 -0.0143
25524W        W41785  13.811   5.067   4.620 -0.4436 -0.1127 -0.0531
25525W        W41786   0.603   2.490  14.419 -0.0107  0.1570  0.1770
25526W        W41787   5.827  13.435   5.876  0.3533 -0.0922 -0.2777
25527W        W41788  12.403   0.129   3.835  0.0316  0.1977  0.0009
25528W        W41789  13.162  14.234   1.514 -0.0000  0.1921 -0.1876
25529W        W41790   4.682   0.654  12.905  0.0834  0.0586 -0.0662
25530W        W41791  16.913   4.594  15.512  0.1934 -0.4375  0.0152
25531W        W41792   3.202   0.845   0.885  0.0416 -0.0120  0.1799
25532W        W41793  14.429   4.808  15.173  0.1670  0.0814  0.0642
25533W        W41794  10.939   6.539  14.431  0.0148  0.1685  0.0774
25534W        W41795   0.161   5.656   1.422 -0.2478 -0.1651  0.1517
25535W        W41796   9.806   4.390   4.012 -0.1509 -0.0858 -0.0307
25536W        W41797  11.185   9.871   3.061 -0.1757  0.1427 -0.1052
25537W        W41798  14.349   2.173  14.402  0.1295  0.1452  0.1581
25538W        W41799   2.555   5.880  15.721  0.0633 -0.2242  0.0957
25539W        W41800   3.584   1.263   6.187  0.3321 -0.3077  0.0532
25540W        W41801   7.386   2.917  16.145 -0.0381  0.1212 -0.3213
25541W        W41802  12.829   6.398  16.750  0.1271  0.0706 -0.1685
25542W        W41803  13.962  16.739   4.213 -0.1698 -0.0434 -0.1746
25543W        W41804   2.012  12.946   1.990 -0.1111  0.1273 -0.2712
25544W        W41805  12.504   3.637   1.792 -0.2411  0.5495  0.1687
25545W        W41806   6.492   0.785  16.652  0.0436  0.1992  0.0458
25546W        W41807  13.042  11.660  11.518 -0.0411  0.1300 -0.2351
25547W        W41808   6.116  13.149  12.922 -0.0630 -0.2872 -0.0787
25548W        W41809  16.770   1.341  14.776  0.0229 -0.0751 -0.0948
25549W        W41810  14.779   8.334  16.360 -0.0473 -0.1266 -0.2263
25550W        W41811   4.958  12.041   4.987 -0.3314  0.3122 -0.1277
25551W        W41812  14.643   7.732   4.092  0.0230  0.2453 -0.2371
25552W        W41813   9.503   1.014  15.464  0.0839 -0.0314  0.0907
25553W        W41814   6.695   9.942  14.044  0.1559 -0.3936 -0.0163
25554W        W41815   2.619  15.770  12.386 -0.2124 -0.0003 -0.0551
25555W        W41816   3.922  10.547   2.499 -0.0148 -0.0061  0.1021
25556W        W41817  13.493  13.055   5.562  0.1047 -0.0291  0.0147
25557W        W41818   5.720  11.198   0.209  0.1661 -0.1862  0.1319
25558W        W41819   2.610   0.088   0.744  0.2499 -0.1474 -0.0120
25559W        W41820  12.876  11.080   2.238 -0.1948 -0.0134 -0.0769
25560W        W41821   7.672  11.340  11.909 -0.2510  0.0363 -0.1952
25561W        W41822   6.855  11.047  15.951 -0.2392 -0.0362 -0.1563
25562W        W41823   5.721   9.700   5.162  0.2063  0.1197  0.3528
25563W        W41824   6.738  16.276  16.393 -0.1296  0.1619  0.0171
25564W        W41825  15.327   8.809  15.505  0.0522  0.0127  0.1671
25565W        W41826   5.767  13.173   2.515 -0.0573  0.1513 -0.2757
25566W        W41827   0.490   8.839   0.978  0.0803 -0.3649  0.2538
25567W        W41828   0.598   1.038  12.184  0.1883 -0.0634  0.1554
25568W        W41829   9.419  14.011   2.236 -0.5022 -0.1542 -0.1396
25569W        W41830  16.517   9.477  12.460 -0.0935  0.1387 -0.3011
25570W        W41831   5.649   6.772   0.022  0.1919 -0.0684  0.0827
25571W        W41832   6.230  12.936  11.922  0.0449 -0.3413  0.0885
25572W        W41833   6.256   0.975  13.659 -0.0985 -0.0367  0.0566
25573W        W41834  15.066   3.894  16.367  0.2360 -0.1107 -0.0459
25574W        W41835   0.946  14.246  15.373 -0.1035  0.2883  0.1092
25575W        W41836  17.758  12.895  13.921  0.0227 -0.2453  0.1466
25576W        W41837   6.784  15.517   2.830  0.0708  0.0504 -0.0866
25577W        W41838   5.437  10.746   0.148  0.1331  0.0671  0.4868
25578W        W41839  12.142  12.798  13.488 -0.2071  0.0925 -0.3767
25579W        W41840  14.014  14.317   5.582  0.0756 -0.0693  0.1803
25580W        W41841  17.372  13.786   0.336 -0.0485 -0.0958  0.0705
25581W        W41842   4.407   4.847  13.722 -0.2592 -0.1724 -0.3418
25582W        W41843   7.959  16.130  13.148  0.1429 -0.1211 -0.2421
25583W        W41844  15.250   2.708  15.315  0.1993  0.2741 -0.4650
25584W        W41845   5.762  11.398  16.632  0.4230 -0.2590  0.0938
25585W        W41846   9.078   9.622   2.936  0.2438 -0.2464  0.0119
25586W        W41847   6.841   1.561  16.375  0.0335  0.1309 -0.1459
25587W        W41848   8.429  15.539   5.113  0.0445  0.1736 -0.2468
25588W        W41849  11.260   2.223   1.612  0.2190 -0.1934  0.1207
25589W        W41850   6.710   1.989  15.431  0.2835  0.1546  0.1067
25590W        W41851  17.273  14.256   1.025  0.1435 -0.0622  0.0214
25591W        W41852   6.540   9.836  13.372 -0.0266 -0.1104 -0.1517
25592W        W41853   8.045  15.811   3.371 -0.1451  0.1297  0.1417
25593W        W41854   8.234  17.094  14.514 -0.3742 -0.0508 -0.0579
25594W        W41855  12.098  14.391   5.392 -0.1005  0.2172  0.1936
25595W        W41856   4.063   7.986  15.068  0.0092  0.0412  0.0924
25596W        W41857   8.222  10.360  16.433 -0.0015  0.2861 -0.1198
25597W        W41858   5.157   8.279   4.107 -0.3679  0.2830 -0.2281
25598W        W41859   3.200   7.893   1.429 -0.1592 -0.0594 -0.0732
25599W        W41860  17.475   6.165  13.566 -0.1897  0.3967 -0.1205
25600W        W41861   3.807   2.222  15.405 -0.0153  0.0189  0.1112
25601W        W41862   7.147  13.557  15.519  0.1439 -0.1313 -0.2461
25602W        W41863  14.282   2.296   0.573  0.0044  0.0274  0.0415
25603W        W41864   3.517  13.667   1.919 -0.0164  0.2806  0.1826
25604W        W41865  16.804   9.617   3.312  0.1701 -0.1752 -0.2441
25605W        W41866  11.399  10.003   5.687 -0.0793 -0.0608  0.1660
25606W        W41867   8.324   1.470   2.674 -0.1611 -0.0187 -0.2157
25607W        W41868  14.868  12.278   6.413 -0.1070  0.0229  0.0357
25608W        W41869  12.104   3.390   1.984  0.1024 -0.0877  0.1512
25609W        W41870   0.472  15.803   1.291 -0.1814 -0.3390  0.0139
25610W        W41871  12.550   7.057   5.999 -0.0782  0.1307 -0.1667
25611W        W41872   7.359   9.072  13.108  0.4173 -0.1209 -0.1857
25612W        W41873   8.469  13.063  16.291  0.3350  0.1968 -0.0317
25613W        W41874  13.930   5.727  16.253  0.1783  0.1533  0.0436
25614W        W41875   2.868   2.292  15.519  0.0786  0.2563  0.0892
25615W        W41876  10.658   6.038  11.806  0.3403 -0.1511 -0.3086
25616W        W41877   6.974   5.942  15.457 -0.0924  0.0071 -0.0795
25617W        W41878  15.826  13.352   1.920 -0.0504  0.0659  0.0610
25618W        W41879  16.160  12.621   3.528  0.0893  0.0156  0.2151
25619W        W41880   0.381  11.929   3.931 -0.4330 -0.0637  0.2601
25620W        W41881  12.154  10.528  13.056  0.0358 -0.0768  0.0539
25621W        W41882   4.209   5.728  13.520 -0.2131  0.2223  0.1207
25622W        W41883   5.129   0.445  14.352  0.3102 -0.2982  0.1519
25623W        W41884  13.975   3.064  13.064 -0.0853  0.1146  0.2091
25624W        W41885  17.454  12.016  15.926 -0.1289  0.0940  0.1459
25625W        W41886  14.396  13.420  15.111  0.0568 -0.0970 -0.1381
25626W        W41887   9.311   2.691  12.541  0.2859 -0.2986 -0.2185
25627W        W41888  10.196  15.622  12.895 -0.2673 -0.1063  0.0329
25628W        W41889  10.776   6.770  16.925  0.1718  0.2931  0.1510
25629W        W41890  14.877  14.721  15.259 -0.2334 -0.1538 -0.1050
25630W        W41891  14.992  15.739   4.279 -0.1817 -0.3811  0.1518
25631W        W41892  13.111   4.155   3.135 -0.1293  0.0280 -0.0348
25632W        W41893   8.225  15.226   3.477  0.0479  0.1143 -0.2507
25633W        W41894   4.449  17.663   0.306 -0.0015  0.4381  0.2854
25634W        W41895   5.122  15.728  14.539  0.0248 -0.0269  0.0332
25635W        W41896  13.222  15.887   6.004 -0.0410  0.0051  0.1546
25636W        W41897   8.653  15.003   5.222 -0.2226 -0.1423  0.3326
25637W        W41898  14.588  16.366  14.041  0.2104  0.2484 -0.1753
25638W        W41899   3.724   9.776  14.969  0.1128 -0.1031  0.2772
25639W        W41900  14.265   3.409  11.809 -0.0472 -0.0348 -0.0838
25640W        W41901  12.908   6.151   1.897 -0.0626  0.1528  0.0476
25641W        W41902   7.336   5.331   5.461  0.2216  0.1052 -0.2609
25642W        W41903   9.352   9.407   0.515  0.2205  0.0479  0.1432
25643W        W41904   2.941  10.988   2.139  0.0396  0.2772 -0.0438
25644W        W41905  16.120  16.814  12.930  0.0273 -0.1517 -0.2884
25645W        W41906  14.852   3.453   3.994 -0.2001  0.0847 -0.1856
25646W        W41907   7.900   2.554  14.119  0.4545 -0.1126  0.1305
25647W        W41908  14.780  12.483   4.550  0.0955  0.3356 -0.0326
25648W        W41909   9.139   9.045   1.733 -0.1438 -0.0642  0.1653
25649W        W41910   2.128   2.932  16.731 -0.2829 -0.4178 -0.1921
25650W        W41911   6.043  16.084  15.408 -0.1037 -0.0720  0.1402
25651W        W41912  14.850   3.186   1.559  0.0800 -0.0984 -0.1728
25652W        W41913  11.491  13.088   3.805 -0.1569  0.0373 -0.1383
25653W        W41914   5.600   4.761   5.710  0.1013 -0.0312  0.1795
25654W        W41915   4.571   7.921   3.342  0.1268 -0.0562  0.3537
25655W        W41916   2.912   5.047   5.252  0.3738  0.1730 -0.1947
25656W        W41917   3.282   6.188  15.818 -0.2262 -0.1061 -0.3429
25657W        W41918   3.183   8.177  14.164 -0.2929 -0.0688 -0.3734
25658W        W41919  11.694   5.162   4.057  0.0669  0.0296  0.1072
25659W        W41920  10.615  17.460   4.882  0.1641 -0.2503  0.0592
25660W        W41921   9.563   9.201  14.846 -0.2591 -0.0979 -0.1886
25661W        W41922   8.365  17.603   2.076  0.0477 -0.3669  0.1213
25662W        W41923   5.416   5.983   0.671  0.2598 -0.0920 -0.3619
25663W        W41924   2.393   1.839   4.654 -0.1187 -0.1973 -0.1340
25664W        W41925   1.436  13.342  15.342  0.0902  0.1348  0.2561
25665W        W41926   3.871  10.977   4.643  0.1559 -0.0679  0.0383
25666W        W41927   1.539   2.021   5.353 -0.2370 -0.1778 -0.2126
25667W        W41928   7.833   3.015   5.396  0.1815 -0.2947 -0.1391
25668W        W41929   5.943   1.048  15.872  0.1204 -0.1843 -0.0753
25669W        W41930  15.722  10.198   1.462 -0.0716 -0.0197  0.0463
25670W        W41931   5.795  13.566   3.700  0.2202 -0.2807  0.3656
25671W        W41932  11.639   8.356  13.998 -0.2235  0.0651 -0.1382
25672W        W41933   5.836   0.306   2.630 -0.0374  0.2553 -0.1052
25673W        W41934  14.635  11.310   1.377 -0.1871  0.4172  0.0326
25674W        W41935   6.472   6.831   3.519  0.1502 -0.0040 -0.0340
25675W        W41936  14.498   1.300  15.570 -0.1397 -0.1952 -0.1628
25676W        W41937  14.762  16.442   0.420 -0.0213  0.1071  0.3309
25677W        W41938   7.604  17.548   2.157 -0.1726 -0.1182  0.1481
25678W        W41939  16.327  12.692   0.168  0.4511 -0.0082  0.0962
25679W        W41940   4.271  12.030  15.143 -0.0380  0.3710 -0.1736
25680W        W41941  10.239  15.268  14.974 -0.2628  0.0236  0.0894
25681W        W41942   8.252  13.567  12.397 -0.0708  0.3063 -0.3959
25682W        W41943   4.794  14.124   5.748  0.1284 -0.1924 -0.0513
25683W        W41944   1.705  14.258  13.038  0.3692  0.2686  0.2420
25684W        W41945   0.147  15.807   1.751 -0.1562 -0.1958 -0.0364
25685W        W41946   3.939   7.463  16.658  0.3153  0.0778  0.0630
25686W        W41947   2.277  12.905   1.067 -0.0992  0.1714 -0.1723
25687W        W41948  10.526   6.667   4.914 -0.5574  0.1783  0.1282
25688W        W41949   5.023  17.006   2.820 -0.0117 -0.0375  0.2262
25689W        W41950  15.454   1.547   0.182  0.0997 -0.0189  0.0774
25690W        W41951   0.188  13.638   5.456  0.0702  0.3207 -0.0159
25691W        W41952   6.232  17.758   3.450  0.1788 -0.1990  0.0306
25692W        W41953   9.949  16.646   2.196 -0.1013 -0.0315  0.1312
25693W        W41954   5.167  11.197  15.916 -0.0476  0.1613  0.2404
25694W        W41955   6.086   1.126   0.465  0.1086 -0.0484 -0.0655
25695W        W41956   9.285   8.725   4.203 -0.1222  0.0532  0.0607
25696W        W41957   1.860   1.210   0.928 -0.0237 -0.0098  0.3835
25697W        W41958   5.149   3.234   5.185 -0.1269 -0.2723 -0.3385
25698W        W41959  12.928   2.783   2.109  0.2660  0.0360 -0.0431
25699W        W41960   4.578  13.139   4.206 -0.2375  0.2676  0.0756
25700W        W41961  17.053   9.514  14.287 -0.1579  0.0478 -0.0557
25701W        W41962   6.692  10.380  12.544 -0.2595  0.0929 -0.1490
25702W        W41963   3.662   1.425  15.196 -0.1402 -0.0215 -0.2029
25703W        W41964  13.203  17.457  16.926 -0.1036 -0.2849  0.2376
25704W        W41965  11.260   8.843   5.128  0.0884 -0.2675 -0.3307
25705W        W41966   8.517   6.497   1.684  0.0734  0.0945 -0.1333
25706W        W41967  13.004   6.224   4.789 -0.1482  0.1952 -0.2361
25707W        W41968   5.110  14.214  13.093  0.1593  0.1562 -0.0125
25708W        W41969   1.775   5.914   2.574 -0.1369  0.0750  0.1136
25709W        W41970  16.247   2.586   4.253  0.2398 -0.1380  0.0213
25710W        W41971   2.117   0.406  14.181 -0.3097 -0.1245 -0.0921
25711W        W41972   3.717  10.986   2.814  0.1308 -0.2442  0.2250
25712W        W41973   2.280  12.052   2.922  0.1404  0.3534 -0.0866
25713W        W41974  14.558   9.694   0.960  0.0623 -0.1469  0.0986
25714W        W41975   8.222   0.502   0.187  0.0012 -0.2439  0.1518
25715W        W41976   3.193   1.440   2.276  0.0225 -0.1070  0.0941
25716W        W41977  11.351   7.842  14.080 -0.1419  0.0990 -0.0035
25717W        W41978   8.202  15.787  16.826  0.1084  0.0678  0.2177
25718W        W41979  17.352   5.963   4.030 -0.2350  0.2415 -0.1411
25719W        W41980  15.883  17.084   1.275  0.0634  0.4798  0.0145
25720W        W41981   7.360  10.183  16.031 -0.1550  0.2191  0.0157
25721W        W41982  15.180   7.161  14.261 -0.0771  0.1692  0.0044
25722W        W41983  12.824  16.217   0.508 -0.1398 -0.1485  0.0004
25723W        W41984  11.213   8.509  14.251  0.0607  0.0237  0.1174
25724W        W41985   7.807   8.722  15.160 -0.3224  0.1691 -0.0343
25725W        W41986  15.739   0.509   5.521  0.0620  0.0965 -0.1986
25726W        W41987   3.602   3.155  13.227  0.0107  0.1469  0.2013
25727W        W41988  15.476   5.522   3.938 -0.0523  0.0050  0.1010
25728W        W41989   4.462   1.949   5.024  0.0710  0.1603 -0.0476
25729W        W41990  15.262   7.803  16.782  0.2115 -0.0149 -0.3149
25730W        W41991   0.368  15.157  13.714 -0.2067 -0.3492 -0.0599
25731W        W41992  16.564   7.166   2.234 -0.0393 -0.1792 -0.1220
25732W        W41993   9.290   8.108   2.676 -0.1525 -0.1341  0.1231
25733W        W41994  16.179  11.029   3.063  0.1253  0.1815  0.1129
25734W        W41995  10.363  11.360  11.925  0.2698  0.0903 -0.0303
25735W        W41996  11.769   0.416   4.496  0.1109  0.1615  0.4282
25736W        W41997   8.406  14.548  15.128 -0.2539  0.4143  0.3188
25737W        W41998  15.916   1.220   2.196  0.1500  0.0829  0.1463
25738W        W41999  17.170  15.839  15.064 -0.1411 -0.0351  0.0639
25739W        W42000  14.599   5.000   5.070 -0.0285 -0.1097  0.0123
25740W        W42001  12.534  13.000  12.340  0.2862 -0.1088  0.3697
25741W        W42002  16.812   2.874   2.644 -0.1989 -0.4074  0.3483
25742W        W42003  10.702   5.652  12.542  0.1634 -0.0159 -0.0520
25743W        W42004  10.621  12.574   3.767  0.0630 -0.2560 -0.2268
25744W        W42005  17.215   4.152  16.858 -0.0664  0.3699 -0.2448
25745W        W42006   6.536   9.704  16.921  0.1154  0.2880 -0.1324
25746W        W42007  11.479  12.069  12.463  0.0312  0.1324  0.1103
25747W        W42008  12.034   9.967   0.290  0.0600  0.0315  0.0386
25748W        W42009   2.491   1.456   3.331 -0.0748  0.1220 -0.0084
25749W        W42010   7.593  10.089   1.246 -0.3760 -0.0931  0.2202
25750W        W42011   2.093  13.984  12.570  0.0179 -0.2933  0.0203
25751W        W42012  15.218  12.490  14.812 -0.1605  0.1034 -0.2280
25752W        W42013   0.077  14.155   5.497 -0.0275  0.0182 -0.0768
25753W        W42014   1.047   7.197  11.773  0.0235 -0.1831  0.2409
25754W        W42015   9.056   0.657  12.600 -0.2435 -0.0170  0.1446
25755W        W42016  14.762  15.084  14.634 -0.1151  0.0718 -0.1365
25756W        W42017  10.285   0.659  12.154 -0.2581 -0.2349  0.0995
25757W        W42018  16.902   9.529   2.320 -0.0229 -0.1718  0.2686
25758W        W42019  10.614  15.069   5.372  0.0422  0.3479 -0.0949
25759W        W42020   8.211   8.368  13.564  0.0048  0.0846 -0.4200
25760W        W42021  13.882  15.322   5.722  0.0188  0.1226 -0.2465
25761W        W42022  15.433  16.354  11.589 -0.1623 -0.1118  0.0455
25762W        W42023  14.654   3.287   0.051  0.0754 -0.3074 -0.0775
25763W        W42024  16.562   4.063   2.393  0.0219  0.3793 -0.1178
25764W        W42025   3.641  11.212  11.707  0.0907  0.1596  0.1827
25765W        W42026   3.883  12.060   1.308 -0.0932 -0.0894  0.3497
25766W        W42027  10.751  10.795  16.567  0.2959  0.1812 -0.0084
25767W        W42028   0.019  10.495   3.523  0.2417 -0.0009 -0.1190
25768W        W42029   0.939   7.771   0.913  0.1567  0.2730  0.0234
25769W        W42030   2.998   6.293   4.074  0.2844 -0.2100 -0.3924
25770W        W42031  14.881   7.116   2.355 -0.0295  0.1112  0.0669
25771W        W42032   9.269   4.838  14.952  0.2001 -0.2664 -0.1845
25772W        W42033  15.172   2.161   5.685  0.2052 -0.0367  0.2948
25773W        W42034  14.744  16.439   1.881  0.0770 -0.1965  0.0864
25774W        W42035   3.216  16.514  12.556  0.0326  0.1584  0.0883
25775W        W42036  13.491   0.235  16.052 -0.1700 -0.0831 -0.3306
25776W        W42037   5.962   3.544  14.123  0.0162  0.0402  0.1135
25777W        W42038   2.585  14.476   3.118 -0.0613 -0.0059 -0.1777
25778W        W42039  10.027   2.148  14.074 -0.1907 -0.1938  0.0228
25779W        W42040  13.280   4.670   5.436 -0.1688  0.0338  0.1249
25780W        W42041  13.392  13.129   2.151 -0.1818 -0.1978 -0.0460
25781W        W42042  15.590   5.868   0.347 -0.1732  0.1687 -0.0622
25782W        W42043  14.638  16.547  13.334  0.3722  0.3336  0.0388
25783W        W42044  14.141   9.136   1.778  0.0583  0.0509  0.1508
25784W        W42045  14.890   9.478   5.143  0.1213 -0.2418  0.0583
25785W        W42046  15.095  16.377  16.568 -0.0736 -0.0717  0.3564
25786W        W42047   9.223   9.980   0.453 -0.2065 -0.0585  0.0303
25787W        W42048   2.662  15.046   0.757  0.1998  0.0163 -0.2473
25788W        W42049  10.632   4.238   2.115  0.3144 -0.0442  0.1042
25789W        W42050   4.082  13.612  15.173  0.0701  0.0927  0.1321
25790W        W42051   2.046  14.968   4.565 -0.1772 -0.0493  0.1021
25791W        W42052  11.428   3.213  12.178  0.1586 -0.2541 -0.1679
25792W        W42053   3.756  10.297   4.118  0.2505 -0.3280  0.1629
25793W        W42054   6.240  15.797   4.284 -0.0662  0.0614 -0.0837
25794W        W42055  10.726  14.092  16.142 -0.0471  0.1313 -0.2493
25795W        W42056  13.391   2.863   3.413 -0.2027  0.0946 -0.1127
25796W        W42057  17.561   3.725   2.534 -0.0816 -0.2224 -0.0536
25797W        W42058  13.285   2.264   4.289 -0.0444  0.1113  0.0007
25798W        W42059   4.142  13.240   3.238 -0.1179  0.0256 -0.0312
25799W        W42060   2.305  14.686   2.771 -0.1141  0.2229  0.1579
25800W        W42061  16.979  17.472   4.660 -0.0296 -0.1316  0.0524
25801W        W42062  11.005   5.760  11.539  0.1651  0.1645 -0.2217
25802W        W42063   7.985   0.692  13.406  0.2268  0.1126 -0.0957
25803W        W42064   3.485   0.142  15.303  0.1783 -0.0062  0.2811
25804W        W42065   8.037   2.227   1.614  0.1530 -0.0463  0.0229
25805W        W42066   7.924   2.077  15.834 -0.1192  0.1799  0.1420
25806W        W42067   2.516  10.387   5.050  0.0219 -0.0504  0.1547
25807W        W42068   4.813  17.730  12.143 -0.1217  0.0702 -0.2359
25808W        W42069   1.907  15.121   4.143  0.2180  0.2653  0.0017
25809W        W42070   2.435  10.790  14.515  0.1555 -0.0361  0.1113
25810W        W42071   2.835  15.299  12.172 -0.2576  0.1217  0.0079
25811W        W42072  11.674  16.628  12.427  0.0727 -0.3543  0.4758
25812W        W42073  10.062   8.826  14.899 -0.0083  0.0627  0.1629
25813W        W42074   2.892  10.328   3.084  0.1500  0.2391  0.6076
25814W        W42075   0.866   8.366  16.292 -0.0756 -0.0830  0.0880
25815W        W42076  14.589  13.759  16.696  0.0863 -0.0943  0.0827
25816W        W42077   1.897   6.560  11.584  0.0400 -0.1160 -0.0688
25817W        W42078  14.643   5.990   3.059 -0.2355  0.0727  0.1047
25818W        W42079  17.455   6.346   3.717 -0.1119  0.1810  0.0371
25819W        W42080   6.029  17.208   5.121  0.0505 -0.0996 -0.2134
25820W        W42081   7.503   7.350  12.923 -0.1301 -0.0552 -0.0185
25821W        W42082   2.110  13.117   1.525 -0.0138 -0.0093  0.3522
25822W        W42083   2.184   5.668   3.360  0.4231  0.0387  0.0929
25823W        W42084   0.128   0.682  14.319 -0.3586  0.4645  0.0628
25824W        W42085  15.324   7.639   4.828 -0.0112 -0.0226  0.0624
25825W        W42086  14.015   2.878  16.377  0.3912 -0.2505  0.1828
25826W        W42087   3.083  10.065  16.520  0.0029  0.4873  0.3244
25827W        W42088  14.272   4.077   3.594  0.1586 -0.1617  0.1343
25828W        W42089  15.376   8.580   0.483 -0.1635 -0.1801 -0.1162
25829W        W42090   6.644   8.157   3.822 -0.0010  0.1620 -0.0274
25830W        W42091  14.997  14.244  15.963 -0.1141 -0.1653  0.1633
25831W        W42092  17.656   4.130   6.312  0.0063  0.1027  0.1770
25832W        W42093   9.415   6.418   0.374 -0.1625 -0.0624 -0.1087
25833W        W42094   9.624   6.075  14.024 -0.0161 -0.2375  0.0038
25834W        W42095   4.788   7.354   2.103 -0.1348  0.1194 -0.0876
25835W        W42096  17.338   0.723  14.678 -0.0221  0.0484  0.0097
25836W        W42097   2.497   4.383   0.052  0.0521 -0.0007 -0.1066
25837W        W42098   4.167   2.812  15.554 -0.2414 -0.2770 -0.0674
25838W        W42099  15.767   2.827  15.281  0.1341 -0.0304  0.0405
25839W        W42100  15.697   0.917  13.139 -0.1660  0.2214 -0.0181
25840W        W42101   5.079  12.746   2.387 -0.1745 -0.0543 -0.0703
25841W        W42102   5.709   1.116   2.097  0.2744 -0.2997  0.0422
25842W        W42103   9.423   4.899   2.374 -0.4059 -0.3446 -0.1377
25843W        W42104   0.305  13.396  14.838  0.0093  0.1929 -0.0336
25844W        W42105   5.014   4.504   1.158  0.0520 -0.1398  0.3374
25845W        W42106  12.335   9.480  14.408  0.0772 -0.0175  0.1896
25846W        W42107  16.203  10.859   2.205 -0.2970  0.2177  0.0396
25847W        W42108   2.043  15.615  13.653 -0.0371 -0.0648 -0.0983
25848W        W42109   6.554   6.068  15.648  0.1750  0.1064  0.2482
25849W        W42110   7.759  11.603   5.297  0.0299  0.1764  0.0692
25850W        W42111  10.860   0.968   0.404 -0.1118 -0.1658  0.2248
25851W        W42112   1.118  13.210   0.550 -0.0330 -0.0227  0.0724
25852W        W42113  14.045   2.510   4.667  0.1156  0.0076 -0.0480
25853W        W42114   5.085  12.847   3.965 -0.2647  0.0408 -0.3192
25854W        W42115   5.276   5.504  12.489  0.4538 -0.0784 -0.0843
25855W        W42116  16.160   4.866   0.842  0.0125 -0.0415  0.0777
25856W        W42117  13.642  10.320  16.962 -0.1216 -0.1788 -0.3080
25857W        W42118  15.909   3.639   2.085  0.5719  0.0650  0.0568
25858W        W42119   2.482   9.081  14.506 -0.0772 -0.1854  0.1646
25859W        W42120  15.099  14.479  13.935 -0.0338 -0.3222 -0.0597
25860W        W42121  11.474  12.437   4.754 -0.1567  0.1710  0.2909
25861W        W42122   1.817  15.351   2.525  0.1588  0.3186  0.1091
25862W        W42123   1.936   4.183   4.776 -0.0012 -0.2039 -0.3115
25863W        W42124  10.777   1.856   4.068 -0.1776 -0.1542 -0.0058
25864W        W42125   8.935   4.073   2.692  0.2044 -0.1324  0.0336
25865W        W42126   6.988   7.277   6.016 -0.0023  0.1255  0.1619
25866W        W42127  16.215   7.199  12.628 -0.0145  0.1789  0.0266
25867W        W42128  15.871  14.465  15.135  0.0073 -0.0714 -0.2039
25868W        W42129   0.528  15.744   5.791  0.0923 -0.1427  0.1011
25869W        W42130  14.051   1.797   0.464 -0.0934  0.3359 -0.1527
25870W        W42131  10.989   2.800  16.404  0.0952  0.1249 -0.3771
25871W        W42132   7.094  17.432  16.952 -0.0664 -0.0158 -0.1004
25872W        W42133   5.459  17.768   2.753 -0.2398 -0.3020 -0.1059
25873W        W42134  14.824   7.398  12.601  0.0468 -0.0116 -0.0776
25874W        W42135  15.456  15.876  16.055 -0.0866  0.1826  0.2012
25875W        W42136   0.453  15.345   1.428 -0.0340 -0.2813  0.0416
25876W        W42137   6.808  17.794   2.713 -0.1261  0.0611  0.2202
25877W        W42138  11.545   9.740  14.680  0.4064 -0.0338  0.0109
25878W        W42139  10.481   1.484   1.671  0.2085 -0.1070  0.0863
25879W        W42140  11.369   0.186   5.285  0.0097 -0.0265 -0.1037
25880W        W42141   3.362  11.577   4.078 -0.2376 -0.0844  0.1988
25881W        W42142   2.471   5.926  15.233 -0.1249  0.1523 -0.0167
25882W        W42143  16.727   9.266  12.982 -0.2288  0.1289 -0.3249
25883W        W42144  15.122  12.366  16.879  0.0127 -0.1986  0.2223
25884W        W42145  11.495   5.174  16.623  0.1427  0.1031  0.2032
25885W        W42146   6.121  10.425   4.596 -0.1162 -0.0709 -0.0445
25886W        W42147  13.448  16.585   3.947  0.3231 -0.0422 -0.2484
25887W        W42148  14.167   7.065   4.301  0.0527  0.1003 -0.1567
25888W        W42149  13.739  12.961  16.177 -0.1097 -0.2118  0.0548
25889W        W42150  16.482  17.293  11.914 -0.1562 -0.3061 -0.0342
25890W        W42151   4.694  11.356  15.847 -0.1163  0.0878 -0.0761
25891W        W42152  13.360  14.181  13.652  0.4137 -0.0616  0.0217
25892W        W42153   3.834   9.343   4.307  0.4782  0.2679  0.1066
25893W        W42154  16.998  16.809  12.627 -0.0699 -0.1461 -0.0772
25894W        W42155   4.300   5.547   2.966  0.1408 -0.0164  0.2816
25895W        W42156  14.073  10.303   3.266 -0.1118 -0.0412 -0.0148
25896W        W42157  17.849   3.873   2.155 -0.1382  0.0398 -0.0032
25897W        W42158   5.446   0.189   5.308  0.1215  0.0871  0.2079
25898W        W42159   4.506   7.925   1.531  0.1327  0.1108  0.2699
25899W        W42160   8.137   4.219  13.048 -0.1494  0.0703  0.1663
25900W        W42161   1.331   6.526  16.805 -0.3252 -0.1065  0.1260
25901W        W42162  10.063   5.536  14.905 -0.1192 -0.0603 -0.1625
25902W        W42163  10.501  11.443   3.708  0.0273 -0.1506 -0.1681
25903W        W42164  12.521   0.156   5.077  0.2578 -0.0501  0.0847
25904W        W42165  11.640   6.504  16.491  0.0957 -0.4051  0.0153
25905W        W42166  10.865   9.073  11.413 -0.4109 -0.2159 -0.2510
25906W        W42167   3.835  15.806  12.938 -0.4013 -0.0593  0.1019
25907W        W42168   0.689   7.609   1.544 -0.0784 -0.3957 -0.0019
25908W        W42169   6.033  12.809   2.218 -0.4709  0.1243 -0.0512
25909W        W42170   2.623   5.167   4.235  0.0060 -0.0566  0.0498
25910W        W42171   8.190  17.688   3.730  0.1597  0.0687 -0.0205
25911W        W42172   8.734   9.061   0.454  0.3008  0.1453 -0.0328
25912W        W42173   0.558  14.305  16.692  0.2485  0.3443 -0.0594
25913W        W42174   7.849   7.018  15.552  0.0106 -0.0137  0.1978
25914W        W42175   7.696   0.098  16.428 -0.0851  0.1312 -0.1874
25915W        W42176  15.245  14.610  15.740  0.1973 -0.0276  0.0019
25916W        W42177   3.022   6.545   0.839  0.3962 -0.0411 -0.2627
25917W        W42178  15.174   7.674   0.339  0.1051  0.3816  0.1027
25918W        W42179   7.800   5.324   0.220 -0.2753  0.1792  0.0116
25919W        W42180   3.934   9.255   0.016  0.0309  0.0247 -0.2932
25920W        W42181   8.054  17.233   2.194 -0.2391 -0.4697  0.0836
25921W        W42182   6.903  10.393  13.114  0.0606 -0.0126 -0.0009
25922W        W42183   0.392   3.407  13.212 -0.1154 -0.1140 -0.0287
25923W        W42184   7.143   8.420   1.552 -0.1977  0.0340 -0.1379
25924W        W42185   2.064  15.059   5.461 -0.0441 -0.2487  0.3163
25925W        W42186  13.699  13.144  13.518  0.0980  0.0350 -0.0032
25926W        W42187   8.109  11.507  14.861  0.0371 -0.0702  0.0167
25927W        W42188   9.308   1.520  15.748 -0.0985  0.4528  0.0967
25928W        W42189  16.898  14.780   1.119 -0.1217  0.0097 -0.0376
25929W        W42190  12.076   5.954   2.670  0.1923  0.2114 -0.1538
25930W        W42191   7.924  17.596  14.337  0.0145 -0.1325 -0.0296
25931W        W42192  14.503  11.534  14.184 -0.0851 -0.1033 -0.1787
25932W        W42193   4.152   6.325  13.384  0.0561 -0.0757  0.1746
25933W        W42194   3.383  14.707   5.719  0.0367 -0.1343 -0.1543
25934W        W42195   2.252   8.850   1.779  0.1973 -0.0909  0.2072
25935W        W42196   0.870   8.540   1.331  0.0847 -0.1347  0.0316
25936W        W42197   9.888  10.263  14.366  0.0240  0.0875  0.0888
25937W        W42198  14.768  16.755   0.900 -0.0586 -0.1243 -0.0134
25938W        W42199   4.718  17.789  13.707 -0.1538 -0.2050  0.0021
25939W        W42200   0.998   0.829   4.260  0.1255  0.1802 -0.0934
25940W        W42201  14.213   3.828   4.579 -0.1375  0.2153  0.0247
25941W        W42202  13.981  10.869  14.567 -0.3151  0.1350  0.1492
25942W        W42203  11.716   1.153   2.011  0.1552  0.2171  0.3483
25943W        W42204   2.879  16.519  15.100 -0.0337  0.0514  0.0031
25944W        W42205   8.701   6.062   2.944 -0.0779 -0.2124 -0.1278
25945W        W42206   7.726  13.833  13.191  0.0039 -0.0407 -0.0591
25946W        W42207   3.793  13.145   5.478  0.0359  0.0957  0.0595
25947W        W42208  13.737  13.166   2.496  0.1926 -0.1051 -0.1230
25948W        W42209   1.272  12.894   0.962 -0.0323  0.1975 -0.0893
25949W        W42210   4.221  15.758   2.242 -0.0279 -0.2027  0.0883
25950W        W42211   2.194   0.297  11.917  0.0181  0.4112  0.2079
25951W        W42212  17.327   4.937  12.197  0.0327 -0.1019 -0.0356
25952W        W42213  11.235  17.206  14.067  0.0153  0.1222 -0.0417
25953W        W42214   0.382   6.535  16.319 -0.2437  0.1584 -0.2479
25954W        W42215   0.892   5.262   0.163 -0.0505  0.2000 -0.0472
25955W        W42216   8.537   7.354   3.413  0.2999 -0.1219  0.1515
25956W        W42217   3.320  13.824   3.280  0.0342  0.0395  0.1222
25957W        W42218  11.082  10.279  13.832  0.1158  0.0972  0.1261
25958W        W42219   6.938   3.436   3.832  0.3813  0.1624 -0.2014
25959W        W42220   4.854   7.677   4.740 -0.1415  0.2306  0.1471
25960W        W42221  10.965   1.390   2.079 -0.2528 -0.0515  0.0209
25961W        W42222  17.858   1.142   0.189 -0.1142  0.0395  0.0077
25962W        W42223   4.269   0.911  16.552 -0.2704  0.1435  0.0377
25963W        W42224  17.535   1.518  16.976 -0.2042 -0.0477 -0.1660
25964W        W42225  16.025  13.471   3.960 -0.0619 -0.0881  0.1458
25965W        W42226   2.850   8.600   5.038  0.1414 -0.0847  0.0442
25966W        W42227  11.313  15.351  15.289  0.2042  0.1741 -0.2834
25967W        W42228   7.333  16.462   4.143 -0.1722  0.0105 -0.0615
25968W        W42229   3.706   5.973   4.613  0.0542 -0.0805  0.0840
25969W        W42230   5.724  16.084   5.518  0.1130 -0.3036  0.0264
25970W        W42231  17.171  15.640   1.947 -0.0881 -0.1150  0.3373
25971W        W42232   5.458   4.895   6.186 -0.2533  0.1467  0.2061
25972W        W42233  13.274  10.676   5.430 -0.2045  0.0760 -0.0789
25973W        W42234  10.881   0.797  12.125  0.1704  0.1942 -0.1545
25974W        W42235  12.771   0.570  12.762  0.0779  0.0257 -0.0540
25975W        W42236   3.929   0.039   2.271 -0.3027 -0.1026 -0.1446
25976W        W42237  15.591   9.131  15.243 -0.1332 -0.0050 -0.0644
25977W        W42238   1.780  11.939  12.619 -0.0285  0.1334 -0.0304
25978W        W42239  14.678  12.564   0.043  0.2083  0.1818  0.2941
25979W        W42240  14.109  17.391   0.701  0.1731 -0.2905 -0.1899
25980W        W42241   7.423   4.677   3.424  0.0425 -0.1567  0.2482
25981W        W42242   2.837   4.207  16.682 -0.2599 -0.0955  0.2571
25982W        W42243  16.123  11.601   6.506  0.0115  0.0606 -0.0860
25983W        W42244  10.607  15.393  13.227  0.0475 -0.0010 -0.2192
25984W        W42245   4.602   4.952  12.309 -0.1201 -0.2318  0.1884
25985W        W42246  11.176   3.547   4.243 -0.0607  0.0020  0.1883
25986W        W42247   9.574  11.388  15.006 -0.0315 -0.1148  0.0760
25987W        W42248   9.091   7.415   5.657  0.0737  0.0154  0.0351
25988W        W42249  11.982  16.355   0.962 -0.3108 -0.1826 -0.1144
25989W        W42250   7.509  17.592  11.462  0.0463 -0.0293  0.2123
25990W        W42251  17.646   6.739  13.632 -0.0015 -0.0253  0.1200
25991W        W42252  10.961   0.389  14.681  0.3188  0.2410 -0.2674
25992W        W42253   9.118   4.672  16.392  0.0860  0.0659 -0.0881
25993W        W42254  14.077   6.419   3.307 -0.0162 -0.1072 -0.0427
25994W        W42255   0.652  10.745  16.597 -0.1518  0.0875 -0.0450
25995W        W42256   6.838  15.489   4.984  0.1966  0.0358 -0.3888
25996W        W42257   2.647   9.945   3.381 -0.4044  0.1155  0.0322
25997W        W42258  16.138   2.886   5.079 -0.1354  0.1731  0.1361
25998W        W42259  10.316   2.637  14.056 -0.1475  0.2537  0.1657
25999W        W42260  16.614  12.799   5.602 -0.1828  0.0986  0.1754
26000W        W42261  13.633  12.073   3.258  0.0643 -0.4803  0.0952
26001W        W42262   1.063   8.457  13.272 -0.0369  0.0002 -0.2929
26002W        W42263  13.138  14.021  12.788 -0.1377  0.0588 -0.2279
26003W        W42264   7.974  16.667   3.394 -0.0481  0.0295  0.1773
26004W        W42265   8.945  14.114   3.281 -0.1832 -0.0090 -0.0428
26005W        W42266  16.796   3.906   4.424 -0.0161  0.1361  0.0091
26006W        W42267   9.836  15.235  12.816 -0.0644 -0.0772  0.1664
26007W        W42268  11.989  16.073  16.134 -0.0856 -0.1741 -0.1996
26008W        W42269   7.033   1.388  14.725  0.2912  0.0577  0.0254
26009W        W42270   2.072   6.335  11.939  0.0470  0.1071 -0.0987
26010W        W42271   3.968  12.600   1.315  0.1273  0.1350 -0.0989
26011W        W42272  17.796  10.276  11.043  0.0501 -0.0419 -0.2552
26012W        W42273   9.304  10.215  11.551  0.5466 -0.1937 -0.1635
26013W        W42274  14.257   3.798  13.591 -0.0477 -0.0606 -0.0889
26014W        W42275  16.040  14.141   6.356 -0.2259 -0.3288  0.0254
26015W        W42276  12.972  13.090   0.584 -0.0165 -0.0264  0.1307
26016W        W42277  17.591   1.423   5.294  0.0196 -0.1599 -0.3590
26017W        W42278   1.028  17.143   2.722  0.3495  0.0413 -0.1600
26018W        W42279   7.207  10.813  16.640 -0.3383  0.1488 -0.0802
26019W        W42280  16.733  14.056   4.218  0.0706 -0.1153  0.1129
26020W        W42281  14.764  11.755   2.654 -0.4891  0.0765 -0.1507
26021W        W42282  10.265  15.866  16.195  0.0968  0.0243  0.1007
26022W        W42283   1.133  11.481  12.565  0.0134  0.1236  0.3013
26023W        W42284   8.644   7.199  12.986 -0.0284  0.0247  0.4702
26024W        W42285   1.330   2.226  16.644  0.0530 -0.1910  0.0630
26025W        W42286   1.402   0.333  14.203 -0.2049 -0.0199 -0.3291
26026W        W42287   8.574   6.226  15.893 -0.2317  0.1444  0.3094
26027W        W42288   2.622   4.876   5.635  0.0923  0.3164  0.0592
26028W        W42289   3.295  14.369  13.284 -0.1322 -0.1029 -0.0815
26029W        W42290  15.743   6.465   5.459  0.1374  0.0727  0.1278
26030W        W42291  13.197   7.683  13.571  0.1104  0.0050  0.0838
26031W        W42292   1.694   9.844   5.023 -0.3360 -0.0301 -0.0134
26032W        W42293   3.278   2.084   3.203  0.2831 -0.2229 -0.1078
26033W        W42294   9.226  10.357   0.114  0.0887 -0.2873  0.1434
26034W        W42295  17.418  12.384   1.322  0.0798  0.1802  0.0427
26035W        W42296  16.663  17.076  14.447 -0.1684 -0.0567  0.3643
26036W        W42297   8.158  10.303  13.956 -0.0981  0.1511 -0.1308
26037W        W42298  13.821   1.729  16.210  0.0017  0.1053  0.1035
26038W        W42299   1.005  11.646  14.059 -0.0387 -0.1636 -0.3717
26039W        W42300  14.450   5.942  16.909 -0.0424  0.1898  0.0650
26040W        W42301   8.609  10.316  16.810  0.1919  0.0046  0.0187
26041W        W42302   8.175  10.663  15.283  0.0793 -0.3459  0.1272
26042W        W42303   7.900   9.635  16.899 -0.1287  0.2105  0.2098
26043W        W42304   8.856   1.667   2.885 -0.2753 -0.1747 -0.1409
26044W        W42305   5.326   8.419   1.035 -0.0460  0.0432 -0.0375
26045W        W42306   8.256  17.040  12.450 -0.0093  0.0250  0.0403
26046W        W42307   7.783  11.799   0.353  0.0404 -0.1813 -0.1676
26047W        W42308  15.436   1.345  14.272 -0.1661 -0.2000  0.0069
26048W        W42309   9.529   0.089  13.105  0.1168  0.0837 -0.1614
26049W        W42310   2.334   6.648  16.908  0.0314  0.2393 -0.0738
26050W        W42311   4.447   7.095   0.770 -0.1792 -0.1899 -0.0668
26051W        W42312  13.257   9.721   1.119 -0.0674  0.0196  0.2508
26052W        W42313  11.585  14.737   1.877  0.2153  0.1672  0.3819
26053W        W42314   8.705   2.714   4.041  0.0041  0.1381  0.0451
26054W        W42315   3.831  12.284   3.838  0.1326  0.2156  0.1338
26055W        W42316  10.713  12.268   0.756 -0.4591  0.1505 -0.1381
26056W        W42317   7.728   8.278   4.771  0.1944  0.2605 -0.1433
26057W        W42318  16.860   9.995   5.342  0.1732  0.0081  0.3065
26058W        W42319   9.044   0.493   2.777  0.3329 -0.3280  0.1485
26059W        W42320   9.610   1.738   4.536  0.2164  0.1635  0.1568
26060W        W42321  17.751  10.863  13.897  0.0513  0.1052 -0.0146
26061W        W42322   0.889   4.614  16.223  0.0892  0.0640 -0.0425
26062W        W42323  11.367   5.687   5.858  0.3139 -0.2370  0.1637
26063W        W42324  14.912   7.585  16.004 -0.1302 -0.1480  0.1795
26064W        W42325  11.667  17.486   3.966 -0.1124 -0.4200 -0.3337
26065W        W42326   0.874  12.604   1.172 -0.0184 -0.0506  0.1512
26066W        W42327   8.961   1.581  12.208  0.0934 -0.0967  0.1857
26067W        W42328   6.483  17.722   1.742 -0.3555  0.0588  0.0169
26068W        W42329   1.144  17.779  14.808  0.0831 -0.0593  0.2757
26069W        W42330   3.649   2.933   2.879 -0.2971 -0.3578 -0.1321
26070W        W42331   3.515   2.903   2.382  0.0538  0.0662  0.2641
26071W        W42332   4.871   9.561   2.499 -0.1098  0.0348 -0.0065
26072W        W42333   1.311  13.500  16.689  0.0469  0.0263  0.2886
26073W        W42334   2.336   6.234   4.626 -0.2172 -0.1859  0.0593
26074W        W42335   3.833   2.934  12.263  0.2448  0.0430 -0.0483
26075W        W42336   7.201  13.044   4.686 -0.1361 -0.0509 -0.0597
26076W        W42337   9.174   6.291  15.515  0.1524  0.0121 -0.0969
26077W        W42338   9.797   8.222  11.137 -0.0453 -0.1002  0.1681
26078W        W42339  17.054  15.136  11.961 -0.1007 -0.1067  0.0250
26079W        W42340  15.710  14.995   2.187 -0.3302 -0.0019 -0.2510
26080W        W42341   3.064  15.621   2.940  0.2612  0.2990  0.0554
26081W        W42342  10.499   4.888   5.267 -0.1455  0.0824  0.0972
26082W        W42343  11.791  12.526  11.722  0.1383 -0.0345  0.0210
26083W        W42344  14.797   4.066   2.251  0.0667 -0.2214 -0.1076
26084W        W42345   0.745  14.747  16.193  0.2531 -0.0881 -0.2307
26085W        W42346  16.020   3.667   5.377 -0.2572  0.1746 -0.3000
26086W        W42347  15.283   2.874  12.234 -0.1511 -0.0039  0.1199
26087W        W42348  16.175   5.474   2.719 -0.0736  0.1896  0.0312
26088W        W42349   4.164  12.862   4.026 -0.0215  0.0035  0.1434
26089W        W42350  14.107   1.703  14.004 -0.2996 -0.0701  0.1894
26090W        W42351  15.572  12.718  13.296  0.1197 -0.0032  0.0477
26091W        W42352  10.550  12.832  11.038  0.1152 -0.0830 -0.2277
26092W        W42353  12.037   0.954  12.548 -0.0797  0.0874 -0.3012
26093W        W42354  11.117   5.296  14.226 -0.1543 -0.1449 -0.0092
26094W        W42355   7.676  15.433   3.455  0.1013 -0.3093  0.1884
26095W        W42356  10.217  12.291  14.324 -0.2186 -0.4446 -0.0531
26096W        W42357   5.809   9.090  15.528 -0.0693 -0.0214 -0.1837
26097W        W42358  14.866  16.269   4.133 -0.1297 -0.1850 -0.0725
26098W        W42359  10.076   2.990  14.434  0.0912 -0.0116 -0.0328
26099W        W42360   4.507  17.097   1.623  0.5057  0.0130  0.1803
26100W        W42361   2.623   4.166  12.711  0.1449 -0.2011 -0.0169
26101W        W42362  16.564  15.372  15.298  0.2751 -0.3123  0.2068
26102W        W42363  13.304   0.438   0.904  0.1835 -0.0599 -0.3009
26103W        W42364   1.437   1.971   1.326 -0.1390 -0.0428  0.0856
26104W        W42365   6.988  13.572  13.041  0.2924  0.1231  0.0645
26105W        W42366  16.712  14.590  13.129  0.0987 -0.2749 -0.1854
26106W        W42367   9.531   2.036  12.922  0.2665  0.0127 -0.1264
26107W        W42368  15.731   4.529   4.000  0.0592 -0.0510 -0.1858
26108W        W42369  14.338  11.595  16.022  0.1940  0.2163 -0.2841
26109W        W42370   8.146   7.461   1.275  0.1334 -0.2532  0.2389
26110W        W42371   4.075  12.962  12.527  0.2068 -0.2748  0.0946
26111W        W42372  10.855   8.303  15.218  0.0563  0.0840  0.3113
26112W        W42373  15.959  10.953   4.702  0.2707 -0.3344 -0.4557
26113W        W42374   5.287   1.879  16.575 -0.3813  0.1905  0.1821
26114W        W42375   1.142  16.677  15.572 -0.0936  0.1304  0.1865
26115W        W42376  14.536   2.474  15.924  0.4112 -0.0773 -0.1684
26116W        W42377  17.068  13.354   3.004 -0.0056  0.2495 -0.2403
26117W        W42378  17.301  10.435  13.260 -0.0409  0.2442 -0.1163
26118W        W42379   8.550   1.944   6.159 -0.0244 -0.1557 -0.2668
26119W        W42380   9.732   1.791  14.121  0.2089  0.3824 -0.2003
26120W        W42381   7.977  13.445  11.920 -0.0519 -0.0886 -0.0787
26121W        W42382  12.502   7.278  14.593 -0.0778  0.1611 -0.1330
26122W        W42383   8.931  13.235  12.223  0.2064 -0.1531  0.3764
26123W        W42384  11.558   1.634   2.962  0.2667  0.0055  0.1677
26124W        W42385   9.305   3.560  13.571  0.1679 -0.0645  0.1406
26125W        W42386  11.665  14.360  15.889 -0.5045  0.3041  0.2916
26126W        W42387   5.271   3.547   3.270  0.1907  0.1835  0.0128
26127W        W42388   2.308   3.852  11.813 -0.0338  0.0060 -0.1048
26128W        W42389   9.503   4.792  11.499 -0.2729  0.1558  0.0456
26129W        W42390  12.319   6.029  12.279 -0.1680 -0.0290 -0.2846
26130W        W42391  17.507  13.549  13.601  0.1065  0.0434 -0.0133
26131W        W42392   8.369  15.956   2.912 -0.0887  0.1156 -0.2804
26132W        W42393   9.053   2.903  15.729 -0.2332  0.2889  0.4806
26133W        W42394   4.996   5.357   1.350 -0.2046 -0.1843  0.2369
26134W        W42395   7.422   2.707  14.954 -0.1138  0.2966  0.2385
26135W        W42396  13.639   7.317   5.009  0.1948 -0.0357 -0.3547
26136W        W42397   3.452  10.664   2.264  0.4131 -0.1826 -0.2152
26137W        W42398   7.758   3.152   4.571  0.1721  0.1423 -0.4135
26138W        W42399   5.501   8.675  14.142 -0.2117  0.1442 -0.1029
26139W        W42400  14.165  14.876   2.993  0.1386  0.0417 -0.2551
26140W        W42401   9.965   1.068   5.349 -0.2278 -0.0446 -0.1002
26141W        W42402  16.939  10.302  15.371  0.0311 -0.1037  0.0488
26142W        W42403   2.607  16.067   2.072 -0.0268 -0.0473  0.1116
26143W        W42404  10.339   1.179   0.566  0.0153  0.0584  0.1559
26144W        W42405   6.952  13.025  12.115 -0.3372 -0.0922 -0.1600
26145W        W42406   9.668  15.041  10.996 -0.0573  0.0831 -0.1156
26146W        W42407   4.244   3.829  14.594 -0.1112 -0.1385 -0.0801
26147W        W42408   6.250   7.313  12.492  0.0232  0.1315 -0.1048
26148W        W42409   0.961   7.847   4.461  0.1355  0.2838  0.0706
26149W        W42410   1.605  12.559  15.668  0.1779 -0.1572 -0.2950
26150W        W42411  16.388  10.678   5.473  0.1944 -0.2573 -0.0506
26151W        W42412  12.238   5.793  15.155 -0.2204 -0.0972 -0.0668
26152W        W42413   0.631  14.611   4.803  0.0508 -0.0974  0.2724
26153W        W42414  16.619   5.640  13.675  0.0505  0.1050 -0.3999
26154W        W42415   2.318  14.884  12.448  0.0334  0.0332 -0.0022
26155W        W42416   8.897   3.725  16.719  0.3266 -0.1190  0.0686
26156W        W42417  15.186   5.860   5.235  0.0161 -0.1598 -0.0300
26157W        W42418   7.631   4.475   1.603 -0.0554 -0.0952 -0.0263
26158W        W42419   1.259  10.587   3.018  0.0636 -0.0039  0.0627
26159W        W42420  12.614  15.564   5.524 -0.1190 -0.0621  0.0453
26160W        W42421  12.763   7.888  12.795 -0.1488  0.0709  0.0414
26161W        W42422  16.204  17.749   0.200  0.4969  0.6390  0.0623
26162W        W42423   8.895   9.262  11.343 -0.0024  0.1240 -0.1024
26163W        W42424   5.121   8.953  12.692 -0.2451 -0.3434 -0.3539
26164W        W42425  16.238   8.605  12.069  0.3387  0.1844  0.3112
26165W        W42426   4.683   3.976  14.883 -0.1133 -0.0260 -0.1309
26166W        W42427  17.274   8.374   1.866 -0.1533 -0.1913 -0.0995
26167W        W42428   4.906   0.433   2.150 -0.2955 -0.1195  0.1018
26168W        W42429   5.233   8.632  16.579 -0.0868  0.1892  0.0674
26169W        W42430   8.580   2.355   5.398  0.1331 -0.0301  0.1775
26170W        W42431   2.595   4.683  14.285 -0.1774 -0.1473 -0.1522
26171W        W42432  15.943   7.057   3.041 -0.3075  0.1159  0.0279
26172W        W42433  16.368   9.147  16.603  0.0586  0.1451  0.0138
26173W        W42434  17.440   1.147   4.007 -0.1354  0.0069 -0.1922
26174W        W42435   8.258  14.182   3.529  0.0438 -0.0934  0.1300
26175W        W42436  12.791  14.581   2.875 -0.2293 -0.2085  0.1269
26176W        W42437   4.262   7.539  11.834  0.1510 -0.0877 -0.0625
26177W        W42438   1.756  10.346   2.067  0.0635  0.0293 -0.0106
26178W        W42439  16.574   0.930  14.517 -0.2206 -0.1532 -0.2334
26179W        W42440  14.316   8.162   5.449 -0.1081  0.0508 -0.0309
26180W        W42441   8.255  15.413   1.312  0.4541 -0.1740 -0.2977
26181W        W42442   9.719   5.282   2.585 -0.3132  0.0558  0.0815
26182W        W42443   0.091  13.854  14.827 -0.1542 -0.0138  0.0574
26183W        W42444   6.323   2.965  15.569  0.0525 -0.0863 -0.2409
26184W        W42445   4.530  11.642  13.104 -0.1366 -0.0017 -0.0092
26185W        W42446  10.895   6.014  16.435 -0.0668 -0.1652  0.0855
26186W        W42447  15.360   6.929   6.080 -0.1065  0.0554  0.1138
26187W        W42448   5.495   8.648   3.309  0.0473  0.0230  0.0504
26188W        W42449  11.752  12.996  16.465 -0.1001  0.0328  0.0941
26189W        W42450   3.145   9.026   5.019  0.1161  0.1467 -0.0140
26190W        W42451   3.146   2.847  15.880 -0.0590  0.2511  0.0932
26191W        W42452   7.827   6.354   3.600  0.3635  0.0208 -0.0471
26192W        W42453  16.363   1.656  15.640 -0.0242  0.2968 -0.1828
26193W        W42454   7.775   7.217   2.674  0.0078 -0.2685  0.0015
26194W        W42455   0.743   9.982  16.252 -0.1519 -0.2215  0.0493
26195W        W42456   9.784  13.117   3.629 -0.0060  0.0151 -0.1522
26196W        W42457   9.168   2.376  12.107  0.2877 -0.4473 -0.1098
26197W        W42458   0.935   0.402  15.419 -0.0353  0.1236 -0.0517
26198W        W42459  12.525   2.312  14.945 -0.1392 -0.1352  0.0722
26199W        W42460   8.363   3.084   0.838  0.1886  0.0133  0.2767
26200W        W42461   9.589   6.310   3.318  0.1887 -0.0135 -0.2610
26201W        W42462   9.415  17.455  15.537 -0.1516  0.1999  0.0366
26202W        W42463  12.062   3.895  12.094  0.2208  0.2088 -0.0814
26203W        W42464   5.276   1.913  15.606 -0.1550  0.1688 -0.0713
26204W        W42465   6.037   1.007   4.371 -0.0921  0.1092  0.0816
26205W        W42466   2.074   2.187  14.690 -0.0151 -0.0224  0.1188
26206W        W42467   6.050  13.262   4.664 -0.0322  0.1981  0.0195
26207W        W42468  15.873   4.027  15.742  0.0855  0.3889  0.1224
26208W        W42469  10.078   9.027  15.885  0.0017  0.0355  0.2565
26209W        W42470  12.977  12.560   0.454 -0.1309 -0.2987  0.1678
26210W        W42471   3.140  17.373  13.896  0.1544  0.2105 -0.2346
26211W        W42472  10.393   7.302  16.976  0.1957 -0.1295 -0.0975
26212W        W42473  16.475   7.937   0.061 -0.1726  0.1500 -0.0323
26213W        W42474   3.635  13.903   3.733  0.0964 -0.0681 -0.0605
26214W        W42475  11.864  12.918  13.057 -0.2505 -0.2725 -0.1595
26215W        W42476   6.455  17.126  13.110  0.0313 -0.0383  0.1682
26216W        W42477   7.528   9.673  13.011 -0.1291 -0.1087  0.2797
26217W        W42478  15.341   8.355   5.507  0.1796  0.1803 -0.2419
26218W        W42479  11.546   1.799   4.321 -0.1662  0.2567  0.0247
26219W        W42480   1.564   3.898   3.629 -0.0658  0.0380  0.3803
26220W        W42481  10.142   6.958   5.029  0.1551 -0.2930 -0.0631
26221W        W42482   9.136  16.599   1.492  0.3687 -0.2722 -0.3365
26222W        W42483   3.606  12.185   2.986 -0.2853  0.4128 -0.1471
26223W        W42484   1.349  14.504   3.579 -0.2592  0.0052  0.1481
26224W        W42485   4.416  10.261  12.213 -0.0075 -0.0307 -0.3237
26225W        W42486   5.539  11.990  13.248 -0.0327  0.1604 -0.2064
26226W        W42487  13.911   3.494  12.314  0.0626 -0.2316 -0.1769
26227W        W42488   4.355  11.190  12.960  0.0814  0.4068  0.0774
26228W        W42489  13.547   5.542  12.290  0.1119  0.0423  0.3236
26229W        W42490  10.302   3.372  12.271  0.1814 -0.0653 -0.1773
26230W        W42491  11.864   7.892   1.751  0.1166 -0.2073  0.1961
26231W        W42492  15.565  14.344  13.770 -0.1091 -0.2156 -0.2148
26232W        W42493   5.650   4.102  15.150 -0.2224  0.2963  0.2791
26233W        W42494  14.724  16.265   2.693  0.0178  0.0346 -0.0429
26234W        W42495  13.386  13.277   3.960  0.1527  0.1272 -0.1442
26235W        W42496   0.280   1.144   1.168 -0.2522 -0.1083 -0.1114
26236W        W42497  13.087  15.044   3.686  0.0018 -0.1687 -0.2254
26237W        W42498   6.083  14.009  12.772 -0.2423  0.0665  0.0429
26238W        W42499  12.708  13.164   3.677  0.1109 -0.0812 -0.0924
26239W        W42500  16.324  17.113   1.518 -0.2540  0.0170 -0.0849
26240W        W42501   8.307   5.444   5.321 -0.0170  0.0755  0.1686
26241W        W42502  17.345   5.310   5.555 -0.0930 -0.1615  0.0015
26242W        W42503  12.242   5.495   6.264 -0.2250 -0.2292 -0.0551
26243W        W42504   0.350  17.426   5.506 -0.0563 -0.0480 -0.0863
26244W        W42505   8.606   2.933  12.273  0.0706 -0.3584 -0.1041
26245W        W42506   8.934   1.330   1.908 -0.0331 -0.1259 -0.0913
26246W        W42507  11.868   6.021  12.831 -0.3570 -0.1243  0.0561
26247W        W42508  13.984   7.453  16.860  0.0896  0.2524  0.1807
26248W        W42509  13.312  15.165  13.661  0.0532  0.0062  0.0019
26249W        W42510  16.248  16.679  14.376 -0.3120  0.0596  0.3904
26250W        W42511  13.028  10.930  15.843  0.3132 -0.1537  0.1013
26251W        W42512   6.429  14.967  11.542  0.1963  0.2169  0.0064
26252W        W42513   2.879  17.725   5.818  0.1311  0.0896  0.2149
26253W        W42514   7.332   3.212   4.173  0.1309 -0.3361  0.1956
26254W        W42515   6.054  16.866  14.461 -0.4801 -0.1948  0.0619
26255W        W42516   1.612   0.326   0.840  0.3446  0.1801  0.0224
26256W        W42517  12.626   6.100  14.316 -0.1070 -0.3351 -0.0130
26257W        W42518  10.186   6.305  15.208 -0.0353  0.1086 -0.1579
26258W        W42519  14.559  16.305   5.015 -0.0221  0.0609 -0.1504
26259W        W42520   5.076   6.737  16.491 -0.0744 -0.0291 -0.0563
26260W        W42521  12.837  15.804  15.615  0.2757 -0.0285  0.0529
26261W        W42522   6.438   2.613  14.016  0.1651  0.1356 -0.1708
26262W        W42523   0.872   6.387  16.581  0.1402 -0.0975  0.1025
26263W        W42524  16.110   2.064   1.871 -0.0963  0.4460  0.0126
26264W        W42525  15.672   7.496   3.900 -0.0830  0.1015  0.4128
26265W        W42526  12.650  16.188   3.225 -0.3514 -0.1195 -0.0618
26266W        W42527   6.288   9.092  13.893 -0.4087  0.0841  0.0484
26267W        W42528   8.815  10.121  11.465 -0.1454 -0.1701 -0.2722
26268W        W42529  14.895  15.261  15.147  0.2762  0.0992  0.2703
26269W        W42530   2.568   2.506   4.977 -0.3070 -0.3776  0.3083
26270W        W42531   5.341  10.384  14.150 -0.3001 -0.1242 -0.0735
26271W        W42532   7.967  15.389  15.441 -0.1141  0.2270  0.1261
26272W        W42533   9.941   3.842   3.149  0.1620 -0.0287 -0.0861
26273W        W42534   0.976   8.968  13.975  0.1366  0.2337  0.1974
26274W        W42535  17.857   9.099  11.885  0.0780  0.1837 -0.0480
26275W        W42536  17.694  16.749   3.787  0.2213  0.0442  0.5214
26276W        W42537   5.821   8.577  15.660  0.1284  0.0002 -0.0385
26277W        W42538  14.593  16.894   0.311  0.2540 -0.3140 -0.2055
26278W        W42539   0.266   9.515  12.015  0.2644 -0.2060  0.1351
26279W        W42540  12.186  16.980   1.497  0.0240 -0.1902 -0.3904
26280W        W42541  14.831   0.236  12.196  0.0730  0.1493 -0.1678
26281W        W42542  11.760  16.950   4.046 -0.1335 -0.2268 -0.0926
26282W        W42543  14.856   5.620   2.807 -0.1458  0.2258 -0.0257
26283W        W42544   2.139  17.697  16.585 -0.0111 -0.4118  0.1286
26284W        W42545   5.968   0.237   5.073  0.3837 -0.1491 -0.0852
26285W        W42546  13.596   5.812   0.839  0.0169 -0.0704  0.0844
26286W        W42547   5.491   2.246   0.810  0.2162  0.1846  0.3303
26287W        W42548   5.244   6.062  13.555  0.0968  0.2302 -0.2833
26288W        W42549  10.997   7.794  13.188 -0.0595 -0.2841 -0.0156
26289W        W42550  15.541   0.032   3.710 -0.4255  0.1893  0.0399
26290W        W42551  16.873  10.957   4.211 -0.1431 -0.0200  0.0764
26291W        W42552  10.886   0.594  16.911 -0.0031 -0.1391 -0.1423
26292W        W42553   1.187   5.661   0.008 -0.1846  0.3316  0.1440
26293W        W42554   7.217   6.024  14.062 -0.1010 -0.0414  0.1399
26294W        W42555  11.598   9.905  16.012 -0.0468 -0.1022  0.1230
26295W        W42556  17.563   2.650   6.882 -0.0433  0.0507  0.1104
26296W        W42557  13.751   9.772  14.067 -0.2575 -0.4438 -0.2247
26297W        W42558   2.987   5.169  16.412  0.0893 -0.1683 -0.1438
26298W        W42559  10.551   3.096  11.313 -0.1441  0.3160  0.1102
26299W        W42560   7.708   2.715   4.927  0.2394 -0.1041  0.2173
26300W        W42561   1.159   5.532   5.592 -0.1036 -0.1827  0.1284
26301W        W42562   6.975   8.754  13.109 -0.1140 -0.2179 -0.2506
26302W        W42563  15.715  15.520   5.547  0.1578  0.0518  0.2122
26303W        W42564  17.293   3.505   2.911 -0.1029 -0.0225 -0.1237
26304W        W42565  12.730   7.975   0.239 -0.1819 -0.3475 -0.1146
26305W        W42566  12.706   9.819  12.427  0.0405  0.1683 -0.1102
26306W        W42567   0.964   1.412  12.419  0.0762 -0.2642 -0.0283
26307W        W42568   4.429  11.743   3.159 -0.0080  0.1398  0.1123
26308W        W42569  12.814   3.446  14.886  0.3252  0.2963 -0.1601
26309W        W42570   6.810  12.803   2.298  0.0884  0.1119  0.1428
26310W        W42571  12.923  12.242  15.174 -0.0776 -0.1036  0.0600
26311W        W42572  13.384   0.218   3.257 -0.0399 -0.2243 -0.0961
26312W        W42573   4.282   7.275  14.613  0.0779 -0.0870  0.1482
26313W        W42574   1.402  11.077  11.821  0.0400 -0.2077  0.0033
26314W        W42575   6.303   6.797   4.016 -0.0426  0.1914 -0.0248
26315W        W42576   8.650   1.703   1.955 -0.0456  0.2289  0.1318
26316W        W42577   1.368   2.352   1.984  0.2623  0.0477  0.0643
26317W        W42578  14.994   9.249  16.661  0.1398  0.0849  0.0133
26318W        W42579  13.892  13.438   4.089  0.2047 -0.1876 -0.0521
26319W        W42580  14.780   4.855   5.494 -0.1224 -0.0969 -0.2866
26320W        W42581  17.334  17.661   3.770 -0.1551 -0.1167 -0.0721
26321W        W42582  13.528   5.647  14.258 -0.0822  0.0989 -0.2146
26322W        W42583   1.374   3.299  14.639  0.0185  0.1322 -0.1793
26323W        W42584  14.899  11.577  11.484  0.0435  0.1936 -0.0327
26324W        W42585  10.427  15.110  14.545  0.1840  0.1495  0.1356
26325W        W42586  13.369  14.671   1.695 -0.1165 -0.3660 -0.1089
26326W        W42587  16.822  15.153   5.151  0.1171  0.4199  0.3054
26327W        W42588   3.950   9.205  13.635 -0.0367 -0.2110  0.2707
26328W        W42589   5.389  11.070  16.724  0.2559 -0.0395  0.3009
26329W        W42590  13.734   9.561  13.000 -0.4167 -0.1789 -0.0012
26330W        W42591  16.547  14.078  16.821  0.0127  0.0968 -0.2824
26331W        W42592   5.529  13.392  15.722  0.1105 -0.6012 -0.0884
26332W        W42593   0.739   6.759  13.034  0.1071 -0.1285 -0.2529
26333W        W42594  17.486   0.672   4.407 -0.0913  0.2282 -0.0894
26334W        W42595  13.265  10.209  16.629  0.1469 -0.2049 -0.0312
26335W        W42596   0.177  14.803  15.379 -0.0251  0.1577  0.1024
26336W        W42597  14.925   2.923  13.502 -0.0407  0.3520  0.0306
26337W        W42598  17.249  13.657  15.646 -0.0646 -0.1686 -0.2238
26338W        W42599   5.461   8.805   1.483  0.1584  0.0493 -0.2027
26339W        W42600  17.175   5.774   1.866  0.1480  0.4426  0.1429
26340W        W42601  11.109  14.153  14.580  0.2647  0.2650 -0.0800
26341W        W42602  13.363  12.976   1.267 -0.3549 -0.1256  0.2157
26342W        W42603   2.498   3.192   2.786  0.1022 -0.0491 -0.2224
26343W        W42604   1.970  16.828  16.694 -0.1205  0.0795 -0.1240
26344W        W42605   5.487   7.375  14.882 -0.1167 -0.2080  0.2512
26345W        W42606  13.488   7.517  12.268 -0.0280  0.1806 -0.0062
26346W        W42607   0.365   8.100  16.191 -0.2174  0.0824 -0.0250
26347W        W42608  17.814  12.833   5.750  0.2166  0.2156  0.2374
26348W        W42609   3.976   8.337   5.022 -0.0534  0.1365 -0.1609
26349W        W42610  17.497   3.013   2.977 -0.3136  0.0353  0.1810
26350W        W42611   9.394   0.545  15.797 -0.0001  0.4480  0.2643
26351W        W42612  16.344   3.908  11.891  0.1061 -0.0428 -0.0090
26352W        W42613   9.155  10.309  12.427  0.0474 -0.2018  0.0780
26353W        W42614  17.838   8.779  14.293  0.0821  0.1718  0.0968
26354W        W42615   7.705  12.121   5.861 -0.1472 -0.1954  0.1502
26355W        W42616   3.022   1.829   0.030  0.0932 -0.1314 -0.0092
26356W        W42617   2.084   4.007   4.325 -0.0003 -0.2473 -0.3001
26357W        W42618  14.665   0.880   4.681 -0.1311 -0.0075  0.0421
26358W        W42619   6.192   1.053  15.135 -0.2871 -0.2383 -0.0370
26359W        W42620  11.780  16.356   2.807 -0.1546  0.1185 -0.3743
26360W        W42621   4.417  16.934   2.113 -0.1574 -0.0268  0.1461
26361W        W42622   0.013   4.610  14.735  0.1000  0.3349  0.2238
26362W        W42623   6.782   0.499  15.763  0.0141 -0.1379  0.1771
26363W        W42624   7.954  10.134   5.378  0.0478  0.0206  0.0990
26364W        W42625  15.568  11.703   5.156  0.2563 -0.0919 -0.0047
26365W        W42626   9.938   7.191   2.387 -0.0415  0.1611 -0.1435
26366W        W42627   1.558   4.053   5.098 -0.3651 -0.1488  0.2964
26367W        W42628   3.010  10.753   3.786  0.0820 -0.0281  0.1916
26368W        W42629   4.167   1.895  13.558 -0.1004 -0.0910  0.0441
26369W        W42630  11.599   2.457   3.627 -0.3645  0.1357  0.1956
26370W        W42631  12.395  11.927   5.957 -0.0156  0.2823  0.1853
26371W        W42632   9.393  13.322   2.790  0.4204  0.1200 -0.2042
26372W        W42633  14.887   7.180   6.469 -0.1196  0.1035  0.0557
26373W        W42634  13.436   7.981   3.740 -0.1165 -0.0057 -0.2905
26374W        W42635  16.505  13.337  14.960  0.0306 -0.2404  0.0109
26375W        W42636  15.753   1.243   4.971  0.0493 -0.1479  0.0816
26376W        W42637   7.013  17.342   2.593 -0.0689  0.1726 -0.1850
26377W        W42638   4.986  13.966   3.184 -0.1294  0.2613  0.1030
26378W        W42639   6.079   5.421   0.470 -0.1760  0.1370 -0.1059
26379W        W42640   0.618   3.858   2.910 -0.2026 -0.2037 -0.2438
26380W        W42641  13.012   5.763  14.435  0.1450  0.0684  0.0862
26381W        W42642   3.779  14.289   1.280 -0.1483  0.1185  0.0413
26382W        W42643  16.711   9.998   4.312 -0.1537  0.0789 -0.1710
26383W        W42644  15.557   3.366   2.384  0.2053 -0.2356 -0.0287
26384W        W42645   3.988  16.686  16.445 -0.1222 -0.0469 -0.3940
26385W        W42646   2.401  14.217  14.890 -0.2722 -0.1250  0.1002
26386W        W42647  12.183  14.133  12.820  0.1386  0.0755  0.0443
26387W        W42648  15.704   1.467  16.489  0.1300 -0.0626 -0.2054
26388W        W42649   5.360   6.291  13.087 -0.0639  0.1529 -0.0120
26389W        W42650   8.166   3.781   0.440 -0.0780 -0.0471 -0.0675
26390W        W42651   3.808  13.724   2.616  0.1411 -0.2589 -0.3365
26391W        W42652   5.651  15.374   3.050 -0.0473 -0.5455  0.0466
26392W        W42653   3.892   1.011  13.404 -0.0863 -0.1387 -0.1625
26393W        W42654  12.788   6.990   1.188 -0.1793 -0.2114 -0.2944
26394W        W42655   8.367   8.670   1.615 -0.2042 -0.1558  0.1227
26395W        W42656  10.989   0.832  14.456  0.1270  0.0637 -0.0670
26396W        W42657   3.008   9.948  15.402  0.0581 -0.1972  0.3669
26397W        W42658   6.045   7.446   3.340  0.2092  0.3098 -0.1347
26398W        W42659  12.113   6.612  14.212  0.3781  0.0423 -0.1902
26399W        W42660   6.191  16.596   2.623 -0.2044  0.2635  0.3772
26400W        W42661   5.437  13.941   3.902 -0.0120  0.1464  0.0759
26401W        W42662   7.487   2.784   3.421  0.1514  0.0715  0.0160
26402W        W42663  10.102  16.596  11.433 -0.1030  0.1476 -0.1587
26403W        W42664   4.113  10.682   5.507  0.0099 -0.1035 -0.1168
26404W        W42665   3.451   2.117  14.723  0.2849  0.0229 -0.1747
26405W        W42666   4.263  15.963  16.843 -0.0161  0.0267 -0.0174
26406W        W42667   6.168  11.622   5.366 -0.2428 -0.1457 -0.1398
26407W        W42668  16.944   7.924   5.945 -0.4486  0.1566  0.3076
26408W        W42669  15.319   8.190  16.180  0.1462  0.2277  0.1017
26409W        W42670   6.206   4.565  14.423  0.0581 -0.1861  0.0158
26410W        W42671  14.837  13.660   0.621 -0.1107  0.1531 -0.3521
26411W        W42672  10.817  13.158   4.578  0.1414  0.1702  0.2320
26412W        W42673  12.797  10.610   0.284  0.0251  0.2008  0.2097
26413W        W42674   4.660  14.757  14.228 -0.2111  0.4050 -0.1384
26414W        W42675  13.471   0.071   0.407  0.1600 -0.1787  0.3420
26415W        W42676  13.953  13.139  14.871  0.0060  0.0532 -0.3283
26416W        W42677  12.864  14.538  11.824  0.1366 -0.0456  0.4299
26417W        W42678   5.756  12.819  13.131  0.1787  0.1135 -0.1397
26418W        W42679  11.589   9.350   0.640  0.0210 -0.1078 -0.0901
26419W        W42680  16.666  10.592  14.360 -0.2744  0.1774 -0.0890
26420W        W42681  17.618   3.307  12.077 -0.3408  0.2549  0.0608
26421W        W42682   0.651   1.966   3.524 -0.0408  0.1671  0.1297
26422W        W42683  10.774   6.649  13.945 -0.0262  0.0373 -0.1048
26423W        W42684   4.532  11.523  12.595 -0.5317 -0.2128 -0.1996
26424W        W42685   6.485  11.552   3.387  0.1819 -0.1368  0.0627
26425W        W42686  14.481   0.553  12.968 -0.1285  0.1399 -0.0580
26426W        W42687   7.189   6.201   5.259 -0.0899  0.1202  0.2515
26427W        W42688  16.034   9.538   5.443  0.1132 -0.1995 -0.0033
26428W        W42689   6.181  10.473   0.256 -0.1229 -0.0603 -0.0936
26429W        W42690  13.340   6.739  15.979 -0.1563 -0.0517  0.1060
26430W        W42691  10.224   9.493  15.675  0.1809 -0.2137 -0.5221
26431W        W42692   5.033   0.340   4.705  0.1479  0.1600 -0.0482
26432W        W42693   4.912   0.117   5.921 -0.3959 -0.1247 -0.0988
26433W        W42694  17.714   9.681   1.256 -0.0379  0.1412 -0.0962
26434W        W42695   5.061   9.125   1.573  0.1449 -0.0336 -0.0342
26435W        W42696   7.268   0.644  11.218 -0.1437 -0.0011 -0.1093
26436W        W42697  16.817   5.812   2.237  0.1180  0.1017  0.3498
26437W        W42698  14.035   3.086   4.371 -0.0071  0.0404 -0.0550
26438W        W42699  16.162  12.354  12.522 -0.2358  0.0128  0.1574
26439W        W42700  10.084   9.447   0.161  0.1112  0.1510 -0.2147
26440W        W42701  17.542  13.840  14.370  0.2400  0.1872  0.0493
26441W        W42702  11.881  14.225  13.774  0.3424 -0.2046  0.2661
26442W        W42703   1.686  16.964   2.663  0.4263 -0.1818  0.2678
26443W        W42704   9.202   4.543   2.066 -0.0966 -0.0124 -0.0950
26444W        W42705  14.080  17.152   5.935 -0.0313 -0.2236  0.0781
26445W        W42706  12.530   0.743   4.934  0.0299  0.1835 -0.1419
26446W        W42707   8.388   0.835  15.045 -0.1295 -0.2575  0.0138
26447W        W42708   9.640  14.015   4.186 -0.0301  0.0550 -0.0458
26448W        W42709   0.678   4.076  14.956 -0.1142 -0.0046 -0.0013
26449W        W42710   8.851  14.483   5.198  0.1971  0.2250 -0.0146
26450W        W42711  13.692  14.533   5.278 -0.1189  0.0233  0.2634
26451W        W42712   0.999  10.170   1.341  0.0620 -0.1538  0.1518
26452W        W42713   3.916   7.705  13.722 -0.1598  0.0369 -0.4477
26453W        W42714   6.583   2.187  16.369 -0.0719 -0.1989  0.1454
26454W        W42715   5.018   9.749   2.907 -0.0135 -0.1220  0.4586
26455W        W42716  13.231  11.995   0.360  0.0017  0.0252 -0.0132
26456W        W42717  14.095   7.634  14.928  0.0790 -0.0678  0.0383
26457W        W42718  12.286  11.455   6.015 -0.2904 -0.0106 -0.1201
26458W        W42719   5.759   2.819   0.273  0.0232 -0.2383  0.0658
26459W        W42720   7.137   3.137   0.681  0.0201 -0.2028  0.2350
26460W        W42721  15.456  12.176   3.907  0.2694  0.2596  0.3460
26461W        W42722  17.109  15.698   4.606 -0.1188  0.2200  0.0098
26462W        W42723  14.753  11.375   3.031  0.0642  0.2328 -0.1885
26463W        W42724  17.232   2.977   6.634  0.0616  0.1534  0.0605
26464W        W42725   5.624   0.153  14.411 -0.1939 -0.0046 -0.2478
26465W        W42726   4.090  13.024   0.895  0.1849  0.1287  0.1903
26466W        W42727  11.060   1.666   3.044  0.1531 -0.1105 -0.1653
26467W        W42728   9.372   0.223   4.039 -0.2144  0.3022  0.1786
26468W        W42729  15.274  15.887   0.487  0.0608 -0.1191  0.0782
26469W        W42730   0.789  13.566  14.904  0.2216  0.1891  0.0182
26470W        W42731  10.365   4.383  13.152  0.2246 -0.0356  0.0677
26471W        W42732  14.623   4.474  12.789  0.0250 -0.0348 -0.0040
26472W        W42733  10.037   9.094   1.245 -0.0028  0.0432 -0.1308
26473W        W42734   3.312  12.587   5.313  0.0163  0.2261 -0.3311
26474W        W42735  15.196   4.960   4.763 -0.0533  0.1192  0.1972
26475W        W42736  16.169  15.953  12.686  0.2799  0.0657 -0.2184
26476W        W42737   6.729  10.740  13.420  0.0745  0.1405 -0.2139
26477W        W42738   3.557   1.125  15.577  0.1481  0.2669 -0.0198
26478W        W42739  16.151  12.280   4.434  0.2838 -0.1448 -0.0833
26479W        W42740  16.548  15.885   3.503 -0.2718 -0.0279 -0.1330
26480W        W42741   6.586  13.712   5.089 -0.0258 -0.1121  0.1010
26481W        W42742  14.854  11.043   2.057 -0.1934 -0.0888  0.0020
26482W        W42743   6.505   0.337  12.401  0.0249  0.0483 -0.0169
26483W        W42744  11.385   8.841  11.567  0.0266 -0.1904  0.0283
26484W        W42745   3.389   2.208   4.333 -0.0705 -0.1769 -0.0138
26485W        W42746   7.444  14.930   0.424 -0.1893  0.0362  0.1600
26486W        W42747  11.230   8.784   4.208  0.0489 -0.1869  0.0079
26487W        W42748  14.022  17.587   0.232  0.1998  0.3533  0.1666
26488W        W42749   5.423  16.306   0.966 -0.0698  0.1252 -0.1220
26489W        W42750  11.784   4.280  16.321 -0.2091 -0.0300 -0.0337
26490W        W42751  14.769   9.251   6.201 -0.2419  0.0955  0.2461
26491W        W42752   5.797   9.106   5.923 -0.2511 -0.0565  0.0956
26492W        W42753   2.587  10.350  16.547  0.1629  0.0627 -0.1156
26493W        W42754   0.078  16.900  14.015  0.2290 -0.2145 -0.0951
26494W        W42755   0.297  10.773   5.337 -0.0407  0.1125  0.2525
26495W        W42756  13.298   8.902   4.682  0.1206 -0.0822  0.3549
26496W        W42757   8.699  14.950  15.474 -0.1085  0.1395 -0.0121
26497W        W42758   6.019  11.818   5.840 -0.2681  0.0136 -0.0369
26498W        W42759   4.025   0.141  11.812 -0.0478 -0.1358  0.1711
26499W        W42760  16.178   0.087   5.906 -0.1380  0.0927  0.2463
26500W        W42761  13.520  13.013   3.077 -0.0054  0.3077 -0.2282
26501W        W42762  12.781   0.342   4.007  0.2213 -0.0224 -0.0425
26502W        W42763   9.755  12.446  13.825 -0.1417  0.2417 -0.0131
26503W        W42764  11.652   1.232   5.868 -0.2245 -0.0030  0.2096
26504W        W42765   8.003   4.673  11.742 -0.2667 -0.0806 -0.1344
26505W        W42766   3.363   1.172  14.833 -0.1336  0.2029 -0.0335
26506W        W42767  12.422   3.197  15.105  0.3369  0.2488  0.2240
26507W        W42768   0.060  12.729   2.050 -0.1248  0.0285 -0.1338
26508W        W42769   5.032   1.376  16.039  0.1561  0.0423  0.0881
26509W        W42770   1.019  10.314   0.449  0.3156  0.0703  0.0261
26510W        W42771  13.879   3.463   1.921 -0.0122 -0.1088  0.0103
26511W        W42772  14.762  17.612  12.474 -0.0494  0.2272  0.2321
26512W        W42773  17.460  13.425   4.859  0.1072  0.0349  0.1764
26513W        W42774   4.336   5.696  15.631 -0.1949  0.0358 -0.0112
26514W        W42775   8.818   8.960   4.254  0.0302  0.3375 -0.1140
26515W        W42776  16.128   8.373   3.349 -0.3125  0.0474  0.0515
26516W        W42777   1.459   6.346  16.244  0.0103 -0.1376 -0.0887
26517W        W42778  12.558  17.311   1.722  0.2232  0.0341  0.0670
26518W        W42779  16.265  14.790  14.879 -0.1178 -0.1734  0.0870
26519W        W42780   1.783   4.470  12.254  0.1879  0.0768 -0.1482
26520W        W42781  13.553   6.358   4.673 -0.0555  0.0615 -0.0651
26521W        W42782   9.931   4.331   3.375  0.1019  0.0443 -0.2634
26522W        W42783   9.571   0.945   0.003  0.1385 -0.0839 -0.1823
26523W        W42784  10.210   4.661   3.702 -0.2141  0.0252  0.0136
26524W        W42785  16.380  16.232   2.507  0.2645 -0.4489 -0.0451
26525W        W42786   9.008   7.854   4.281 -0.1544  0.4152 -0.0684
26526W        W42787  12.186   2.136  12.639 -0.0602 -0.1381 -0.1950
26527W        W42788  13.203  16.615  16.758 -0.5161 -0.1236 -0.0349
26528W        W42789   1.990  15.474   0.898 -0.1984 -0.1012  0.2270
26529W        W42790   6.139   9.571  16.066  0.1350  0.0428 -0.0702
26530W        W42791   5.110  14.304   4.927 -0.1855 -0.0678 -0.1806
26531W        W42792  15.911   9.276   2.412  0.3252  0.0887 -0.0390
26532W        W42793   3.853   4.895  14.057 -0.0712  0.3661  0.2315
26533W        W42794   6.540  10.569  15.141 -0.0440  0.1444  0.0879
26534W        W42795  14.009   3.537   5.760 -0.0277 -0.0541  0.1775
26535W        W42796  14.225  11.144  14.235  0.0724  0.3099 -0.3945
26536W        W42797   5.811  14.625   0.323 -0.0616 -0.1351  0.1627
26537W        W42798  17.145   3.905   6.229 -0.0703 -0.0047  0.3861
26538W        W42799  10.366  12.478   4.192  0.0585  0.2769 -0.0877
26539W        W42800   5.135  11.641  11.243 -0.4436 -0.2679  0.1444
26540W        W42801  11.271  11.799  12.814 -0.0063  0.1555 -0.1436
26541W        W42802  13.541  12.987   3.608  0.0656 -0.0422 -0.0784
26542W        W42803   3.525   9.024  12.607 -0.2616 -0.0103 -0.0453
26543W        W42804   3.655  11.992  13.894 -0.2386 -0.2104  0.1192
26544W        W42805   9.566   5.586  14.929 -0.1482  0.2033  0.0406
26545W        W42806  11.634   2.581   4.112  0.1582 -0.3939 -0.1614
26546W        W42807  11.331  10.524  14.225 -0.0389  0.2703 -0.4789
26547W        W42808  10.022  17.381  13.077  0.0685  0.1980 -0.0807
26548W        W42809   9.489   4.053   3.220 -0.0827  0.0227 -0.0170
26549W        W42810   1.559  11.601   5.712 -0.0650 -0.2656  0.2126
26550W        W42811   2.601   8.792  15.305  0.0115  0.3204 -0.1043
26551W        W42812   6.820  10.948   2.306 -0.1593  0.0880  0.0563
26552W        W42813   4.451  11.085  14.915 -0.0865 -0.0315 -0.2594
26553W        W42814   6.711   6.669   2.489  0.0056 -0.2574  0.2185
26554W        W42815   6.387   3.435   3.992 -0.1317  0.0540  0.2927
26555W        W42816  15.778   8.424   3.926 -0.1049  0.0383  0.1543
26556W        W42817  14.693  10.339   4.136  0.1554  0.1987 -0.2834
26557W        W42818  13.218   4.770  13.260 -0.1538 -0.0633 -0.0305
26558W        W42819  10.341  10.723  12.220  0.1700  0.2280  0.0631
26559W        W42820   3.373   8.560   4.290  0.1732 -0.0125 -0.2016
26560W        W42821  12.975   5.864   4.105 -0.1853 -0.1329  0.1369
26561W        W42822  15.449   4.784   3.417 -0.2012  0.2204 -0.0030
26562W        W42823  17.207   7.641  14.162  0.0409  0.0931  0.2324
26563W        W42824   4.182  11.638  12.232 -0.0845 -0.2247  0.2079
26564W        W42825  12.031  13.709  12.526 -0.2577 -0.3699  0.0942
26565W        W42826   0.338  15.339  12.358 -0.0370  0.1519  0.1597
26566W        W42827   0.015   8.887   5.710 -0.0250  0.0960  0.0550
26567W        W42828   0.788  12.182   4.043 -0.1347  0.2158 -0.1105
26568W        W42829  12.182  17.549  11.261  0.0787  0.0342 -0.2383
26569W        W42830  12.025   7.150  15.898 -0.1063  0.0799  0.4146
26570W        W42831  15.406   3.113  15.626  0.0918 -0.1142  0.0670
26571W        W42832   5.786  15.678  13.036 -0.1280  0.0969 -0.1937
26572W        W42833   2.574  13.665  16.025 -0.2081 -0.4455 -0.1334
26573W        W42834   1.528  15.241   4.466 -0.2416  0.1799 -0.0066
26574W        W42835  10.779   9.629   2.256  0.2347 -0.1203  0.4534
26575W        W42836  11.849  17.649  13.744  0.0248 -0.1746 -0.0344
26576W        W42837   4.670   0.918  16.844 -0.2266 -0.0311 -0.0335
26577W        W42838  13.928  13.989   3.689 -0.1960  0.0470 -0.0341
26578W        W42839  10.787  12.891  15.089 -0.0464  0.1861 -0.1565
26579W        W42840   5.807  15.326   0.796 -0.1347  0.2316 -0.0681
26580W        W42841  17.002   6.263   2.364  0.0166 -0.3445 -0.1690
26581W        W42842  14.375   4.872   2.406 -0.0551  0.1986  0.2898
26582W        W42843   2.846   5.094   3.268  0.0640 -0.2578 -0.2465
26583W        W42844   3.690   5.853  12.618 -0.1230 -0.0284  0.2117
26584W        W42845   4.357  13.358   0.569 -0.1353  0.2204 -0.0822
26585W        W42846   5.142   4.003   0.803  0.2230 -0.0747 -0.0272
26586W        W42847   9.689  12.393  14.352  0.2417 -0.3210 -0.1540
26587W        W42848   2.980   1.132  11.993  0.3664 -0.2574 -0.1500
26588W        W42849   4.224   5.689  15.146  0.1622  0.1872  0.3618
26589W        W42850   1.778   5.393  14.592  0.0568 -0.0863 -0.0004
26590W        W42851   6.310   5.321   5.415  0.2025 -0.0620 -0.1084
26591W        W42852   7.224   5.635  16.545  0.2280  0.3327  0.3215
26592W        W42853  12.743   8.303  12.434 -0.3654 -0.1729 -0.1856
26593W        W42854  17.329   1.958  12.428 -0.2972  0.3134  0.2235
26594W        W42855  11.114  17.204   2.843 -0.1087 -0.2678  0.3280
26595W        W42856  10.281  11.709   4.080 -0.0541 -0.0167 -0.1058
26596W        W42857   2.644  15.110   5.424 -0.0725  0.0780  0.0287
26597W        W42858   8.209   6.906  14.148  0.1336  0.2932 -0.0409
26598W        W42859   3.885  13.299  11.009 -0.2571 -0.1035 -0.1042
26599W        W42860   4.838   2.523   3.730 -0.4563 -0.0515 -0.0534
26600W        W42861   7.624   3.929   0.833 -0.0010 -0.0544 -0.0787
26601W        W42862   9.204   0.841  15.036 -0.0318  0.0778  0.0692
26602W        W42863   8.153  15.863   2.476 -0.0061  0.0540 -0.0648
26603W        W42864  11.308  14.852  15.294 -0.1130 -0.0198  0.0825
26604W        W42865   6.002   3.860   1.491  0.1178  0.0616  0.0682
26605W        W42866   7.730  17.791   2.959 -0.0778 -0.4297  0.1749
26606W        W42867  11.522   5.002  14.022 -0.0280  0.0901 -0.0411
26607W        W42868  11.470  17.259  14.829  0.1973 -0.1343  0.2879
26608W        W42869   5.524  15.505   2.042 -0.0727  0.3008 -0.0362
26609W        W42870  16.391  15.383   2.151 -0.1953 -0.1382 -0.0729
26610W        W42871  13.831   1.598  13.327 -0.2130  0.2134  0.0048
26611W        W42872  15.252   0.161   1.409  0.0256  0.0488  0.0233
26612W        W42873  10.409   1.215  16.559  0.0618  0.1069 -0.0082
26613W        W42874  10.477  10.027  14.468 -0.0304  0.0495  0.0110
26614W        W42875   2.728   1.814  15.251  0.1688  0.0043  0.0257
26615W        W42876  12.241   6.353   0.605 -0.5078  0.1935 -0.1477
26616W        W42877   1.450   6.409   1.848  0.3717 -0.1479 -0.0372
26617W        W42878  10.102   7.858  14.235 -0.1102 -0.1507 -0.1105
26618W        W42879   9.846   0.072  12.346 -0.1415  0.1697  0.0214
26619W        W42880  13.866   1.975   5.655  0.0582 -0.3017 -0.0288
26620W        W42881  13.381  14.718   2.224 -0.0905 -0.0936 -0.2828
26621W        W42882   2.958   0.796   0.331 -0.1006 -0.0932  0.0193
26622W        W42883  11.839   7.022   5.816 -0.3788  0.1644  0.2145
26623W        W42884   8.556  13.233   4.770 -0.0628 -0.1249 -0.2356
26624W        W42885   0.547   3.889   2.261 -0.4101 -0.3606 -0.1022
26625W        W42886   4.595  10.365   0.682  0.1820  0.2041  0.1100
26626W        W42887   8.987   8.257  14.398  0.5223  0.0567 -0.0090
26627W        W42888   7.305  13.711  12.189 -0.2955  0.0810 -0.0281
26628W        W42889   3.929  10.177  15.349 -0.1934  0.2307 -0.0857
26629W        W42890  17.370  10.081  16.134  0.2113  0.0341 -0.0812
26630W        W42891   5.965   3.737   4.890  0.1987  0.2469  0.0415
26631W        W42892   5.425   0.426   6.237 -0.3875  0.1531 -0.3095
26632W        W42893  17.374   0.347   5.322  0.0211  0.1112 -0.2611
26633W        W42894  13.552  13.693   5.493  0.1392  0.0534 -0.0252
26634W        W42895  17.200  14.342  13.730 -0.1462  0.1051 -0.1327
26635W        W42896   0.039   5.709   1.888  0.0709 -0.0109 -0.1187
26636W        W42897   1.385   1.754  15.384  0.1195 -0.0959 -0.0567
26637W        W42898   1.111  16.261   3.592  0.1165 -0.1440 -0.0670
26638W        W42899   3.547   2.412  13.270  0.0853  0.2043  0.5399
26639W        W42900   3.212   5.953   4.679 -0.1706 -0.1613  0.0093
26640W        W42901  16.377   3.162  12.570 -0.0018 -0.0069  0.1597
26641W        W42902  11.340   9.090   6.384  0.1327 -0.3376  0.1457
26642W        W42903  12.223   2.143  15.349 -0.2450  0.0166  0.1695
26643W        W42904   8.294  16.685   1.502 -0.1309  0.0598  0.2201
26644W        W42905   7.591  11.027   3.866  0.1241  0.0039  0.2377
26645W        W42906  12.540  16.711   3.971  0.0307 -0.1912 -0.2998
26646W        W42907   2.147  17.700  14.659 -0.1132  0.0610  0.0526
26647W        W42908  11.215  12.562  15.358 -0.2124 -0.1225  0.0012
26648W        W42909   4.294  12.381  11.288  0.3001 -0.0939 -0.0524
26649W        W42910   3.895  10.831   0.666  0.4194  0.2139 -0.4999
26650W        W42911   8.226  14.208  11.483  0.2517 -0.2412 -0.2215
26651W        W42912   5.627   8.694   5.679 -0.0135  0.0697 -0.0943
26652W        W42913   0.059   9.145   1.131  0.0604  0.1884 -0.0352
26653W        W42914   7.373   9.645  11.411  0.0065 -0.3334 -0.0236
26654W        W42915  12.735  10.586   2.102  0.0994  0.0326 -0.1107
26655W        W42916   4.248  11.535   4.409 -0.0645  0.0354 -0.2083
26656W        W42917  11.213   8.962  16.696 -0.2620  0.1078 -0.1114
26657W        W42918   0.874   1.012  14.846 -0.0215 -0.0423 -0.0555
26658W        W42919   8.982  13.345   0.210  0.1651  0.0217 -0.4098
26659W        W42920  12.226  11.756  16.411 -0.2242  0.1655 -0.0561
26660W        W42921  17.198   8.140   1.295 -0.2076 -0.1492 -0.1813
26661W        W42922   0.759   7.406  15.762 -0.1053 -0.1954  0.1414
26662W        W42923  13.394  14.387  14.452  0.0458  0.0305  0.2293
26663W        W42924   1.215  10.162   3.258  0.0818 -0.1770 -0.3682
26664W        W42925   3.851   3.105  14.033  0.3457  0.0997 -0.0326
26665W        W42926   6.509  17.138   4.240  0.0176  0.2110 -0.2220
26666W        W42927  14.114  14.706   6.007  0.2363 -0.1226 -0.0214
26667W        W42928  14.560   9.178   0.045  0.0006  0.0146  0.0346
26668W        W42929   9.115   0.098   5.012 -0.0868 -0.1722 -0.0682
26669W        W42930  13.816   2.581  13.147  0.0605 -0.3270  0.0830
26670W        W42931  15.078   1.744   0.579 -0.1516  0.3411  0.0697
26671W        W42932   7.688  17.244  12.961 -0.1353 -0.5654 -0.1701
26672W        W42933   5.944  15.141   1.691 -0.1324 -0.0831  0.0993
26673W        W42934   8.829   4.918   5.296 -0.1148  0.1185 -0.0676
26674W        W42935   3.730   8.291  13.382 -0.0388 -0.0900  0.2559
26675W        W42936  16.545   1.514  13.462  0.0985 -0.0517 -0.0235
26676W        W42937   2.890   9.999   1.810  0.1116 -0.3764  0.2939
26677W        W42938   0.413   3.322   1.627  0.0308  0.2276 -0.0789
26678W        W42939   8.959   9.783   4.663  0.1296 -0.2479  0.2399
26679W        W42940  10.302  10.495  14.520 -0.0951  0.1844 -0.0661
26680W        W42941   5.052  11.784  14.544 -0.0071 -0.1694 -0.1664
26681W        W42942   5.303   1.262   4.398  0.1963 -0.1269 -0.1825
26682W        W42943   5.567  11.884   3.312  0.2529 -0.0104 -0.0449
26683W        W42944  10.581   1.946  15.647  0.2565  0.0209 -0.0579
26684W        W42945   3.818   5.195   2.687  0.3301 -0.1750 -0.2055
26685W        W42946   8.516   4.999  13.644 -0.1972 -0.2813  0.0448
26686W        W42947   3.347   9.126   4.457 -0.1575 -0.1220 -0.2196
26687W        W42948  16.800   5.982  16.115 -0.0325  0.3960 -0.0002
26688W        W42949  11.182   6.738  11.723 -0.0752 -0.0661  0.2339
26689W        W42950  13.518   7.914  15.531 -0.0624  0.1216 -0.1180
26690W        W42951   7.581  15.412   0.355 -0.2493 -0.1075  0.0058
26691W        W42952   0.111   5.451  12.179  0.2352  0.0540 -0.1539
26692W        W42953   4.248   5.973  11.963 -0.1832 -0.1464 -0.1062
26693W        W42954   8.702  12.760  13.022 -0.2294 -0.1147 -0.0967
26694W        W42955  11.579  12.728   2.515  0.1847 -0.0351 -0.0955
26695W        W42956   6.343  13.973   4.353 -0.0929 -0.1543 -0.1371
26696W        W42957   9.405  17.389   6.621  0.0269  0.1524 -0.1602
26697W        W42958  14.069   7.249  12.109 -0.2452 -0.0180  0.3128
26698W        W42959   6.730  12.790  13.281  0.0793 -0.3076 -0.0121
26699W        W42960  11.576  11.068  16.747  0.0745  0.1075 -0.0106
26700W        W42961   4.234   8.180   5.436 -0.2080 -0.0092 -0.0058
26701W        W42962   1.773   4.724  15.553 -0.0269 -0.5982  0.1830
26702W        W42963   8.994  12.729  14.803  0.1040 -0.0979  0.5021
26703W        W42964   2.646  17.844   2.910 -0.3115  0.0408 -0.3335
26704W        W42965   9.996   3.466  16.598 -0.3293 -0.1142 -0.0868
26705W        W42966  17.215  12.341   4.362 -0.2686 -0.3434  0.1002
26706W        W42967  10.798  10.266  14.779 -0.1508 -0.0196 -0.0095
26707W        W42968  11.656  12.822  15.531  0.1827 -0.1338  0.0038
26708W        W42969   5.690   9.246   4.930  0.1815 -0.2610  0.0815
26709W        W42970  14.543   4.702   1.401  0.0669  0.0426 -0.3300
26710W        W42971  17.412   4.984   1.451 -0.0086  0.0028 -0.1547
26711W        W42972  12.198   4.689   0.212 -0.2180 -0.0673 -0.2037
26712W        W42973   5.707   2.546   1.196 -0.1413 -0.0316 -0.0260
26713W        W42974   6.740  10.945  16.434  0.1270 -0.1516 -0.1528
26714W        W42975   7.814   0.305  13.954  0.0838 -0.0841  0.1223
26715W        W42976  17.580  11.369   0.829 -0.0591  0.3879  0.2765
26716W        W42977   8.352   4.043   4.009  0.1401 -0.1199 -0.2732
26717W        W42978   3.598   2.613   5.817  0.1399 -0.1855 -0.0282
26718W        W42979   7.965   0.816   2.919  0.3132  0.4466  0.1758
26719W        W42980   2.708   3.961   2.486 -0.0679  0.2160  0.2076
26720W        W42981  15.701  12.623  14.961  0.0039  0.4396 -0.2038
26721W        W42982  11.731   7.131   4.279  0.1683  0.1991 -0.0436
26722W        W42983  11.567   2.987   0.578  0.0649  0.1763 -0.2013
26723W        W42984   6.738   7.077  16.383  0.1288  0.0420 -0.1124
26724W        W42985  11.312  13.150  11.645 -0.1295  0.2714  0.2047
26725W        W42986   1.149  15.586  14.168 -0.1613  0.1833  0.3267
26726W        W42987  12.443   8.787  13.276 -0.1097  0.1635 -0.2123
26727W        W42988   2.628  12.935  11.776 -0.0197  0.2988  0.1130
26728W        W42989  17.429  10.449  16.810 -0.0763  0.1817  0.2113
26729W        W42990  17.471  14.587  16.139  0.2952  0.1264  0.4624
26730W        W42991  12.791  10.797  14.532 -0.2138  0.1312 -0.0243
26731W        W42992   0.734   9.594  15.675  0.3835  0.1643  0.2098
26732W        W42993   4.334   9.470  15.501  0.3367  0.2874 -0.2892
26733W        W42994   9.153  13.519   5.642  0.1726  0.0244  0.0378
26734W        W42995  17.853  17.414  13.814  0.0284 -0.1127 -0.1465
26735W        W42996   0.861   8.264   1.970 -0.2520  0.1216  0.1313
26736W        W42997  16.559   0.977   3.310  0.1785  0.2008  0.1216
26737W        W42998   4.645  17.847   5.518 -0.0391 -0.1416 -0.0640
26738W        W42999   9.143   8.872  15.177  0.1603  0.3529  0.1438
26739W        W43000   5.830   2.052  12.392  0.0512 -0.0921 -0.0186
26740W        W43001  13.385   1.922   2.507  0.1990  0.2287  0.1074
26741W        W43002   3.010   4.774  14.552  0.1476  0.2579  0.0704
26742W        W43003   7.453   4.393   1.169 -0.0874 -0.0231  0.0666
26743W        W43004   9.120  17.699  12.866 -0.0797 -0.1232  0.0964
26744W        W43005  15.044   1.644  13.982 -0.1714 -0.2979  0.1738
26745W        W43006   6.837  17.530  13.421  0.2278  0.0974  0.1378
26746W        W43007  10.381   3.773  11.965 -0.1459 -0.1783 -0.2058
26747W        W43008   3.420  10.651   4.504 -0.1462  0.1539 -0.1143
26748W        W43009   9.892  12.741  16.722 -0.0546  0.1863  0.2685
26749W        W43010  11.386  15.537   4.371  0.0025 -0.1039  0.0239
26750W        W43011   7.268   6.086   0.515 -0.0136 -0.2406 -0.0217
26751W        W43012   8.179   6.027   2.405  0.2311  0.2863  0.0379
26752W        W43013   5.480   2.764  15.883 -0.0966 -0.0778 -0.0602
26753W        W43014  12.377   5.564   4.655 -0.0218 -0.3487 -0.4057
26754W        W43015  12.515  16.349  15.605  0.0827  0.0136 -0.1027
26755W        W43016   6.003   6.061   5.881 -0.0267 -0.1182  0.1092
26756W        W43017  10.294   0.010   0.254  0.1906  0.0230  0.0016
26757W        W43018   6.518   6.714   3.010  0.1829  0.1784  0.2191
26758W        W43019   6.539  13.899  14.330 -0.3909  0.1947  0.0700
26759W        W43020   8.153   4.037  15.481 -0.1058 -0.3213 -0.0889
26760W        W43021  13.939   5.197   2.062  0.4050 -0.0260  0.3465
26761W        W43022  15.300   4.769   1.875 -0.1931 -0.1887 -0.0907
26762W        W43023   3.700  13.801   1.373  0.1607  0.2728 -0.2318
26763W        W43024   4.248  11.055   4.186 -0.1198  0.0405  0.0658
26764W        W43025  12.727   4.258   3.537 -0.1489  0.2051  0.2336
26765W        W43026  16.872   6.049  12.684  0.1798  0.0808  0.1523
26766W        W43027   6.165   5.243  13.706  0.1193  0.1095 -0.0943
26767W        W43028  11.474   2.364  14.384  0.1490 -0.2188 -0.1499
26768W        W43029   3.032   0.450  12.493 -0.1793  0.3959 -0.0152
26769W        W43030  16.627  10.085  16.629 -0.2105 -0.0353  0.1652
26770W        W43031   8.545   9.620   2.960  0.2416  0.0246 -0.1148
26771W        W43032   0.027   1.838  16.856  0.0736 -0.1596  0.1817
26772W        W43033   6.700   6.580  16.379  0.0381  0.1560  0.1236
26773W        W43034  10.232  11.363  13.621  0.3028  0.2153  0.4225
26774W        W43035   1.059   2.659  16.597  0.2309 -0.3370  0.3735
26775W        W43036   9.411   8.415  15.307  0.0425 -0.1045  0.0239
26776W        W43037  16.980   1.802  14.694 -0.0900  0.0183  0.1667
26777W        W43038  11.836  10.559   3.879 -0.0198 -0.1038  0.0222
26778W        W43039   4.567  16.350   3.324  0.2490  0.0068 -0.1542
26779W        W43040  17.387   5.236  15.974 -0.4513 -0.1317  0.0523
26780W        W43041  10.405  15.504   3.332  0.0143 -0.3975 -0.0618
26781W        W43042  13.516   5.315  15.291  0.3546 -0.0703  0.2295
26782W        W43043   9.674   8.903  15.335  0.0912 -0.0143  0.0314
26783W        W43044   0.560   2.715  16.311 -0.0201 -0.0733 -0.2646
26784W        W43045   7.470  12.780   1.453 -0.1593  0.1582  0.0527
26785W        W43046  13.732   9.680   4.741  0.3996 -0.0478 -0.0822
26786W        W43047  12.644  10.026   2.946 -0.1606  0.2041  0.1204
26787W        W43048  11.741   0.786   5.966  0.0065  0.2810  0.0047
26788W        W43049   9.688  15.782  16.931  0.0378 -0.0993  0.0565
26789W        W43050   5.607   2.647  14.561 -0.0821 -0.0082  0.1695
26790W        W43051  15.730   4.115  13.992  0.0391 -0.0312 -0.0413
26791W        W43052   2.869  11.335  13.853 -0.0237  0.1093 -0.0217
26792W        W43053   2.070  16.908  14.691 -0.1674 -0.1022 -0.1577
26793W        W43054  14.935   4.596  16.349  0.0566 -0.0084 -0.1881
26794W        W43055   4.151   6.816  12.106  0.2827  0.0668 -0.1877
26795W        W43056   7.258   6.948  11.724  0.2341 -0.0511  0.1360
26796W        W43057   2.160  14.667   0.761 -0.0517 -0.2817  0.1893
26797W        W43058  10.123  17.834  12.799  0.0002  0.0708  0.0293
26798W        W43059   6.065  11.442  12.535  0.2251 -0.1464  0.0981
26799W        W43060   8.135   7.675   3.496  0.0116 -0.1114 -0.0557
26800W        W43061  13.508   7.066  13.964 -0.0761 -0.1266 -0.1083
26801W        W43062  15.537  14.066   4.610 -0.2249 -0.2305  0.0330
26802W        W43063  13.460  17.305   4.707  0.0045  0.1515 -0.3096
26803W        W43064   2.662   6.160   3.739 -0.1626  0.0009  0.1278
26804W        W43065  10.150  14.398  14.869  0.4113  0.0877 -0.0609
26805W        W43066  11.569   1.716   0.137 -0.3520  0.0562  0.2545
26806W        W43067   5.740   0.026  16.275 -0.1426  0.2352 -0.1541
26807W        W43068  17.294  16.046   4.961 -0.0461  0.1888 -0.3388
26808W        W43069  11.001   4.681  16.463 -0.0097  0.0280 -0.1550
26809W        W43070  12.044   7.249   0.076 -0.1727  0.2655 -0.1668
26810W        W43071  16.487   3.811   5.504  0.0035 -0.2130 -0.1813
26811W        W43072   5.358   6.311   5.146  0.1413 -0.0321  0.1042
26812W        W43073  14.199  10.069  12.594 -0.0228 -0.2221 -0.3502
26813W        W43074  13.876   5.261   3.147  0.1289 -0.1615  0.2975
26814W        W43075   3.130   7.714   3.936 -0.2078  0.0839 -0.0908
26815W        W43076   3.623   8.912  10.745  0.0255 -0.1058  0.0177
26816W        W43077  12.239   8.306  12.626 -0.2317 -0.1192  0.1940
26817W        W43078   7.253   8.696  13.531 -0.0403  0.2028 -0.2234
26818W        W43079   5.226  16.050  14.969  0.3248 -0.2729 -0.2387
26819W        W43080   8.259   7.840  15.291  0.1772 -0.0762  0.0710
26820W        W43081  15.971  11.376   3.970 -0.2250  0.0110 -0.1215
26821W        W43082   0.636   6.524   0.881  0.0592  0.1281 -0.1887
26822W        W43083  12.338   3.714   0.209 -0.0160 -0.1007  0.1038
26823W        W43084  11.155  17.143   5.364 -0.1117 -0.0845  0.2182
26824W        W43085  17.697  10.191  15.198 -0.2138 -0.0902  0.2589
26825W        W43086   9.359  17.708   2.920  0.0633 -0.0478 -0.0953
26826W        W43087  13.621   1.507   3.973  0.2480  0.2166  0.2846
26827W        W43088  13.180   7.249   1.799  0.2062  0.2168  0.0065
26828W        W43089   3.579   0.853   3.676  0.1143 -0.0716 -0.1028
26829W        W43090   0.357   5.807   5.057  0.1418 -0.1312 -0.4317
26830W        W43091   0.943  16.069   4.129 -0.2752 -0.1398  0.1534
26831W        W43092  13.249   2.373   2.002 -0.0564  0.0058 -0.2507
26832W        W43093   6.948   8.264   1.045  0.2157  0.0452  0.1332
26833W        W43094   5.394  14.207  12.045  0.0217 -0.2604 -0.3021
26834W        W43095   0.299   8.758  12.222  0.2295 -0.2498  0.2152
26835W        W43096  10.340  13.458  13.149  0.1076 -0.0654 -0.0601
26836W        W43097   2.484  13.117  11.337 -0.3529  0.0925  0.0880
26837W        W43098   0.852   2.444  12.050 -0.1805  0.0814  0.0765
26838W        W43099  16.534  10.130  15.570  0.3060  0.0829  0.2165
26839W        W43100   1.328   5.484  13.901  0.1255 -0.0079 -0.0556
26840W        W43101   7.329  17.792   4.439 -0.1006 -0.1231  0.0141
26841W        W43102   4.881  12.294   2.549 -0.2651  0.1943  0.0585
26842W        W43103   9.327  10.864   3.949 -0.2862  0.0108  0.0510
26843W        W43104  17.697  10.276  14.161  0.3233  0.2147 -0.0040
26844W        W43105  16.194  11.357   4.456 -0.0281  0.0239 -0.1061
26845W        W43106  16.880   0.557   4.462  0.0387 -0.0362  0.1797
26846W        W43107  13.851  10.429   4.031  0.2353 -0.2085  0.1492
26847W        W43108   6.087   2.841  12.591 -0.2354  0.0035  0.1675
26848W        W43109  11.485   3.423  15.174 -0.3947  0.3269 -0.1953
26849W        W43110  15.372   3.661  14.991 -0.0114 -0.0956 -0.2358
26850W        W43111   6.122   6.016   3.897  0.2002 -0.2741 -0.2933
26851W        W43112   0.486   3.441   1.102  0.3371 -0.0500 -0.3166
26852W        W43113   1.576  10.692   0.335  0.1033 -0.1090 -0.1373
26853W        W43114   4.245   0.867   5.832 -0.0497 -0.0725 -0.1713
26854W        W43115  15.932  15.163   4.294  0.1242  0.1830 -0.0088
26855W        W43116   6.795  15.766  16.455  0.1440  0.0987 -0.0566
26856W        W43117   8.890  16.482   0.261  0.2107 -0.1323  0.0347
26857W        W43118  16.501  15.542  13.521  0.0107 -0.0045 -0.1719
26858W        W43119   0.588  13.446  16.069  0.1347  0.0060  0.2450
26859W        W43120   6.246   3.757   3.616  0.1518 -0.2272 -0.1594
26860W        W43121   1.644   3.315  13.653 -0.1041  0.2226 -0.2280
26861W        W43122  15.561  10.960   3.379  0.0220 -0.1470  0.1253
26862W        W43123   4.018   6.351   3.364  0.0308  0.0271  0.3058
26863W        W43124   2.289   6.789  12.001  0.0233 -0.0020 -0.0736
26864W        W43125   6.624  14.222   1.109 -0.2100 -0.2400  0.3215
26865W        W43126  11.123   5.485   0.650 -0.1348 -0.2005 -0.1358
26866W        W43127  10.444   1.200  14.091 -0.2604 -0.0820 -0.1739
26867W        W43128   7.629  11.326   4.890 -0.1391 -0.0843  0.1761
26868W        W43129  13.275  12.245  13.303 -0.1053  0.0753  0.0166
26869W        W43130  13.117   0.167   2.778  0.1454 -0.2688 -0.1424
26870W        W43131   1.244  11.941  11.788 -0.2880  0.2812 -0.0917
26871W        W43132   5.514   9.111   3.529  0.0905  0.2263  0.0393
26872W        W43133  11.876   1.120  14.399 -0.3149 -0.3010 -0.1191
26873W        W43134  11.566  15.196   4.831  0.1023 -0.0848 -0.0852
26874W        W43135   6.151   4.989  14.161  0.1795 -0.4108 -0.2938
26875W        W43136   6.604  12.011   5.054  0.1708  0.3152 -0.0729
26876W        W43137   7.514   3.821   1.828 -0.0160  0.0953 -0.1921
26877W        W43138  15.241   9.439   1.704  0.1096  0.1098 -0.0689
26878W        W43139  10.809  17.017   2.084 -0.3855 -0.0952  0.1587
26879W        W43140   2.780   7.531  13.091  0.0321  0.3150 -0.1284
26880W        W43141   5.844  11.633  13.400 -0.1185 -0.0028 -0.1320
26881W        W43142   4.045   1.280   1.574 -0.1310 -0.3205  0.0577
26882W        W43143  12.728   5.637  15.324 -0.1760 -0.0586  0.0412
26883W        W43144   6.818  13.803   1.400  0.2185  0.0700 -0.0813
26884W        W43145  17.435   6.584  13.212  0.1342  0.0235  0.1970
26885W        W43146   8.562  14.667   1.021 -0.0060 -0.2527 -0.1526
26886W        W43147   8.934   6.334   4.814 -0.0701  0.0499 -0.1289
26887W        W43148   1.562  12.753  12.876 -0.0595  0.1691  0.1954
26888W        W43149  14.426  15.823   1.494 -0.1861  0.0863 -0.1992
26889W        W43150   5.808   0.089   4.483  0.2186  0.0107 -0.2006
26890W        W43151  17.625   4.243   1.903 -0.0350  0.0867  0.0508
26891W        W43152   6.945  12.880   3.116 -0.3929  0.1600 -0.2930
26892W        W43153   7.626   5.960   3.311  0.2718  0.1137  0.1793
26893W        W43154   5.390   7.308  11.846 -0.1139  0.1115 -0.1681
26894W        W43155   7.296   6.859  14.541  0.0393 -0.1759  0.1824
26895W        W43156   2.774   5.903  12.560 -0.2250 -0.1427  0.0532
26896W        W43157   7.117   3.775  15.885 -0.2242  0.0067 -0.0586
26897W        W43158  14.757  12.406   1.818 -0.1438 -0.0366  0.2113
26898W        W43159   9.840  14.503   3.354 -0.0093  0.1351  0.2377
26899W        W43160  12.359  12.840  11.112  0.3056  0.1203 -0.0225
26900W        W43161  16.495  10.623   3.161 -0.1094  0.0621  0.2637
26901W        W43162  10.453   4.876  15.858 -0.1992 -0.1434  0.0524
26902W        W43163   3.847  11.829   5.233  0.0440  0.2779 -0.1264
26903W        W43164   2.040  10.367  12.398  0.0079  0.1372  0.1326
26904W        W43165  13.169  16.655   1.744 -0.0981  0.0944 -0.2858
26905W        W43166  12.933   2.740  13.103 -0.1818 -0.0218  0.0752
26906W        W43167  17.427  13.033  12.953  0.4009  0.1112 -0.2173
26907W        W43168   4.888   3.282   6.491  0.2368 -0.3012 -0.1277
26908W        W43169  14.890  12.002   6.001  0.0875 -0.2635 -0.0264
26909W        W43170   6.677   1.958   5.015  0.0968 -0.2951 -0.0763
26910W        W43171  13.207   8.606  13.114  0.0811 -0.4386  0.2110
26911W        W43172  11.427   3.943  15.068 -0.2682 -0.0264  0.3769
26912W        W43173   3.261   1.841   5.667  0.0246 -0.1929 -0.0800
26913W        W43174   6.444  16.346   4.363 -0.1410  0.0673 -0.0545
26914W        W43175   0.722   8.094  13.431  0.0595  0.1039 -0.0924
26915W        W43176   0.774  12.696   5.076  0.0455  0.2359 -0.1173
26916W        W43177   0.935   4.402  15.513 -0.1658 -0.1879  0.1138
26917W        W43178   2.662   2.924  16.611  0.3269  0.2983 -0.2727
26918W        W43179   4.758  17.369   5.552 -0.3377  0.0124 -0.1487
26919W        W43180  14.927  17.673  14.441  0.0443  0.0501  0.0452
26920W        W43181   8.459   2.370   4.398 -0.4328 -0.2938 -0.0702
26921W        W43182  10.509  15.657   5.243 -0.0921  0.0110 -0.2676
26922W        W43183   3.959   7.418   2.083  0.1438 -0.1503  0.0681
26923W        W43184   3.382   4.796   0.783  0.0822 -0.1719 -0.0664
26924W        W43185  16.423   0.373  12.296 -0.2251 -0.0583  0.1138
26925W        W43186  14.114   9.634   0.652  0.0189 -0.1803  0.2662
26926W        W43187   4.290   0.236  12.927  0.0506  0.0236  0.1562
26927W        W43188  12.347   5.006  14.643 -0.1652 -0.1474  0.2394
26928W        W43189   7.326   8.005   1.320  0.2766  0.1312  0.0449
26929W        W43190   0.087  14.805  12.408 -0.2352 -0.1393 -0.0510
26930W        W43191   1.564   1.420   3.761 -0.0666  0.0496 -0.0109
26931W        W43192  11.463  16.839  16.683  0.3494 -0.1460 -0.1390
26932W        W43193   5.587  14.336   2.603  0.6154 -0.1407 -0.1954
26933W        W43194  13.127   3.129  16.929 -0.0589  0.1472 -0.1834
26934W        W43195   9.349   4.761   5.190  0.0499  0.0865  0.0273
26935W        W43196   0.644   7.457  11.982  0.0412 -0.1254  0.1185
26936W        W43197   8.606  10.302  12.224  0.1290  0.0442  0.2451
26937W        W43198   1.754  13.017   1.132 -0.2215 -0.0506 -0.1037
26938W        W43199   4.758  13.912  14.461 -0.4287  0.1730  0.0836
26939W        W43200   8.569  11.053  16.075 -0.1037  0.0925 -0.0597
26940W        W43201   2.580   0.090   4.311  0.0200 -0.0158  0.2384
26941W        W43202   7.683   6.634  15.798 -0.0430 -0.0896 -0.3621
26942W        W43203   8.344   3.443  10.811  0.1877 -0.2959  0.0133
26943W        W43204  13.176  13.243   3.421 -0.0100 -0.0014 -0.2329
26944W        W43205  11.858   2.474  15.351  0.0262  0.1770  0.0839
26945W        W43206   0.842   2.935  13.321 -0.4248  0.0332  0.0064
26946W        W43207  13.210   2.069   2.991 -0.0310  0.0140 -0.1806
26947W        W43208   9.983  11.729  12.438 -0.4110 -0.0136 -0.1946
26948W        W43209   8.846  10.645   0.234  0.1338  0.3136  0.0511
26949W        W43210   2.796  17.267  13.508 -0.1651 -0.0406  0.2517
26950W        W43211  13.965   2.562   0.294 -0.0776 -0.1423  0.0550
26951W        W43212  13.077  15.831   5.487  0.2972  0.3610  0.1340
26952W        W43213   2.908   8.378   0.731 -0.1192  0.2242  0.1967
26953W        W43214  15.229   9.588  14.261  0.1845  0.3038  0.0784
26954W        W43215  15.404   4.382   0.999  0.3494  0.0430  0.1968
26955W        W43216   1.811  13.100  13.131 -0.1376  0.3617 -0.0017
26956W        W43217  12.864  10.018   4.295  0.0523 -0.0366 -0.1411
26957W        W43218  16.058   1.240   5.947  0.0399 -0.0829 -0.1520
26958W        W43219  11.604   8.005   0.800  0.0273  0.0787  0.3799
26959W        W43220   7.008  14.880  15.306  0.1907  0.0374  0.0839
26960W        W43221   4.160   3.197  13.602  0.2567 -0.1785  0.3102
26961W        W43222   7.328  12.092   3.130  0.1452 -0.2325  0.0539
26962W        W43223   1.510   2.082  11.856 -0.1247 -0.0549  0.0172
26963W        W43224   3.201  16.992  13.454 -0.2234 -0.3761  0.0246
26964W        W43225   9.280  12.573  12.796 -0.3455 -0.0770  0.1325
26965W        W43226  17.010   4.791  14.071  0.0810  0.0719  0.0838
26966W        W43227   8.007   0.344   3.105  0.0171 -0.0612 -0.1314
26967W        W43228   2.354   1.934   1.136  0.1100  0.0452 -0.0493
26968W        W43229   6.471  11.529  15.299  0.1057 -0.0297  0.3616
26969W        W43230  15.302  13.351  14.888 -0.0499 -0.0626 -0.2955
26970W        W43231  10.567  11.699  15.319  0.0276 -0.2529  0.0412
26971W        W43232  13.793  14.095  13.333  0.0094  0.0784  0.0515
26972W        W43233   0.785   8.912  16.313  0.2179  0.1167 -0.0956
26973W        W43234  15.907   9.385  16.584  0.0903  0.1293  0.0706
26974W        W43235   9.416   3.909  16.008  0.1177  0.1778 -0.1374
26975W        W43236   0.157   2.846   3.642  0.1212  0.2488 -0.0507
26976W        W43237  14.428  13.936  15.410 -0.0286 -0.3598  0.2698
26977W        W43238   9.964   2.052   5.098 -0.1016  0.2148  0.1262
26978W        W43239   0.079   6.093   5.330  0.1079 -0.3573  0.1522
26979W        W43240   8.406  10.330   0.297 -0.0173 -0.1538  0.2169
26980W        W43241  10.577   6.669   2.641  0.1272 -0.4099 -0.2998
26981W        W43242  14.961   1.908   1.068 -0.3719 -0.6540  0.0236
26982W        W43243  11.197  13.415   4.582 -0.0998 -0.1774  0.3693
26983W        W43244  14.392  15.829   2.372  0.2835 -0.1738 -0.1310
26984W        W43245  17.518   1.663   6.674 -0.2268  0.0139 -0.0227
26985W        W43246   4.705  11.332   4.325 -0.1648 -0.1679  0.0428
26986W        W43247   9.348   2.135   5.424 -0.1301  0.2938 -0.1754
26987W        W43248   7.153  17.097   1.624 -0.1214  0.2223 -0.0762
26988W        W43249   1.653  17.805   2.425 -0.0632  0.0740  0.2437
26989W        W43250   1.674  13.297  16.103  0.2316 -0.0139  0.0639
26990W        W43251   2.358  12.129   0.363  0.1759 -0.2236  0.0391
26991W        W43252  17.782   1.338   2.146  0.0249 -0.0108  0.1024
26992W        W43253   3.029  17.654  13.032 -0.1500 -0.4124  0.0061
26993W        W43254   6.081   9.729  11.126 -0.0332  0.2887  0.0092
26994W        W43255  10.798  15.195   1.561 -0.0351  0.1802  0.0058
26995W        W43256   2.970  16.957  14.358 -0.1504  0.0340  0.6102
26996W        W43257  10.441  12.069   2.874  0.0914  0.1189  0.0680
26997W        W43258   6.596   7.627   6.005 -0.1780 -0.0716  0.1690
26998W        W43259   4.238  11.115  12.477  0.0067 -0.2012  0.0861
26999W        W43260   4.429   3.199   3.205  0.1405 -0.0596  0.1405
27000W        W43261  14.312  11.352  14.879 -0.1945  0.0520 -0.1149
27001W        W43262  13.677   2.068   3.374  0.2619  0.0959  0.0763
27002W        W43263   0.226   7.734   1.846  0.1345  0.1058 -0.0058
27003W        W43264   8.289   6.986   1.383  0.3179 -0.0099  0.1764
27004W        W43265   6.212   2.715  13.120  0.2089  0.1000  0.1917
27005W        W43266   7.860   9.957   2.751  0.1081  0.3091 -0.0787
27006W        W43267   0.667   3.586   3.384 -0.1200 -0.1695 -0.0323
27007W        W43268   9.952  11.328  15.995  0.2733  0.1575 -0.2063
27008W        W43269  10.353  11.727  16.660 -0.3077 -0.2776  0.1481
27009W        W43270  10.989   4.049   1.776  0.0286  0.1058  0.0923
27010W        W43271   1.175  17.223  16.576 -0.0653 -0.1685 -0.0413
27011W        W43272   0.791  13.829   1.709  0.2651 -0.3337  0.1733
27012W        W43273   2.673  11.215   4.871 -0.0041  0.1101 -0.0340
27013W        W43274   7.014   1.631   3.489  0.2086  0.1447  0.2561
27014W        W43275  17.531   7.214  15.986 -0.1026 -0.3165 -0.0723
27015W        W43276  11.901   0.911  15.359 -0.1814 -0.0507 -0.0124
27016W        W43277  16.071   6.421  11.822 -0.0760  0.4294  0.2755
27017W        W43278   6.901   1.955  14.825  0.1482 -0.0876  0.0980
27018W        W43279  14.781   9.643  16.839 -0.1809  0.0681 -0.3924
27019W        W43280  14.786  13.293  15.942 -0.2588 -0.0788  0.2692
27020W        W43281   1.461   0.878   3.868  0.2164 -0.1285  0.1469
27021W        W43282  13.645  17.052  14.392 -0.3704  0.2157 -0.2181
27022W        W43283  15.335  10.537  15.058 -0.1900  0.0455 -0.1266
27023W        W43284   6.261   4.833   2.155 -0.0983 -0.0735  0.0399
27024W        W43285  12.443   0.114   4.345  0.2365 -0.3202  0.1407
27025W        W43286   8.954   4.174  14.005 -0.1396 -0.4874 -0.0128
27026W        W43287   6.711  11.916   2.044 -0.0482 -0.2118 -0.2297
27027W        W43288  14.293   6.027  16.055  0.1689  0.1263 -0.0665
27028W        W43289   0.044   9.742  15.341  0.0599 -0.0260 -0.2876
27029W        W43290   0.843  16.219   1.371  0.1414 -0.1381 -0.0740
27030W        W43291   9.424  12.572  11.673 -0.2980  0.1449 -0.3162
27031W        W43292  16.417  10.036  14.601  0.5363  0.1930  0.0804
27032W        W43293   6.712  13.145  11.680  0.0427 -0.0424  0.0800
27033W        W43294   3.738  10.678   1.179  0.0220 -0.1109  0.0794
27034W        W43295  12.770  17.779  16.521  0.2379 -0.0404 -0.3638
27035W        W43296  16.579   3.856  15.052  0.3323  0.0235  0.3092
27036W        W43297   0.839   2.133  16.688 -0.3080 -0.1424 -0.1990
27037W        W43298   9.424   7.793  13.061  0.0111 -0.1834  0.1967
27038W        W43299   7.084   4.704   0.068  0.1857 -0.2609 -0.1494
27039W        W43300   2.978  16.549   1.258 -0.1049  0.2700  0.0823
27040W        W43301   3.027   8.073  13.648  0.1284  0.1862 -0.0377
27041W        W43302   8.632   4.599  16.450  0.0804  0.0505 -0.1407
27042W        W43303  10.489   1.043   1.415  0.2860 -0.0106  0.0973
27043W        W43304   0.625  12.013   3.491 -0.1795 -0.2073 -0.2360
27044W        W43305  15.621  13.037  15.857  0.2198  0.1402 -0.1897
27045W        W43306   0.758   6.506   4.565 -0.2443 -0.2483  0.2720
27046W        W43307   7.881   6.842   2.983  0.2470  0.1963  0.2708
27047W        W43308  12.109   7.556   2.818  0.2037  0.0145  0.0494
27048W        W43309   4.118   8.114   4.147 -0.0808  0.3621 -0.1615
27049W        W43310  13.462  12.981  11.978  0.0854  0.0578  0.0109
27050W        W43311   6.018  11.849  16.739  0.0035 -0.0274  0.0319
27051W        W43312  17.493  13.607   3.844 -0.2305  0.1914 -0.2424
27052W        W43313  12.281  13.379   3.375 -0.3512  0.0190  0.1031
27053W        W43314   5.958  15.997  14.051  0.2296  0.2080 -0.2167
27054W        W43315   2.898  16.558   2.766  0.0841 -0.2082  0.1983
27055W        W43316  17.771   9.340   2.556  0.1969  0.2321 -0.0169
27056W        W43317   2.647  15.855   1.529  0.1525  0.0816 -0.0423
27057W        W43318   1.735  11.506   2.358 -0.2282  0.1970 -0.3857
27058W        W43319  12.257   6.012  16.446  0.1036 -0.0058 -0.1724
27059W        W43320   1.698  16.159   1.399 -0.1405  0.1589  0.2811
27060W        W43321  16.760  12.353   3.773  0.2487 -0.1321  0.2826
27061W        W43322   2.025   8.499   1.335  0.0219  0.1690 -0.1950
27062W        W43323   5.943  17.709  12.282 -0.0635  0.5101 -0.1680
27063W        W43324   7.157   1.961   5.206 -0.0883  0.0384  0.3332
27064W        W43325   9.702   3.430   0.726 -0.1374 -0.3825 -0.2425
27065W        W43326   1.474  15.374  15.876  0.3017  0.0800 -0.1096
27066W        W43327   2.568   2.511   5.476  0.3181  0.0608  0.4663
27067W        W43328   8.953  14.606  16.419  0.2540  0.3103 -0.0878
27068W        W43329  17.024  14.979  12.940 -0.0007  0.1193 -0.2327
27069W        W43330   0.095  16.419   3.364 -0.0609  0.0618  0.3035
27070W        W43331  11.500  10.107   6.239  0.0179  0.2713  0.2455
27071W        W43332  12.443  12.381   0.573  0.1716 -0.1344 -0.5303
27072W        W43333  13.431   7.628   1.598 -0.3769  0.1774  0.0568
27073W        W43334  15.795   7.610  14.716 -0.2613  0.1316 -0.0038
27074W        W43335   2.877   8.850   1.032  0.0344  0.4341  0.1230
27075W        W43336  17.147  12.225  15.627  0.3373 -0.0687 -0.0758
27076W        W43337  13.832   6.768  12.687 -0.2099 -0.1454 -0.1937
27077W        W43338  17.762   2.742  12.891 -0.2327 -0.1947  0.1497
27078W        W43339   1.456   3.560  16.752 -0.3715  0.0872 -0.4293
27079W        W43340  13.193   5.160  16.665  0.1675  0.0208 -0.0658
27080W        W43341   7.729   2.410   4.549  0.2136  0.0813 -0.0817
27081W        W43342   5.706   9.225   4.029 -0.0197  0.0964 -0.0976
27082W        W43343   8.687  15.102   4.363  0.1823  0.3655  0.2522
27083W        W43344   2.169   6.328   5.538 -0.3182 -0.0402  0.0891
27084W        W43345  12.047   0.218  12.236 -0.1722  0.2469  0.2332
27085W        W43346   7.462  13.770  14.486 -0.3329 -0.0291  0.2707
27086W        W43347   6.394  16.526   5.336 -0.0569  0.1436 -0.0502
27087W        W43348   0.273   9.927   3.373  0.0361 -0.1448  0.1359
27088W        W43349   1.460   0.719  16.357 -0.2776 -0.1021 -0.2228
27089W        W43350  13.452   3.669   2.206  0.1257  0.2559 -0.3114
27090W        W43351  11.584   5.480   1.795 -0.3041 -0.0734 -0.2305
27091W        W43352  16.244  12.763   1.162  0.0213  0.2827  0.0007
27092W        W43353  11.973  15.649   0.493 -0.0287 -0.2144  0.1217
27093W        W43354   7.317   8.813  12.696  0.1346 -0.0824 -0.0939
27094W        W43355  11.491   6.057   5.184  0.1353 -0.2213  0.0307
27095W        W43356  13.562   4.332   1.223  0.4054 -0.0892 -0.1031
27096W        W43357  13.098  15.057   4.553  0.1438 -0.1495  0.0716
27097W        W43358   7.811   3.150  16.357 -0.0444  0.2735 -0.0775
27098W        W43359  12.903   2.593   0.731 -0.0035 -0.0936 -0.0115
27099W        W43360  14.361  11.651   0.117  0.0441 -0.0065  0.0103
27100W        W43361   7.963  14.096   1.317  0.0498 -0.1393  0.1428
27101W        W43362   0.848  16.361   2.572 -0.3237  0.0628  0.2009
27102W        W43363  17.315   9.292  11.871 -0.0443  0.0164 -0.0938
27103W        W43364   2.402   9.229   3.462 -0.1312 -0.1125  0.1215
27104W        W43365   8.636  12.930   3.152 -0.2670  0.1999 -0.0359
27105W        W43366  17.506   2.348  16.115  0.0175 -0.0609  0.1254
27106W        W43367   3.382   8.478  14.555 -0.0246  0.1190 -0.0771
27107W        W43368  14.186   9.652   3.740 -0.1900  0.1546  0.0089
27108W        W43369  13.495  12.694  15.860  0.0604  0.3074  0.0076
27109W        W43370   1.921   7.583   0.737 -0.3992  0.1181  0.1269
27110W        W43371   9.183   9.552   3.676 -0.0579  0.1454  0.2234
27111W        W43372  14.011  12.300   0.657  0.2070  0.0460  0.3347
27112W        W43373   0.394  13.682   2.045  0.0317 -0.0758  0.2714
27113W        W43374  16.462   0.949   1.061  0.2088 -0.2752 -0.1123
27114W        W43375   2.863  11.627  14.359  0.0406 -0.0955  0.3295
27115W        W43376   3.690  16.765  10.394 -0.1997 -0.1163  0.0322
27116W        W43377   9.349   3.423  13.094 -0.2441 -0.1725  0.1239
27117W        W43378  13.724  13.562  13.170 -0.4014 -0.0499 -0.1689
27118W        W43379   5.246  16.326   5.060  0.1532 -0.0725  0.1505
27119W        W43380  12.808   0.096  13.560 -0.0850 -0.1223  0.2626
27120W        W43381  12.839   9.608  14.364  0.3248 -0.0907  0.0918
27121W        W43382   7.543   5.581  14.167 -0.0033  0.1698  0.1217
27122W        W43383  12.850   3.906  14.902  0.0378 -0.4051 -0.0111
27123W        W43384   3.681  12.709   4.058  0.2436 -0.0737  0.3340
27124W        W43385   1.112  13.394   2.454  0.1066 -0.0544 -0.1054
27125W        W43386   6.149  13.760  12.115  0.2849  0.0851 -0.0310
27126W        W43387   5.040   5.169   1.852 -0.1837  0.1127  0.3885
27127W        W43388   4.934   5.611  13.280  0.2112 -0.1219  0.0734
27128W        W43389   1.995   8.100  12.349 -0.2670  0.0020 -0.0250
27129W        W43390   5.248  11.201  15.022  0.2461  0.3414  0.1456
27130W        W43391   1.153   9.558   4.531 -0.1203 -0.1198  0.2490
27131W        W43392   5.535  17.542  13.408  0.0122 -0.2179  0.0199
27132W        W43393   1.985   5.209   0.288 -0.4619  0.0330 -0.2918
27133W        W43394  15.566   5.106   2.214  0.0886 -0.1947 -0.0627
27134W        W43395  15.092   5.198   3.058  0.0448 -0.1039 -0.0571
27135W        W43396   7.802   7.141   0.645  0.0884  0.1179  0.0052
27136W        W43397   7.305   8.312  12.783 -0.0685  0.1510  0.0849
27137W        W43398   8.964   6.733  14.725  0.0034 -0.0493  0.0058
27138W        W43399   7.491  12.538  13.856  0.1403 -0.0134 -0.2193
27139W        W43400  14.811  13.911   4.092 -0.0299 -0.0116  0.2085
27140W        W43401  12.807   3.845   0.176  0.2932  0.3309  0.0003
27141W        W43402   0.374   1.338  13.215 -0.1531  0.0222 -0.0519
27142W        W43403   2.185   8.053   0.087  0.3154  0.1711 -0.2433
27143W        W43404   1.797  15.619   1.362  0.1021  0.0770 -0.1947
27144W        W43405   2.880   6.303   4.540 -0.0745  0.0643 -0.1485
27145W        W43406   9.185   5.553   1.768  0.2276 -0.0169  0.4232
27146W        W43407   2.070   0.109   5.586  0.1826  0.1367 -0.0910
27147W        W43408   9.940   9.987  15.797 -0.3169 -0.0629  0.1551
27148W        W43409  17.688  17.388  16.670 -0.0538 -0.0351  0.3538
27149W        W43410  17.494  10.454   0.871 -0.1247 -0.0718  0.0544
27150W        W43411   5.956   0.140   3.873 -0.0158 -0.0295 -0.1227
27151W        W43412   5.036   0.978  13.021 -0.0775  0.2050 -0.0546
27152W        W43413   9.586   9.183   5.151  0.0654 -0.3619  0.1471
27153W        W43414   3.469   8.573   3.569 -0.1059 -0.0608  0.0667
27154W        W43415  12.596  12.916  14.967 -0.0665 -0.0006  0.0351
27155W        W43416   6.873  13.117  14.941 -0.2539 -0.3877 -0.1986
27156W        W43417   8.608   6.565   5.158 -0.3127  0.1579  0.2603
27157W        W43418  13.923   3.141   2.525 -0.1412 -0.0181 -0.2684
27158W        W43419  10.205   0.484   2.007  0.2224  0.3103  0.0486
27159W        W43420  12.172  14.437  16.864 -0.1710  0.1204 -0.4264
27160W        W43421   6.190   9.829  10.600 -0.0630  0.0260 -0.1665
27161W        W43422  12.019  11.726  15.601 -0.1478  0.3682 -0.0645
27162W        W43423   2.714   2.222   2.323  0.0527 -0.1512  0.2200
27163W        W43424   4.927   0.750  12.496 -0.1217  0.0510  0.0360
27164W        W43425  14.571   0.085   5.971 -0.0673  0.0950  0.1479
27165W        W43426  12.140   3.986  14.746 -0.1275  0.1276  0.0488
27166W        W43427   3.339  13.736   2.775  0.1660 -0.2867 -0.1813
27167W        W43428  17.298   4.954  13.076 -0.0258 -0.1316  0.0616
27168W        W43429   5.069  11.790   3.638  0.1015  0.2232 -0.0438
27169W        W43430   2.544  13.789  14.719  0.1389  0.0697 -0.0651
27170W        W43431  14.545   7.171  12.193 -0.1041 -0.0594 -0.0329
27171W        W43432   0.727  16.987   3.784  0.0131  0.2893 -0.0700
27172W        W43433  16.443   1.898   2.574 -0.1089  0.1375  0.0402
27173W        W43434   2.514   3.179   4.451 -0.2938  0.2835  0.2701
27174W        W43435   3.764  13.153  14.920 -0.4118 -0.0125  0.1046
27175W        W43436   6.329   9.360  15.596 -0.2105  0.0257 -0.0618
27176W        W43437  14.294   3.447  16.693 -0.1285 -0.0527 -0.2219
27177W        W43438  15.359  16.855  12.850  0.1643 -0.1708  0.0789
27178W        W43439  10.886  15.778   1.204 -0.0017 -0.2045 -0.0333
27179W        W43440   3.397  14.259   3.501  0.2133  0.0233  0.1513
27180W        W43441   4.851   8.507   0.911  0.0969 -0.1311 -0.0850
27181W        W43442   2.740  11.812   4.736 -0.3354  0.2454  0.2798
27182W        W43443   1.185  11.170   1.373 -0.0707 -0.1073  0.1700
27183W        W43444   8.862  12.174  10.474 -0.1131 -0.2138  0.2847
27184W        W43445  14.297  13.788  13.329 -0.1838 -0.1407 -0.0926
27185W        W43446   5.014  11.874   1.901  0.2291 -0.0366  0.1914
27186W        W43447  14.402   6.386   2.727 -0.1204 -0.0735  0.0211
27187W        W43448   0.132   7.056   6.424 -0.1465 -0.7023  0.0425
27188W        W43449   3.790  10.548  12.984 -0.1229  0.1860 -0.0946
27189W        W43450   2.594  13.268  13.631  0.0542  0.1613  0.2528
27190W        W43451   2.888  12.807   4.307  0.0697  0.3588  0.2349
27191W        W43452  10.313  13.207   1.714  0.1627 -0.1747  0.2413
27192W        W43453   6.024  13.743   6.349 -0.3723 -0.1567 -0.2206
27193W        W43454   1.086   0.957   0.562 -0.2356  0.1071  0.1489
27194W        W43455   9.124   0.978   5.498 -0.2328  0.1011  0.0182
27195W        W43456  11.554   0.746  11.626 -0.0298  0.1621  0.1921
27196W        W43457   1.677  14.255   3.928 -0.1257  0.2016 -0.0344
27197W        W43458  16.010   4.698  15.865 -0.1415  0.1959 -0.1241
27198W        W43459   1.237  13.109   0.062  0.3453  0.3070 -0.0390
27199W        W43460  17.122   2.256  12.078 -0.1057 -0.1819  0.0784
27200W        W43461   1.707  16.996   5.158 -0.1371 -0.0855 -0.0551
27201W        W43462   6.902   0.594   6.060  0.3770 -0.1337  0.1182
27202W        W43463  13.311   5.291   1.028  0.1355  0.1862  0.1348
27203W        W43464   3.627   5.490   1.485 -0.0819  0.3218 -0.1572
27204W        W43465   1.756  10.890   1.261 -0.0321 -0.0040  0.0047
27205W        W43466   0.669  16.858   4.832  0.3179  0.0082  0.0429
27206W        W43467  16.512   0.362   1.763 -0.3932  0.1317 -0.1651
27207W        W43468   1.109   0.721  12.919  0.0643 -0.0271 -0.0968
27208W        W43469  15.875   6.548   2.934 -0.1846 -0.0681  0.2507
27209W        W43470   2.298  16.079   3.035 -0.0955  0.0420  0.1436
27210W        W43471   9.943  13.788  13.364  0.2683  0.2079  0.0680
27211W        W43472   6.648  10.507   1.874  0.0708  0.0862  0.0084
27212W        W43473  13.495   1.926  14.498 -0.2958 -0.0747 -0.0576
27213W        W43474   6.544  10.176   0.040 -0.0654 -0.1341  0.1241
27214W        W43475   9.544   2.608   4.642 -0.1471 -0.1119 -0.2101
27215W        W43476   4.276   1.086   0.095  0.4031  0.0880  0.2048
27216W        W43477   2.782   9.945   2.669 -0.0523  0.1722  0.0419
27217W        W43478  14.392   7.607  12.355  0.1354 -0.0737 -0.1460
27218W        W43479   5.805  10.399  11.967 -0.3276 -0.0264 -0.4197
27219W        W43480  15.977  13.997   1.400 -0.1849  0.0172  0.2387
27220W        W43481  15.125   1.099  14.507  0.0676  0.3184 -0.1091
27221W        W43482   8.505  14.396  16.164  0.1795  0.0433  0.4599
27222W        W43483   8.085   2.217   5.247 -0.1732  0.1992 -0.1855
27223W        W43484  10.905  12.809  11.424  0.1108 -0.0196  0.1006
27224W        W43485   1.271   7.849   3.514 -0.0712  0.3729  0.0274
27225W        W43486   3.916   8.259  14.613  0.1268 -0.0155  0.0729
27226W        W43487   5.359   3.741   2.294  0.0457 -0.0235  0.2200
27227W        W43488   6.321   0.817   3.912 -0.0420  0.0262  0.2316
27228W        W43489   2.533  12.103  11.608 -0.0811  0.0510 -0.2589
27229W        W43490  15.549  16.456   1.051 -0.0557  0.3338 -0.1644
27230W        W43491   0.802   9.408  14.148  0.1781 -0.1157 -0.0278
27231W        W43492   2.874   4.984   3.794 -0.0466 -0.3186 -0.3899
27232W        W43493   5.420   9.375  12.358 -0.1451 -0.0883 -0.1245
27233W        W43494   1.214  17.681  14.292 -0.1378  0.0367 -0.0998
27234W        W43495  14.082  15.575   3.285  0.0799  0.3104  0.0545
27235W        W43496  16.382   9.919  11.823  0.1561 -0.3214  0.1395
27236W        W43497  10.274   1.729   3.921  0.0702 -0.1324  0.0979
27237W        W43498  17.804   2.857   0.916  0.0334 -0.2450  0.0657
27238W        W43499   3.516   7.532   2.285  0.3086 -0.1864 -0.1179
27239W        W43500  16.895  13.799   5.881  0.0272 -0.1618  0.2870
27240W        W43501   0.478   4.828   5.026 -0.0678 -0.1625 -0.0136
27241W        W43502  13.136   1.268   4.229 -0.0543  0.0842 -0.2940
27242W        W43503   7.644   7.619  12.215  0.2313 -0.4739 -0.2480
27243W        W43504   3.421  16.200   3.745 -0.0755  0.0539  0.0164
27244W        W43505   5.857   9.368  16.413 -0.0084 -0.0853 -0.0893
27245W        W43506  17.854  13.993   3.784 -0.3935 -0.2617  0.3745
27246W        W43507   1.453   3.860  12.772 -0.2750 -0.2203  0.1057
27247W        W43508  13.730  11.589   2.399 -0.1675 -0.3086  0.0994
27248W        W43509  14.481  14.583   4.652  0.1163  0.0804  0.1717
27249W        W43510  12.119  13.969   0.362 -0.0265  0.3455 -0.3266
27250W        W43511   6.544  10.651  15.863 -0.1193  0.1488  0.1232
27251W        W43512  16.444   5.755   4.006 -0.2200  0.0958 -0.2775
27252W        W43513   1.007   9.222  15.913  0.2098  0.1447 -0.3266
27253W        W43514   7.084   7.922   5.894  0.1480 -0.0016 -0.1740
27254W        W43515  11.166   4.773  14.431 -0.0433 -0.0108 -0.1239
27255W        W43516  16.162  13.102  12.088  0.1287 -0.2394 -0.0825
27256W        W43517  12.959  15.265   3.246 -0.0229 -0.0753  0.0894
27257W        W43518   2.541  14.253   0.810 -0.0800  0.2275  0.0492
27258W        W43519  16.094   2.409  16.527  0.2149 -0.0023 -0.0651
27259W        W43520  11.537  12.067   0.745  0.1044 -0.1360 -0.1759
27260W        W43521   6.900  14.992   3.192  0.0359 -0.1096 -0.3699
27261W        W43522   8.220  12.432   0.684 -0.2152 -0.0393 -0.3798
27262W        W43523  10.872   9.970  13.420  0.0894 -0.1464 -0.0742
27263W        W43524   2.906   9.232  12.443 -0.2128  0.2229 -0.0086
27264W        W43525   9.155   2.988   4.672  0.2007  0.0680  0.1486
27265W        W43526   8.901  12.201   5.572  0.0689  0.0950 -0.0029
27266W        W43527   6.436   1.949  14.704 -0.2297 -0.2233 -0.3804
27267W        W43528  15.130   3.597   4.976 -0.0097 -0.1113 -0.0471
27268W        W43529   7.151   2.373  14.707  0.0505 -0.0002 -0.0752
27269W        W43530  14.371  12.862   3.462  0.0011  0.3526  0.0961
27270W        W43531   9.626  14.494   0.069 -0.1539 -0.1516  0.0617
27271W        W43532   9.937  14.945   4.739  0.1274 -0.0538 -0.1046
27272W        W43533   7.200   2.956   0.135  0.2621  0.2622 -0.0019
27273W        W43534  14.285  11.950  12.285  0.1312 -0.1066  0.2350
27274W        W43535   6.818   2.346   1.234  0.1839 -0.1362  0.0607
27275W        W43536  12.673   5.631  13.999 -0.1629  0.0753 -0.0513
27276W        W43537  10.670  11.675   1.998 -0.0321 -0.0535 -0.2741
27277W        W43538  14.362  11.883   0.532  0.1021  0.4055 -0.0872
27278W        W43539  17.078  11.310  15.031 -0.0996 -0.0799  0.0246
27279W        W43540   1.136  13.744  15.333  0.1375  0.0666  0.3357
27280W        W43541   7.697   6.346   1.138 -0.2329 -0.0403  0.1659
27281W        W43542  13.238   9.342   3.871 -0.2647  0.0478  0.1320
27282W        W43543   4.469   4.043  16.319  0.1937 -0.1658  0.3248
27283W        W43544   4.862   1.835   2.832  0.0764 -0.1275  0.1519
27284W        W43545   9.426   8.323   4.598  0.2550 -0.1010  0.0185
27285W        W43546   1.728  15.695   3.140 -0.2113 -0.0854  0.1351
27286W        W43547   4.411   4.288  15.798 -0.0413 -0.0474 -0.0511
27287W        W43548  10.257   6.867  13.232  0.0771  0.1702 -0.2609
27288W        W43549   8.982  11.745   0.376  0.0423 -0.0387  0.1501
27289W        W43550   7.753  14.211  11.155  0.0646 -0.0366  0.1442
27290W        W43551  17.278   1.482  12.847 -0.1138 -0.3147 -0.0693
27291W        W43552  13.816   5.189  16.518  0.2982 -0.0053  0.0191
27292W        W43553   2.935   4.962  12.978 -0.1277  0.0383  0.1878
27293W        W43554  17.027  12.110   6.189  0.0192  0.1433 -0.3020
27294W        W43555  12.290   0.183  14.565 -0.0068  0.0820  0.0681
27295W        W43556  10.391   6.763   5.428  0.0591 -0.1411 -0.1578
27296W        W43557  11.330  16.765   5.741  0.1902  0.2245  0.1811
27297W        W43558  12.794   3.729   0.692 -0.0800  0.2728 -0.0008
27298W        W43559   9.599   1.540   1.114  0.1578 -0.2464 -0.0496
27299W        W43560   8.934   6.461   0.627  0.3991  0.0860  0.1216
27300W        W43561  12.314  15.145  12.624 -0.0473  0.0057 -0.0796
27301W        W43562   5.556  15.405   2.571 -0.2175  0.1899  0.1206
27302W        W43563  15.525  10.463  15.510  0.0806  0.2531 -0.0914
27303W        W43564   5.946  14.770   4.754  0.1094  0.3219 -0.0102
27304W        W43565  10.929   2.433  15.958  0.1532 -0.2905  0.0749
27305W        W43566   5.999   9.538  13.827 -0.0086  0.1094  0.0895
27306W        W43567   1.213  12.757  11.337  0.1084  0.2278  0.0771
27307W        W43568  13.838  12.092   1.295 -0.0001  0.0191  0.0436
27308W        W43569  14.499   2.837   4.537 -0.0322  0.1395  0.1294
27309W        W43570   7.822   6.431   4.154  0.0253  0.0258  0.0303
27310W        W43571   5.910  10.376  13.540 -0.0465  0.1660 -0.1173
27311W        W43572   9.677  12.170  12.559 -0.0466  0.4045 -0.2698
27312W        W43573  17.501   4.679  15.843 -0.0598 -0.0275  0.2478
27313W        W43574  14.742   2.733   2.974 -0.1192  0.0943 -0.1203
27314W        W43575  15.871  10.566  15.111 -0.1096  0.0328 -0.2625
27315W        W43576   4.384   1.037   5.280 -0.0565  0.1491 -0.4515
27316W        W43577   1.013   9.525   4.026  0.0059  0.1423 -0.4289
27317W        W43578  15.350   5.506   5.534 -0.1998 -0.3172  0.0609
27318W        W43579  11.035  12.510   4.070  0.1807 -0.2464 -0.0716
27319W        W43580  17.270   3.089  11.774 -0.0654 -0.0321  0.2211
27320W        W43581  12.062   6.962   1.665  0.0491 -0.0015 -0.0821
27321W        W43582   0.523   0.914  16.552  0.0226 -0.0075 -0.3167
27322W        W43583   4.412  16.187   2.875 -0.1030  0.0349 -0.1919
27323W        W43584  16.935  15.326   3.552 -0.0603  0.0067 -0.0129
27324W        W43585  14.252   1.027  14.511  0.0570 -0.0912  0.0232
27325W        W43586  12.282   1.520   5.015 -0.0197  0.0805 -0.3195
27326W        W43587  14.372   2.937  15.575 -0.1085 -0.5386  0.1424
27327W        W43588   8.519  13.004   1.506 -0.1039  0.0882 -0.0686
27328W        W43589  16.893   9.047   1.487 -0.1167  0.0810 -0.1683
27329W        W43590   5.280  17.170  14.361 -0.1674  0.0040 -0.5258
27330W        W43591  16.436  12.954  14.668 -0.1772  0.2252 -0.0123
27331W        W43592  10.756   7.894   4.493 -0.1001  0.0189 -0.2029
27332W        W43593   1.043  15.121  15.707  0.1666 -0.2061 -0.0053
27333W        W43594   2.510   9.893  16.723 -0.2237 -0.0617 -0.3804
27334W        W43595  16.778  14.295   6.090  0.1072 -0.1619  0.1627
27335W        W43596  15.234   7.314   3.665  0.4089 -0.5068  0.1620
27336W        W43597  12.195  14.970  15.633 -0.1768  0.0963  0.1621
27337W        W43598   0.251  12.981   2.451 -0.0428  0.0974 -0.0830
27338W        W43599  14.648  15.421   1.215 -0.0098 -0.3849  0.0015
27339W        W43600  15.591  11.909  10.853 -0.0491  0.0726 -0.1790
27340W        W43601   2.967   4.816  15.464  0.0050  0.1913 -0.0346
27341W        W43602  12.522  13.449   1.273 -0.3275  0.4262  0.2064
27342W        W43603   7.535   4.241  14.895 -0.0395  0.1164  0.2660
27343W        W43604  15.729   4.510   2.083  0.2621 -0.0701  0.0504
27344W        W43605   3.542   6.658  15.062  0.0249 -0.0724  0.0510
27345W        W43606   4.661   5.987   5.659  0.0673  0.1267  0.0528
27346W        W43607   7.325  11.964  13.709 -0.0012 -0.0723  0.0320
27347W        W43608  14.202  15.434   2.036 -0.0331 -0.2002 -0.1092
27348W        W43609  11.814   1.671   1.763 -0.3205  0.1617 -0.2047
27349W        W43610  17.335   2.067  15.684 -0.3088  0.0937  0.0441
27350W        W43611   1.586   3.841   4.147  0.0620  0.0723  0.2200
27351W        W43612  16.266   8.571  12.558 -0.3067 -0.0677  0.1748
27352W        W43613  12.189  17.231   4.866 -0.3632 -0.1412  0.0347
27353W        W43614  15.032   7.321   1.824  0.1178 -0.1582  0.3308
27354W        W43615  15.033  17.610   0.689 -0.2662 -0.0924  0.4642
27355W        W43616  13.608   2.604   4.429 -0.1650 -0.1949 -0.1465
27356W        W43617   9.978  16.505   4.991 -0.1682  0.2920 -0.1882
27357W        W43618  14.941   6.598   2.746  0.1462 -0.0094  0.0797
27358W        W43619  11.045   9.511   3.406 -0.1638  0.0040 -0.1555
27359W        W43620   9.229  10.592  12.031  0.0851  0.2472 -0.0587
27360W        W43621   1.553  12.079   5.603  0.1466 -0.4266  0.1974
27361W        W43622  11.283  16.333  12.253 -0.0598 -0.0602 -0.0919
27362W        W43623   7.452   8.263  14.295  0.1855 -0.2123 -0.1051
27363W        W43624  13.465   8.014  13.829 -0.0527 -0.1945 -0.2012
27364W        W43625   9.580  12.009   2.963 -0.1884  0.0732 -0.0994
27365W        W43626   8.673  11.279  16.512  0.0805 -0.0448  0.3500
27366W        W43627   8.440  17.138   1.599 -0.2165  0.0956  0.0798
27367W        W43628   9.524  14.291  12.092 -0.0927  0.0315  0.2740
27368W        W43629  10.120  14.827   2.981  0.3695 -0.0510  0.0248
27369W        W43630   0.070  14.649  16.280 -0.1197  0.2073  0.1330
27370W        W43631   7.673   9.998  13.693  0.1614 -0.3454 -0.2165
27371W        W43632   7.105  10.726   5.285 -0.2385 -0.0266  0.2518
27372W        W43633   9.920  11.860  16.265 -0.2423  0.2639 -0.0021
27373W        W43634   0.332   3.296   3.587  0.3755 -0.0385 -0.1127
27374W        W43635   7.971  17.791  11.421 -0.0416 -0.1002  0.0504
27375W        W43636  13.633   8.240  12.970  0.0371  0.1584 -0.2203
27376W        W43637  11.936   6.006   0.823 -0.0485 -0.0786  0.1419
27377W        W43638   2.192   8.866   3.700 -0.1664 -0.0077  0.1156
27378W        W43639   0.726   0.207   5.815  0.2423 -0.2068  0.0971
27379W        W43640   8.168  10.686   0.013  0.0776 -0.1529  0.1294
27380W        W43641   4.739   3.033   5.451  0.1443 -0.0098 -0.0868
27381W        W43642  17.630   6.605   2.973  0.2734  0.3268  0.2849
27382W        W43643   9.369   7.706   1.290  0.1697 -0.1021  0.2456
27383W        W43644   5.620   6.432   5.936 -0.2933  0.1279  0.2568
27384W        W43645  12.288  14.482   4.440 -0.0223  0.0077  0.3144
27385W        W43646  16.997   3.698   5.701 -0.2132  0.0379  0.1787
27386W        W43647  12.891   7.736   1.795 -0.2780 -0.0999  0.2677
27387W        W43648  17.014  10.749   1.821 -0.1374  0.0289 -0.0359
27388W        W43649   5.545  15.841   1.080 -0.0550 -0.1223 -0.0922
27389W        W43650  15.747   3.787   0.566  0.1487 -0.1936 -0.2128
27390W        W43651   0.859  17.696  16.196 -0.4718 -0.3893 -0.2132
27391W        W43652   9.644   3.158  12.169  0.0799  0.2551 -0.0052
27392W        W43653  15.029  10.405  12.222  0.0669 -0.1975 -0.1620
27393W        W43654  15.422   2.923  16.156  0.3814 -0.0580  0.0617
27394W        W43655  17.297   6.879  12.379 -0.0177  0.2095 -0.2592
27395W        W43656  11.208   5.583  14.623  0.1185  0.2577 -0.0014
27396W        W43657  11.123  16.788   6.239 -0.1227  0.1526 -0.2716
27397W        W43658  13.789  11.089  13.859  0.3482 -0.2331 -0.3108
27398W        W43659  14.604  15.126  16.504 -0.2052 -0.1093  0.0373
27399W        W43660  14.786  15.721  12.593  0.2120 -0.0175 -0.1943
27400W        W43661   5.258   2.138  13.652 -0.2043  0.1454  0.3743
27401W        W43662  14.348  10.579  16.180 -0.2143  0.0097 -0.0851
27402W        W43663  15.530   8.566   2.132 -0.2646  0.1222  0.2158
27403W        W43664   8.703   9.508   2.447 -0.0064  0.0136  0.0175
27404W        W43665  11.338  17.534  12.395 -0.2277 -0.1333 -0.1826
27405W        W43666   9.645   1.690   5.508  0.1275  0.2659 -0.3017
27406W        W43667  14.588  10.058   5.173 -0.1551 -0.0885 -0.0080
27407W        W43668  14.604  12.843   2.012 -0.0534 -0.0620  0.0624
27408W        W43669   8.142  12.099  12.218  0.3641  0.2808 -0.3132
27409W        W43670   7.427   7.742  13.425  0.0098 -0.0110 -0.4027
27410W        W43671   4.583   1.490   0.123 -0.0727 -0.3481 -0.0967
27411W        W43672   2.353  10.517   1.355 -0.1714  0.0181  0.0263
27412W        W43673  12.283  10.443  14.487 -0.4428  0.0935  0.2184
27413W        W43674  13.785  15.552  15.773 -0.0053 -0.3669 -0.1137
27414W        W43675   6.141  16.295  12.349  0.1148  0.0521  0.1884
27415W        W43676  11.402   2.183   1.091  0.1138  0.2383 -0.1779
27416W        W43677   7.467   1.970   0.875 -0.0070 -0.0857 -0.0693
27417W        W43678   6.531  11.045   4.823  0.0212 -0.0011 -0.0393
27418W        W43679  15.941   4.671  16.689  0.2320 -0.4834 -0.0690
27419W        W43680  11.946   1.496  11.929  0.2369  0.2444  0.3247
27420W        W43681  14.467   8.062  13.657  0.0321  0.0758  0.2409
27421W        W43682   0.342  10.381   5.052  0.1532 -0.1057  0.1939
27422W        W43683   8.527  13.785   4.907  0.1094 -0.0856 -0.1346
27423W        W43684  16.353   6.623   0.511 -0.1289 -0.2681 -0.1153
27424W        W43685   9.506  15.572   1.369 -0.1227  0.3490  0.0900
27425W        W43686   4.662  16.314  16.122 -0.1660  0.3561 -0.0165
27426W        W43687  17.304  16.065   0.436  0.0072 -0.0400 -0.0219
27427W        W43688  10.487   7.080   3.261 -0.0242  0.0390  0.2044
27428W        W43689  10.643   4.285   4.590  0.0073  0.0261 -0.2882
27429W        W43690   1.378  14.143   2.225 -0.0886  0.0019 -0.2487
27430W        W43691  11.207  16.238  15.002  0.1177  0.0577  0.1975
27431W        W43692   9.452  10.162  15.801  0.0776  0.2246 -0.1791
27432W        W43693   6.713   4.758   6.735  0.2901 -0.1154 -0.0269
27433W        W43694   9.353  17.629  11.065  0.2456 -0.0096  0.2451
27434W        W43695  11.899  14.950   1.040 -0.2759  0.0942 -0.0108
27435W        W43696  16.005   4.120  10.833  0.0027  0.0404 -0.1650
27436W        W43697   8.241   3.292   1.297  0.1094  0.1816  0.1378
27437W        W43698   0.746   8.549   5.544 -0.1329  0.0869 -0.0943
27438W        W43699   6.098   8.154  16.600  0.1088 -0.1090 -0.0465
27439W        W43700  16.048   2.671  14.599 -0.0128 -0.0853  0.1623
27440W        W43701  12.283   5.559   2.981  0.2563  0.1024  0.1629
27441W        W43702   6.883   5.390  14.423  0.0889 -0.0527  0.2551
27442W        W43703   9.504   3.932  13.243  0.0016 -0.3349 -0.0507
27443W        W43704  10.422   1.680  16.712 -0.1912 -0.2418  0.1908
27444W        W43705  12.926  11.630  11.986 -0.1992 -0.2752  0.0805
27445W        W43706   5.225   4.502  12.174 -0.1940  0.0341 -0.1214
27446W        W43707   6.170   3.632   5.372  0.0164  0.0884  0.0410
27447W        W43708   4.298   1.278  13.556 -0.1736 -0.2106  0.0227
27448W        W43709  14.378   9.262   3.484 -0.0757 -0.0269  0.0579
27449W        W43710  11.926   9.158   1.514  0.3347 -0.1337 -0.3507
27450W        W43711   1.999  11.575  13.074 -0.0902  0.0180 -0.0535
27451W        W43712   9.266   5.324   4.485  0.1333 -0.1216 -0.1485
27452W        W43713  15.713  17.599  14.425 -0.2173 -0.2269  0.1002
27453W        W43714   7.747   8.187   5.399  0.0405 -0.1567 -0.4744
27454W        W43715  10.764   9.577  14.696 -0.0557 -0.0791 -0.0239
27455W        W43716  16.107  15.055   0.031  0.1336  0.0593  0.0309
27456W        W43717  15.521   4.612   5.721  0.0713 -0.1891 -0.1047
27457W        W43718  10.721  10.638   0.534  0.2096 -0.0971 -0.3747
27458W        W43719   7.588   2.930   0.525  0.0400 -0.1875 -0.0465
27459W        W43720   9.347  12.363   1.704  0.1688 -0.0271 -0.2076
27460W        W43721   8.360   3.383  14.176  0.0357 -0.0039  0.1788
27461W        W43722  12.191   2.249  16.221 -0.0533 -0.0586 -0.4158
27462W        W43723   4.795  15.123  11.949  0.3516 -0.0807 -0.0028
27463W        W43724   9.861  15.777  11.844  0.0819  0.0010 -0.1127
27464W        W43725   8.599  15.532  13.842 -0.0257 -0.1330  0.1310
27465W        W43726   0.628   4.940   3.277  0.0286  0.0144 -0.0926
27466W        W43727  13.064  17.521  14.321  0.0303  0.2468 -0.1815
27467W        W43728   2.188   1.479  15.875 -0.2416  0.1268  0.0676
27468W        W43729   0.759   7.070   1.405 -0.0525  0.0916 -0.2224
27469W        W43730   7.355  12.556  16.514  0.0611 -0.0137  0.0062
27470W        W43731   0.497   7.823   4.626  0.2550  0.0589 -0.3329
27471W        W43732   5.656   9.962  15.379 -0.0079 -0.2051 -0.2311
27472W        W43733   9.434  17.082   3.620 -0.0799  0.1232 -0.1222
27473W        W43734  17.292   9.072  16.838 -0.0291 -0.1344  0.1609
27474W        W43735   5.825  15.717   3.892  0.0677  0.0787  0.0059
27475W        W43736   3.073   9.903   2.289  0.1397 -0.1897  0.2023
27476W        W43737  11.344   0.644  14.820  0.0533  0.1497 -0.1410
27477W        W43738   7.940   1.655   2.855  0.0755 -0.1420 -0.1651
27478W        W43739   8.154   8.425   0.870  0.2059 -0.0224  0.1870
27479W        W43740   4.968   4.299  14.642  0.2125  0.2031 -0.1982
27480W        W43741  15.031  13.320   0.292  0.0100  0.2548 -0.2133
27481W        W43742  11.353   0.258   0.898 -0.2230  0.1504  0.0563
27482W        W43743   8.747  13.020  16.863 -0.1912 -0.2294 -0.1674
27483W        W43744   0.569  15.538  15.832 -0.3137 -0.3073  0.1961
27484W        W43745  10.113   0.558   4.140  0.2192  0.1405 -0.0311
27485W        W43746   1.128  14.599  16.487 -0.0358 -0.0306  0.1174
27486W        W43747  14.152  17.271   3.577 -0.0054 -0.1525  0.1874
27487W        W43748   4.221  11.178  14.520  0.1624 -0.3896  0.0749
27488W        W43749   9.604  12.606  15.115 -0.0825 -0.2081 -0.0207
27489W        W43750   0.985  15.006  12.116  0.1454  0.0821 -0.1754
27490W        W43751  10.425   8.857   2.773 -0.1077  0.1968  0.0835
27491W        W43752   4.838   9.889   2.129  0.0372  0.0945  0.0887
27492W        W43753   5.551   7.162   5.311  0.1358  0.3650 -0.1477
27493W        W43754  13.960   0.876  16.912 -0.1519 -0.1010  0.0474
27494W        W43755   0.586   0.615  15.145  0.2940 -0.3117 -0.0130
27495W        W43756   7.387   1.937   1.966  0.3237  0.2452 -0.0449
27496W        W43757  12.707   3.641   3.285  0.0990 -0.1373  0.0917
27497W        W43758   1.835   7.186   1.915  0.2220  0.1300  0.2736
27498W        W43759   1.506  17.029   0.480  0.0653  0.0852  0.1322
27499W        W43760   0.659  15.125   3.919 -0.2455 -0.2073 -0.1082
27500W        W43761   0.993   0.842  12.444 -0.3325  0.1619 -0.0291
27501W        W43762  12.408  12.118  13.730 -0.0928  0.0973 -0.3145
27502W        W43763   9.646   8.066  15.001  0.0447 -0.3037  0.2129
27503W        W43764   1.057   1.183   5.691 -0.1269  0.0217 -0.0661
27504W        W43765  13.283  13.451   5.874 -0.2101 -0.0272  0.3554
27505W        W43766  16.803  10.099   3.483  0.1199 -0.1472 -0.4782
27506W        W43767  14.961   5.437  11.137 -0.1288 -0.2267  0.1057
27507W        W43768   0.317   4.599  13.581 -0.2153 -0.2813 -0.3170
27508W        W43769   1.161   9.028  14.514  0.2973 -0.4084 -0.0640
27509W        W43770   1.847   9.026  15.763  0.2622  0.2498 -0.0189
27510W        W43771  17.250  14.988  15.869 -0.1010  0.1510  0.0245
27511W        W43772  17.766  14.888  15.818  0.0233 -0.0607  0.1060
27512W        W43773  15.171  16.308   4.609 -0.1257 -0.2618  0.0490
27513W        W43774   4.776  15.263   2.264  0.0855 -0.0067 -0.1891
27514W        W43775  13.484   1.716   1.198 -0.0492 -0.1373  0.1376
27515W        W43776  14.553   6.555  13.231  0.0893 -0.1804  0.0003
27516W        W43777   0.005  17.798   6.519  0.0837 -0.2325 -0.1356
27517W        W43778   2.159   5.980  14.194 -0.1025  0.0581 -0.0925
27518W        W43779   0.534   9.543   4.199 -0.0509 -0.1100  0.0651
27519W        W43780   5.778   4.743   0.949 -0.0878 -0.0800  0.2827
27520W        W43781   7.303   0.671  16.644 -0.1564  0.1504  0.0605
27521W        W43782  17.111   6.264   0.666  0.0429  0.0073 -0.2338
27522W        W43783  15.594  15.757   2.567 -0.2447 -0.0742 -0.0321
27523W        W43784  15.506   4.225   0.527  0.1980  0.1643 -0.1017
27524W        W43785   4.136  17.408  16.406  0.1555 -0.1246 -0.2139
27525W        W43786   1.737  11.869   3.369 -0.1603  0.0024 -0.0009
27526W        W43787   2.431   5.582  12.705  0.0968  0.1523 -0.0689
27527W        W43788   8.835  12.094   1.566 -0.0452  0.0197  0.2033
27528W        W43789  10.984  15.112  16.111  0.0827 -0.0451  0.0187
27529W        W43790   8.298   5.740   2.854 -0.0981  0.1726  0.1274
27530W        W43791  10.459   3.013   0.236  0.0669 -0.1744  0.2057
27531W        W43792  10.139   0.480   5.260 -0.0411 -0.0949 -0.5143
27532W        W43793  16.694  16.725  15.230  0.2546 -0.0590  0.1195
27533W        W43794   4.133   3.640   3.157 -0.0006 -0.1639  0.1489
27534W        W43795   0.991  11.437   3.324 -0.2005  0.0996 -0.1795
27535W        W43796  13.686  15.742   4.904 -0.0710 -0.2518  0.0176
27536W        W43797  15.754  12.786   1.001  0.2119 -0.3883 -0.0235
27537W        W43798   8.984  14.730   3.597  0.1437  0.0706 -0.1575
27538W        W43799   2.810   9.266   4.170  0.0539  0.3360  0.2476
27539W        W43800  14.158  16.195  16.144 -0.1342  0.3925 -0.0920
27540W        W43801   1.060  15.685  14.972  0.1231 -0.0358 -0.0497
27541W        W43802  11.278   3.707   2.383 -0.0971 -0.2259 -0.0715
27542W        W43803  11.408  14.794  15.869  0.2791  0.0892 -0.0000
27543W        W43804   4.789  10.348   4.671  0.0547  0.0843  0.0678
27544W        W43805   4.430   0.598   1.184 -0.1603  0.1890 -0.1515
27545W        W43806  13.765  16.246  13.776  0.2741  0.2022  0.1584
27546W        W43807   9.145  17.096   5.397  0.1040 -0.1410 -0.0990
27547W        W43808  13.947   2.166   1.365  0.3850 -0.0866  0.0654
27548W        W43809   0.493  17.207   2.866  0.0006 -0.2682 -0.0757
27549W        W43810  11.234   2.249   0.234 -0.0870  0.1059  0.2667
27550W        W43811  16.153   3.031   4.480 -0.1201 -0.0471 -0.1194
27551W        W43812   5.953  10.982  12.803 -0.3619 -0.0132 -0.1867
27552W        W43813   2.463  16.602   1.426  0.1957  0.0911 -0.0176
27553W        W43814   7.053   0.060  14.715  0.2582 -0.1219 -0.1226
27554W        W43815   8.050  16.741   2.017  0.0444  0.0584 -0.3531
27555W        W43816   2.540   8.709  16.381 -0.1800  0.2518  0.0214
27556W        W43817  14.437  15.754   0.952 -0.2317  0.3225 -0.0252
27557W        W43818   1.335   9.611  14.179 -0.2037  0.4258 -0.0959
27558W        W43819  11.044   6.932  15.147 -0.0432  0.0132 -0.1192
27559W        W43820   2.840  10.166  16.927 -0.3263 -0.1814 -0.4957
27560W        W43821   0.382   1.817  12.856  0.1115 -0.0201 -0.2258
27561W        W43822  16.182  14.984  12.518  0.0551 -0.1422 -0.3921
27562W        W43823  10.266  13.002  14.716  0.0093 -0.0665  0.1659
27563W        W43824   6.635   1.606  15.070  0.0792  0.0017  0.0036
27564W        W43825   3.219  13.093   1.015 -0.1413 -0.0673  0.1036
27565W        W43826   3.655   4.726   3.469 -0.0908 -0.2044  0.2307
27566W        W43827   0.884   7.055   2.364 -0.1167 -0.0745  0.0439
27567W        W43828   4.708   7.646  12.021  0.0951  0.0925  0.1964
27568W        W43829   1.805  12.798  16.709 -0.0345  0.3013 -0.1218
27569W        W43830  15.603  13.689  16.564 -0.0392 -0.1401 -0.0514
27570W        W43831   1.382   3.098  14.122 -0.1339  0.2329 -0.2009
27571W        W43832  12.063  17.452   1.442  0.1261 -0.1005  0.1629
27572W        W43833  12.160  17.159   3.163 -0.0933 -0.2546 -0.0455
27573W        W43834  14.237  10.809   1.701 -0.1088 -0.1863  0.0612
27574W        W43835  14.991   2.422  16.953  0.2064  0.1341 -0.3549
27575W        W43836   0.501   0.593  13.066  0.1245 -0.0046  0.1654
27576W        W43837  12.260  17.636  12.219 -0.1015 -0.1520 -0.0365
27577W        W43838   1.696   8.841   1.213  0.0467 -0.3544 -0.3254
27578W        W43839  13.263   4.021  13.954 -0.1410 -0.0986  0.0564
27579W        W43840   8.383  17.342  15.515  0.2455  0.0906 -0.1629
27580W        W43841  11.051   9.753   4.248 -0.0908  0.2895 -0.0155
27581W        W43842   9.242  15.101   3.142 -0.0230 -0.2976  0.4433
27582W        W43843  14.021  12.358  13.795  0.0958  0.1682 -0.2080
27583W        W43844   6.699  13.090   2.746 -0.0038 -0.0961  0.0887
27584W        W43845   9.217  14.304   4.039  0.1035  0.5028 -0.0223
27585W        W43846   6.856   3.505  14.844 -0.0583 -0.0008  0.0279
27586W        W43847  12.186   9.164  12.063 -0.2241  0.0090 -0.0985
27587W        W43848  12.393   8.511  14.817 -0.0081  0.1784  0.0841
27588W        W43849   3.121   1.498  15.281  0.0448  0.0597  0.1017
27589W        W43850  17.179  11.603   2.239  0.1080 -0.2423 -0.1399
27590W        W43851   0.662   5.629   3.143 -0.0990  0.0569 -0.2115
27591W        W43852   8.373  16.662   3.028  0.1523 -0.0385 -0.2630
27592W        W43853   2.865   0.037   1.640 -0.2431 -0.0382 -0.0745
27593W        W43854   2.874   4.489  15.011 -0.2010  0.2388  0.0769
27594W        W43855  16.180  16.468  16.708 -0.0489 -0.0788 -0.1418
27595W        W43856   6.558  11.382   2.398  0.0253 -0.2477  0.0122
27596W        W43857   6.837   0.097  16.113  0.1652  0.0254 -0.0414
27597W        W43858   4.749  15.897   2.123 -0.0427 -0.0918  0.3731
27598W        W43859   7.611   5.811   5.311 -0.2728  0.0992 -0.0992
27599W        W43860  15.145   8.028  11.994 -0.0777 -0.2919 -0.0161
27600W        W43861   0.056   7.841  14.559  0.2056 -0.0392  0.1938
27601W        W43862   7.802   7.123   0.097  0.0883 -0.2212  0.2068
27602W        W43863  10.725  10.540   0.065 -0.1381 -0.0661 -0.0823
27603W        W43864   7.325   5.276  11.569 -0.0179 -0.3075 -0.2413
27604W        W43865   5.255  17.728  14.254 -0.1781 -0.2600  0.0918
27605W        W43866   2.758  17.627  11.977  0.0174 -0.4727 -0.1281
27606W        W43867   7.469   0.621   5.980  0.2104 -0.1091 -0.1087
27607W        W43868  11.912   8.228  13.402  0.2125  0.0461 -0.1377
27608W        W43869   8.683   8.630  11.676  0.1720  0.0113 -0.0545
27609W        W43870   0.205  11.591  14.062  0.1355 -0.2652  0.1070
27610W        W43871  12.702   9.718   1.917  0.0722  0.1622  0.0100
27611W        W43872   7.433   0.594   5.173 -0.0293  0.4867  0.0874
27612W        W43873   4.699  17.023  14.274  0.1532  0.0729 -0.3615
27613W        W43874  11.427  12.848   5.052  0.1273 -0.2044  0.1820
27614W        W43875   8.339  15.661   2.001 -0.0450 -0.1452 -0.0411
27615W        W43876   2.335   5.472  15.459  0.0411 -0.0669  0.0147
27616W        W43877   6.259  16.793   0.350 -0.1297  0.1029  0.4066
27617W        W43878  14.723   3.702   1.522  0.2951 -0.0408  0.3321
27618W        W43879  11.028   5.911  12.167  0.3393  0.3459 -0.0179
27619W        W43880   0.222  16.678   0.849 -0.1121 -0.2411  0.0504
27620W        W43881   8.293   9.053   4.333 -0.1741  0.0187  0.0759
27621W        W43882   6.588   6.980   6.048  0.1084 -0.0533  0.0883
27622W        W43883  13.707  17.194   3.356 -0.1102  0.1512 -0.0823
27623W        W43884   0.899   0.079   2.160  0.1351 -0.3418 -0.1617
27624W        W43885   8.853  10.591   1.075  0.2156 -0.2025 -0.1068
27625W        W43886   7.163  11.267  16.337  0.0903  0.1621  0.1055
27626W        W43887   4.028  17.549   1.522  0.0339  0.0454 -0.0277
27627W        W43888  10.183   9.791   1.659  0.0966  0.0416 -0.4665
27628W        W43889   9.589   2.515  12.919 -0.0854 -0.0270 -0.3333
27629W        W43890  16.089   7.070  13.262  0.0647 -0.2516 -0.1576
27630W        W43891  16.362  10.752   5.974  0.1820 -0.2002  0.2008
27631W        W43892  16.302  13.733  15.647  0.1171  0.1202  0.0154
27632W        W43893   0.491  14.120   4.927 -0.1454 -0.4869 -0.2505
27633W        W43894   5.336  16.574   2.736  0.0052  0.2341  0.1237
27634W        W43895  11.113  10.782   1.641  0.0563 -0.0829  0.0762
27635W        W43896   2.515   2.277   4.298 -0.1369  0.0423  0.0362
27636W        W43897  10.125   2.613   1.021  0.0196 -0.0301 -0.4092
27637W        W43898  17.550  11.528  15.824 -0.0801  0.0827 -0.2860
27638W        W43899  10.426  15.984  15.372 -0.1312  0.3449 -0.0603
27639W        W43900   5.445  13.024   4.647 -0.1834  0.1436 -0.0302
27640W        W43901   4.386   8.542   0.709 -0.1110 -0.2716 -0.1926
27641W        W43902  14.673  17.448   5.121 -0.0897 -0.1524 -0.1642
27642W        W43903  13.779   6.632  14.608 -0.0236 -0.1913  0.0421
27643W        W43904  14.055  12.299  12.885 -0.0714 -0.0680 -0.3913
27644W        W43905  10.849  16.891  14.136  0.0148  0.1473  0.4162
27645W        W43906   8.109   7.155  14.615 -0.2657  0.1009  0.2173
27646W        W43907  13.129   3.941  12.244  0.0378  0.1772  0.1249
27647W        W43908   5.837  10.208  13.015 -0.1554 -0.1962  0.1162
27648W        W43909   0.163   2.155   1.722  0.1207 -0.0807 -0.2045
27649W        W43910   4.896  10.284  14.369  0.0635 -0.0083 -0.1676
27650W        W43911   8.443  10.357   5.276 -0.0677 -0.1774 -0.0286
27651W        W43912   5.846   9.349   2.112 -0.1990  0.1477 -0.3831
27652W        W43913  16.474   4.054   1.479  0.0588  0.0257 -0.0581
27653W        W43914  10.798  10.483   1.284 -0.1120 -0.1659  0.1488
27654W        W43915   7.274   7.464   1.307 -0.1651 -0.0138  0.0010
27655W        W43916   9.852   6.242   2.513  0.0201  0.0664  0.0357
27656W        W43917  10.509   0.707  15.558  0.0265 -0.1298 -0.1126
27657W        W43918   4.792  12.385  13.296 -0.3817 -0.1228 -0.1327
27658W        W43919  11.176   1.857   2.139  0.1198 -0.0557 -0.1539
27659W        W43920   0.545  10.465  14.664  0.0046  0.0350 -0.1810
27660W        W43921   4.984  14.785  16.540 -0.0974  0.1900  0.1707
27661W        W43922   7.566   0.420   2.768  0.1763 -0.2231 -0.0416
27662W        W43923  13.148   9.410  13.139 -0.0784 -0.1385  0.0550
27663W        W43924  16.139   5.504  15.571 -0.0156 -0.0850  0.2003
27664W        W43925  12.619   1.038   3.966  0.1164 -0.0986  0.3436
27665W        W43926   2.734   8.873   0.449  0.0082 -0.0438 -0.0819
27666W        W43927  13.448  11.743  15.556  0.5101  0.1863  0.1040
27667W        W43928  11.913   2.958   3.374 -0.1109 -0.2942  0.2786
27668W        W43929   3.554  15.367  15.113 -0.0250 -0.0313  0.0253
27669W        W43930   2.346   9.454   1.139  0.2933  0.1094  0.0185
27670W        W43931   5.713   3.897  16.313 -0.1106  0.1016  0.3048
27671W        W43932   3.540  10.460  15.432 -0.1064  0.0266  0.3708
27672W        W43933   8.081   6.375   5.053 -0.1750  0.2376 -0.1121
27673W        W43934   1.825   4.407  16.530 -0.1119 -0.0240  0.0962
27674W        W43935   1.209   6.829  13.817 -0.1376 -0.0836 -0.1597
27675W        W43936   7.522  15.791   0.761  0.0949 -0.2173  0.1150
27676W        W43937   4.696  10.658  12.522 -0.1979  0.1376 -0.4240
27677W        W43938   0.637  15.648  13.858 -0.0162 -0.1094  0.0794
27678W        W43939   7.755   9.255   4.360 -0.0056  0.1157 -0.2550
27679W        W43940  15.946  15.759  12.120 -0.2944 -0.4043  0.1619
27680W        W43941  13.042   5.274  12.131 -0.2132 -0.1668 -0.0865
27681W        W43942  14.938   2.433   3.440 -0.5332 -0.1847 -0.0989
27682W        W43943  11.884   0.044  15.437  0.2227  0.0121 -0.4427
27683W        W43944   2.531   7.727   3.016 -0.0418 -0.1646 -0.1723
27684W        W43945   0.626   5.367  12.285 -0.0803 -0.0951  0.0404
27685W        W43946  13.008   1.093  16.609  0.0539 -0.1536  0.0583
27686W        W43947  12.110   7.452   6.075 -0.2719 -0.0831 -0.2405
27687W        W43948   3.622  14.264  14.417 -0.1290  0.1121 -0.2166
27688W        W43949  10.421   9.097  14.494 -0.2957 -0.1598 -0.1897
27689W        W43950   7.800   1.477  15.196 -0.0746  0.0411 -0.1181
27690W        W43951   5.226   7.594  12.710 -0.2076  0.2555  0.0449
27691W        W43952   9.187  11.387  11.455  0.5292  0.1792 -0.2244
27692W        W43953   6.774   8.410  13.492 -0.1916  0.1128  0.1725
27693W        W43954  13.014   2.155  16.390  0.3793  0.1575 -0.0497
27694W        W43955   8.920   9.417   0.759 -0.2080  0.3104  0.1103
27695W        W43956  11.808  11.855   5.412 -0.0479 -0.1680  0.0306
27696W        W43957   5.538  10.863  11.859  0.1228  0.0118 -0.0591
27697W        W43958  10.783  10.572  15.337  0.1309 -0.2102 -0.3597
27698W        W43959  10.124  14.057  12.538 -0.0365  0.0603  0.0085
27699W        W43960   8.825  10.772   4.264 -0.0474 -0.2535  0.0736
27700W        W43961  13.790   6.842   1.170 -0.1541 -0.0886 -0.0018
27701W        W43962  16.841   4.568  16.660  0.0884  0.0015  0.2176
27702W        W43963  12.558   2.245   4.108 -0.2973 -0.1807 -0.1715
27703W        W43964   6.269   7.198  11.970 -0.1542 -0.1810 -0.0831
27704W        W43965  13.761   2.084   2.196  0.2642  0.0309 -0.1048
27705W        W43966  10.980  16.010  14.606  0.3513 -0.1093  0.0231
27706W        W43967   0.385   2.957  14.222 -0.0935  0.0681 -0.0404
27707W        W43968  14.835  14.183   3.128  0.3761 -0.0293 -0.0972
27708W        W43969  14.322   2.494  16.365 -0.1977  0.1627 -0.0379
27709W        W43970  13.443   9.857  16.910 -0.2902 -0.1006 -0.0755
27710W        W43971   1.146  17.447  13.773 -0.1032  0.0507 -0.1555
27711W        W43972   8.440   5.402  13.173  0.0545  0.5160 -0.0035
27712W        W43973  10.641  16.195   0.356 -0.2266 -0.3222 -0.2631
27713W        W43974   9.519   4.676   1.361  0.1364 -0.1421  0.1380
27714W        W43975  11.545  16.009  11.885  0.1193  0.3285 -0.0806
27715W        W43976   4.327  15.494  15.013  0.3904 -0.1646  0.3295
27716W        W43977   5.901  14.284   4.613  0.0159 -0.0448 -0.3517
27717W        W43978  10.248   6.842  11.905  0.1810  0.3493  0.2932
27718W        W43979  15.076  11.702   1.243 -0.1085 -0.1468  0.0975
27719W        W43980   8.729  16.346   4.991  0.1469  0.0533 -0.3037
27720W        W43981   4.754   0.075  15.450 -0.2140 -0.1716  0.0868
27721W        W43982  13.208   6.756  14.587 -0.0046  0.3301  0.2473
27722W        W43983  15.750  17.120  15.543 -0.4156 -0.1275  0.5069
27723W        W43984   5.942  15.282   4.787 -0.1229  0.2650  0.0817
27724W        W43985  12.020   3.468  13.895  0.2376 -0.0734  0.1503
27725W        W43986   2.515   5.204   2.942 -0.0326  0.4688  0.2264
27726W        W43987   3.862   7.663  15.887  0.1263 -0.3009 -0.2468
27727W        W43988   0.460   8.390  11.487 -0.3974  0.0212 -0.0365
27728W        W43989  15.618   1.906  15.104 -0.0785  0.1634  0.1240
27729W        W43990   6.986   4.203   1.359 -0.3630 -0.0833 -0.1060
27730W        W43991   2.111   2.123  13.344  0.0531  0.0660 -0.3070
27731W        W43992   0.599  17.638  12.996 -0.0426  0.3443 -0.3172
27732W        W43993   0.332  11.859  15.368 -0.1225 -0.2579  0.0970
27733W        W43994   9.546  16.889   2.415 -0.0116  0.0734  0.3097
27734W        W43995   7.845   1.967  12.836 -0.0082  0.0377  0.0988
27735W        W43996   4.692  15.886  14.885 -0.0318 -0.0538 -0.2925
27736W        W43997  11.903  13.443   3.805  0.0862 -0.0516 -0.1529
27737W        W43998  12.886   2.136  15.302 -0.2287 -0.1268  0.1478
27738W        W43999   9.313  14.513   5.366  0.0325  0.0730 -0.3968
27739W        W44000  11.002   1.873  13.055  0.3738  0.2067 -0.2109
27740W        W44001  15.732   5.235   2.772 -0.1366 -0.2629  0.1581
27741W        W44002  13.746   9.987  11.737  0.0383  0.1790 -0.0234
27742W        W44003  16.233   8.438  13.573 -0.3187 -0.0455 -0.3241
27743W        W44004   7.569   9.105  13.611  0.1141 -0.0359  0.0839
27744W        W44005   9.605   1.592  15.227 -0.0193  0.1765 -0.0655
27745W        W44006  17.588   3.666  15.627  0.1219 -0.1797 -0.2069
27746W        W44007   6.022   8.143   1.235 -0.2383  0.2261 -0.1239
27747W        W44008   1.004   3.984   4.744  0.2854 -0.0515 -0.2104
27748W        W44009   1.530   2.280   2.464 -0.1889 -0.1904 -0.1198
27749W        W44010   2.632   6.555   5.665  0.1035 -0.0240 -0.0026
27750W        W44011   3.613  16.974  16.196 -0.2619  0.1487  0.1614
27751W        W44012  10.193  16.905   0.270 -0.1636 -0.4266 -0.0056
27752W        W44013  12.100  17.427   1.934  0.0230  0.0898  0.1637
27753W        W44014   8.857   7.341   4.392  0.0763 -0.3941 -0.0139
27754W        W44015   3.967   6.006  15.432 -0.0072  0.2697  0.0914
27755W        W44016  14.200  10.350   4.391  0.1068 -0.1709 -0.1330
27756W        W44017  16.913   2.519  12.494 -0.2575 -0.0383  0.1162
27757W        W44018   3.524  14.803   2.768  0.2310  0.4945 -0.0490
27758W        W44019   5.828  15.652   1.440  0.0895  0.1009 -0.1719
27759W        W44020  12.235   5.303  12.337  0.1009  0.1598 -0.1422
27760W        W44021   5.523   5.426   0.231  0.0464 -0.0626 -0.0329
27761W        W44022   9.864   2.239   5.593 -0.2033 -0.2693  0.2549
27762W        W44023  12.083   7.795  11.860  0.0562 -0.1639  0.0803
27763W        W44024   5.335   4.193   5.553  0.0052  0.0480  0.1925
27764W        W44025   4.516   5.310   0.983  0.1805  0.0354 -0.1358
27765W        W44026   1.087  17.695  16.790  0.0196 -0.0130  0.0926
27766W        W44027   3.086  16.307  11.545  0.1003  0.2274  0.3688
27767W        W44028  10.764  17.436  11.495 -0.2769  0.2854 -0.0146
27768W        W44029   6.646  12.323   1.112 -0.2193  0.1298 -0.1069
27769W        W44030   0.625  17.287   0.607  0.0247  0.1116 -0.0630
27770W        W44031  16.220   8.118  12.835 -0.2905 -0.0833  0.0885
27771W        W44032  11.284  15.235  14.305  0.2015  0.2844 -0.1992
27772W        W44033   1.363  10.813  16.839 -0.1353  0.1250  0.0869
27773W        W44034   5.719  11.693   2.901 -0.0255 -0.2545  0.0718
27774W        W44035   3.492   7.191   4.901 -0.1085 -0.2705  0.1407
27775W        W44036  12.125   3.973  13.109  0.2643  0.2758  0.1929
27776W        W44037   1.841   0.790   2.504  0.1685  0.0077  0.1134
27777W        W44038   5.932   8.572   1.507  0.1122 -0.1330 -0.0838
27778W        W44039   9.192  11.847  16.213 -0.0974 -0.1429 -0.1280
27779W        W44040   3.589  10.467  14.426  0.0109  0.2548 -0.2429
27780W        W44041  11.192  10.384  15.072  0.0196  0.0253  0.0012
27781W        W44042   7.727   5.780   4.799 -0.2723  0.2176  0.0293
27782W        W44043  17.349   0.341   3.499  0.1116  0.0068  0.0369
27783W        W44044   6.159  14.773   2.398  0.0616 -0.3105  0.1755
27784W        W44045   2.328   9.602  11.655 -0.0097  0.1296  0.0627
27785W        W44046   6.653  15.252   3.690 -0.2326 -0.1111  0.4561
27786W        W44047  13.548   6.014  12.455  0.1594  0.0219  0.0555
27787W        W44048   4.746   4.646  13.300 -0.1904  0.1731  0.1079
27788W        W44049  13.665  16.271   3.643  0.2075 -0.3147  0.1926
27789W        W44050  10.550  13.801  13.431  0.0857 -0.1000  0.3155
27790W        W44051   5.621   4.241  11.905 -0.1031  0.2218  0.0170
27791W        W44052  13.317  15.857  12.267  0.0584  0.0196 -0.0776
27792W        W44053   7.642   6.062  14.957 -0.3019 -0.1953 -0.0130
27793W        W44054  11.408  10.162   2.706 -0.4008 -0.0542  0.1049
27794W        W44055   2.441  13.329   0.794  0.1258 -0.0477 -0.0721
27795W        W44056   5.767   6.604  12.776 -0.1956  0.1403  0.0061
27796W        W44057   4.401  16.480  16.609  0.0840  0.1951 -0.2668
27797W        W44058   0.408  16.234   0.695  0.0856 -0.0224 -0.1262
27798W        W44059   2.767   6.552   1.965 -0.1010 -0.2298 -0.2594
27799W        W44060   6.168   2.396   1.134  0.0977  0.1625  0.0985
27800W        W44061   9.250  10.532   4.306  0.0286  0.1592  0.1534
27801W        W44062  15.190   3.448   0.769 -0.0486 -0.0811 -0.4593
27802W        W44063   0.896  13.716  16.481  0.0083  0.1484 -0.0193
27803W        W44064   4.088  13.721   3.496  0.0343  0.0134 -0.0092
27804W        W44065  17.118   9.400   3.605 -0.1203 -0.1609 -0.2565
27805W        W44066   7.119   9.957  11.772  0.2586  0.1967  0.2678
27806W        W44067  13.328  15.328  16.012 -0.1677  0.0034 -0.1491
27807W        W44068   1.909   7.709  14.755  0.2226  0.1374  0.0505
27808W        W44069  16.581   6.611   3.557  0.0716 -0.2147  0.1274
27809W        W44070  12.170   8.189   2.296 -0.1300 -0.0377 -0.1129
27810W        W44071  17.303   7.853   1.699 -0.1474 -0.0371 -0.1349
27811W        W44072  14.288   9.511  14.291  0.2273 -0.0811 -0.3712
27812W        W44073   3.073   5.400  13.283  0.3519 -0.0320 -0.1848
27813W        W44074  11.277  17.464  11.542 -0.1340  0.2174  0.0336
27814W        W44075  14.045   1.691  12.382 -0.0069 -0.2004 -0.1760
27815W        W44076  10.107   4.943  16.722  0.0218 -0.3313  0.1324
27816W        W44077  14.245  17.081   4.016 -0.1515 -0.0250 -0.1650
27817W        W44078   6.295   4.173   0.338  0.0166 -0.2429 -0.0127
27818W        W44079  15.680  13.876   5.043 -0.0076 -0.1913 -0.2360
27819W        W44080  17.673  16.896   3.315 -0.1147  0.0491 -0.0022
27820W        W44081  10.555   2.913   6.245  0.1996 -0.1599 -0.0735
27821W        W44082  16.621   6.804   1.256 -0.2664  0.0304  0.2737
27822W        W44083   7.105   1.884   3.957  0.0714  0.0744  0.3613
27823W        W44084   5.587   5.326  14.849  0.0226  0.1174 -0.1468
27824W        W44085  12.296   4.779   2.986 -0.4353  0.4488 -0.2903
27825W        W44086  14.408  14.303  14.538 -0.2479  0.1150 -0.2517
27826W        W44087   6.372   5.280   1.244 -0.2866  0.1328  0.1422
27827W        W44088   2.792  12.773   0.068 -0.0122  0.0159 -0.1124
27828W        W44089   7.951  11.355  12.774  0.0820 -0.0624 -0.1750
27829W        W44090  14.772   0.418   6.268  0.0655 -0.0524 -0.2191
27830W        W44091  17.661  16.541   2.474 -0.1130 -0.2772  0.0767
27831W        W44092  10.631  12.610   2.863  0.1683 -0.0714  0.1113
27832W        W44093  13.004  15.011  15.079 -0.1509 -0.2882 -0.2550
27833W        W44094  11.853   8.106   4.998 -0.0053  0.1245  0.1875
27834W        W44095  16.578  14.545  13.637 -0.0139 -0.1342 -0.0896
27835W        W44096  16.848  16.765  15.737 -0.1025  0.0242 -0.3247
27836W        W44097  13.810   5.953   3.017  0.3439  0.3734  0.0219
27837W        W44098  13.940   0.924   1.888 -0.3180  0.0343  0.0191
27838W        W44099  16.637   4.224   2.882  0.1444  0.1516  0.1124
27839W        W44100  13.374   6.940  15.064 -0.4439  0.1861  0.1452
27840W        W44101   1.769  12.279  16.061  0.0054 -0.1225  0.0295
27841W        W44102  12.257   1.907   1.690  0.1374 -0.0164  0.1381
27842W        W44103  11.975  10.064  14.723  0.0442  0.2302 -0.0166
27843W        W44104   0.684  10.204  13.822  0.0946  0.3891  0.2600
27844W        W44105   5.997   3.739   0.223  0.0392  0.0204 -0.0371
27845W        W44106   1.320   5.346  14.367  0.1826 -0.0449  0.0157
27846W        W44107  14.371   5.538   3.989  0.2597 -0.0206 -0.1011
27847W        W44108   1.780  11.995   2.054 -0.0279 -0.0478 -0.0928
27848W        W44109   9.484  12.972   3.254  0.2049  0.1026 -0.3536
27849W        W44110  14.379  11.585  13.101  0.0194 -0.2499  0.0192
27850W        W44111   2.421   2.829   1.619 -0.0132  0.1680 -0.1458
27851W        W44112  10.197  17.406  11.574 -0.0057  0.1569 -0.3564
27852W        W44113  15.442  12.758   2.890  0.0554  0.0007 -0.0169
27853W        W44114   1.390   1.614  14.126  0.0044 -0.2334 -0.0813
27854W        W44115   5.772   9.926  16.154  0.2472  0.0265  0.1056
27855W        W44116   5.314   9.626   2.255  0.0726  0.2103  0.1780
27856W        W44117  10.227   5.379   5.860 -0.1126  0.0332  0.1282
27857W        W44118   4.834  14.329  15.552  0.2566  0.1659 -0.2897
27858W        W44119   7.876  16.735  11.746 -0.0148 -0.1113  0.1381
27859W        W44120  17.606  13.877   2.771 -0.0342 -0.0924 -0.0940
27860W        W44121  10.959   7.708  13.761  0.2225 -0.1725 -0.0719
27861W        W44122  10.148   0.989   1.817 -0.2383 -0.1145 -0.2611
27862W        W44123   0.978  17.417  11.899 -0.1018  0.2527 -0.0951
27863W        W44124   0.729   4.878  14.338  0.1777  0.0928  0.0446
27864W        W44125   0.863   7.319   4.642  0.0892  0.1213 -0.2763
27865W        W44126   3.193  15.754   3.565 -0.0405  0.0064  0.0438
27866W        W44127   2.391  12.673   3.074  0.2385  0.3040 -0.1090
27867W        W44128   3.131   8.452   4.687  0.1059 -0.2497  0.0548
27868W        W44129  17.558  14.314  13.412  0.0442  0.2361 -0.3023
27869W        W44130   9.439  15.738   3.256  0.1449  0.0658 -0.2940
27870W        W44131   9.074   0.980   1.481  0.1555 -0.2411 -0.4085
27871W        W44132   6.676  14.800  14.214  0.0184 -0.1780  0.1481
27872W        W44133   7.228   0.110  14.271 -0.1599  0.1101 -0.1179
27873W        W44134  16.653   9.862  14.202  0.0333  0.1473 -0.0242
27874W        W44135  13.324  12.718   2.673  0.0853 -0.3517  0.0914
27875W        W44136   4.837   7.834   1.983  0.0310 -0.0426  0.1598
27876W        W44137   1.805  17.419   0.618  0.2239 -0.1764  0.1758
27877W        W44138  11.664   7.330  16.680 -0.0338  0.0022  0.3059
27878W        W44139   1.157  16.643  13.407 -0.0691 -0.1658  0.1107
27879W        W44140   8.676   6.943   2.587 -0.0790 -0.2102  0.2330
27880W        W44141   3.965   7.872   5.168  0.0755 -0.0576  0.1026
27881W        W44142   7.852   7.379   4.429  0.3754 -0.0139  0.1581
27882W        W44143   9.315   9.204  15.644 -0.3169  0.3046 -0.1287
27883W        W44144   4.722   0.978  15.554  0.1315  0.0244  0.3237
27884W        W44145  13.278  16.094  13.834 -0.3638  0.0569 -0.1494
27885W        W44146   4.359   4.729  14.267 -0.0336 -0.0788  0.0321
27886W        W44147  12.407   1.090   5.337  0.0005  0.1843  0.3332
27887W        W44148   6.599  15.850  14.944 -0.1539 -0.0041 -0.2410
27888W        W44149  14.248  16.690   2.705  0.2031 -0.2259  0.0930
27889W        W44150   0.041   5.202   1.575  0.0465  0.0284 -0.1172
27890W        W44151   3.116   2.728  16.790  0.1697 -0.3906 -0.0528
27891W        W44152  15.586  14.262  16.486 -0.1057 -0.3928 -0.1853
27892W        W44153  10.740   4.152  12.432  0.0783 -0.1029  0.0332
27893W        W44154   6.657  16.985  13.555  0.1425  0.2637  0.0955
27894W        W44155  13.207  14.429   5.970  0.1031  0.1454  0.0458
27895W        W44156   3.804  14.565   5.108  0.1607  0.1538  0.0313
27896W        W44157  13.110   5.566   0.003  0.0628  0.1778 -0.2271
27897W        W44158   0.181   7.133   5.557 -0.0581  0.0372 -0.0108
27898W        W44159   4.608  13.957   2.829  0.1673  0.1568  0.1578
27899W        W44160  10.579  15.106  16.411 -0.1971 -0.0966 -0.2691
27900W        W44161  12.419  14.462  13.757  0.0276 -0.0019  0.1285
27901W        W44162  10.864  13.116   0.981 -0.0643  0.1449 -0.0751
27902W        W44163   4.862  10.423   1.818 -0.1949 -0.1709  0.0782
27903W        W44164  15.017   3.619   5.516 -0.2099 -0.0663  0.1463
27904W        W44165   6.990  10.303   3.511  0.0261 -0.0514 -0.2037
27905W        W44166   7.455  17.576  14.541 -0.0415  0.0439  0.2264
27906W        W44167  15.605  13.420   3.639  0.2596  0.1417 -0.1096
27907W        W44168  14.031   5.650  14.059  0.1469  0.0177  0.1798
27908W        W44169   5.742  10.344   0.050 -0.0746  0.1197 -0.0228
27909W        W44170   9.492  12.880   1.650 -0.1390  0.0180  0.0221
27910W        W44171  15.922  15.155  12.934 -0.0652  0.1678  0.1282
27911W        W44172   8.550  15.070   3.862  0.0546  0.1550 -0.2830
27912W        W44173   3.024   3.237  16.839 -0.1356  0.0729  0.0585
27913W        W44174  12.316  12.912   3.264  0.1506 -0.2180  0.2306
27914W        W44175   9.965  15.493  10.456 -0.1701 -0.0115 -0.0803
27915W        W44176  11.189  17.664  14.968  0.2460  0.0833 -0.2482
27916W        W44177  12.861  16.153  14.150  0.0545  0.0365 -0.1550
27917W        W44178   4.201  16.320   4.354 -0.0346 -0.0610 -0.1457
27918W        W44179   7.527  13.326   1.682 -0.2131 -0.1961 -0.1046
27919W        W44180   7.827  16.864  12.685  0.1966 -0.0154  0.0855
27920W        W44181  15.645   8.114  14.430 -0.0101 -0.3052  0.0693
27921W        W44182   1.666  15.221  10.909 -0.0569  0.2001  0.4017
27922W        W44183  13.675  14.391   0.395  0.0288 -0.1463 -0.3146
27923W        W44184  14.498   4.234  13.848 -0.3754  0.3142 -0.1480
27924W        W44185   5.923   0.994  14.582  0.0042  0.0452 -0.2929
27925W        W44186   1.537   7.555   3.861  0.0068  0.0574  0.0985
27926W        W44187   0.252  16.751   3.019 -0.3354  0.0115  0.0521
27927W        W44188   1.111   0.907  16.967 -0.1387  0.1993 -0.1215
27928W        W44189   5.956   8.050  12.988  0.1377 -0.2627 -0.1137
27929W        W44190  15.418  16.497  15.111 -0.0209 -0.1153 -0.3731
27930W        W44191   1.828  15.880  11.537  0.0119  0.2037 -0.0416
27931W        W44192   6.837   8.075   1.529  0.0447 -0.3999 -0.1650
27932W        W44193   1.674   7.249   3.540  0.1903 -0.0458  0.0329
27933W        W44194  15.329  14.498   4.627  0.0020  0.1268 -0.0510
27934W        W44195   0.645  11.055  16.239  0.2696  0.2084 -0.3513
27935W        W44196  11.831   1.712  16.569  0.1513  0.0467  0.0342
27936W        W44197  13.996   8.775  14.321  0.0779  0.0622 -0.3057
27937W        W44198   2.230   0.261  13.319 -0.1912 -0.1751  0.1273
27938W        W44199  13.438   2.930  16.468  0.3929  0.2943  0.1168
27939W        W44200  16.425   3.928   4.061  0.0781  0.2212 -0.3789
27940W        W44201  17.367  12.640   0.454  0.1247 -0.1569  0.0059
27941W        W44202   9.485  14.664  16.194 -0.1037 -0.2659 -0.0923
27942W        W44203   5.802  15.057  15.493  0.3941  0.0633  0.1667
27943W        W44204  10.229   5.459   4.278 -0.2854  0.3363  0.1063
27944W        W44205  17.683  11.812   2.306  0.1458  0.0753 -0.0561
27945W        W44206   1.329   7.620  11.540  0.1337 -0.0108 -0.0341
27946W        W44207   6.895   1.099  16.647 -0.0683  0.0301 -0.0850
27947W        W44208  15.634  11.361   5.720 -0.1850  0.0337 -0.0201
27948W        W44209  12.010   4.823  16.268  0.0205 -0.1976 -0.0036
27949W        W44210  14.321   2.263   5.540 -0.2189  0.1381 -0.0967
27950W        W44211   4.340  11.544  15.514  0.1799  0.0449 -0.0055
27951W        W44212   5.159   1.423   4.840  0.0619  0.1409 -0.0456
27952W        W44213   9.176   1.825   1.193  0.0020  0.1413  0.0486
27953W        W44214  15.013   3.238  16.735 -0.1949  0.1286 -0.0246
27954W        W44215   8.664  12.710   2.199  0.0576  0.0007 -0.1904
27955W        W44216   8.861   0.249  12.892  0.0250  0.1582  0.0123
27956W        W44217  12.347  11.250   2.332  0.0136  0.0694  0.3242
27957W        W44218  10.695  17.376  14.217  0.1200  0.0154  0.0090
27958W        W44219  14.565  16.443  16.174  0.3293  0.2227 -0.2014
27959W        W44220   5.115   2.899  15.023  0.0443  0.0779  0.1989
27960W        W44221  11.420   6.066  13.101  0.1878 -0.0694  0.2285
27961W        W44222   2.032  15.599   4.355 -0.2174  0.1191 -0.3485
27962W        W44223  14.347   7.566   2.155 -0.2160 -0.2822  0.1843
27963W        W44224   8.465  10.469   6.173  0.0957 -0.1771 -0.0196
27964W        W44225   7.403   1.024   2.766  0.1009 -0.1471 -0.2706
27965W        W44226   5.634   3.956   1.857  0.0982  0.0897 -0.0265
27966W        W44227  14.304   8.228   4.145  0.0181 -0.1764 -0.0773
27967W        W44228   7.346   6.158   1.527 -0.0467 -0.0974  0.1882
27968W        W44229  14.522   1.091   0.710 -0.1930 -0.0856  0.0252
27969W        W44230   8.063   1.646   5.202 -0.1506 -0.0257 -0.0352
27970W        W44231   9.730  13.998   1.387  0.1634 -0.0237 -0.0335
27971W        W44232   3.993  16.024  15.497  0.1166  0.3876  0.3234
27972W        W44233   8.734  15.872   4.847  0.0595 -0.0564  0.1502
27973W        W44234   4.248  12.456  14.068 -0.0447  0.0702  0.1004
27974W        W44235  13.013   2.937   5.830 -0.0331 -0.2268 -0.1749
27975W        W44236   8.429  17.054  16.807  0.0358  0.1090  0.2067
27976W        W44237   9.497   6.887   0.097 -0.1288 -0.0633  0.0423
27977W        W44238   6.901  12.242  14.484  0.2603 -0.0483 -0.1243
27978W        W44239  12.398   0.376  13.456 -0.0706 -0.0129 -0.0136
27979W        W44240  16.241   6.133   0.302 -0.4314 -0.0921  0.3102
27980W        W44241  15.093   1.006   4.431  0.0609 -0.0779  0.0309
27981W        W44242  14.128   4.414  16.401  0.0963  0.0452  0.2752
27982W        W44243   4.171   9.019   3.946 -0.1921 -0.1486  0.0190
27983W        W44244  17.071   8.342  12.952 -0.0730  0.0653 -0.0376
27984W        W44245  14.246   4.082  15.605 -0.0378 -0.0082 -0.3803
27985W        W44246   3.436   0.450   1.273 -0.0813 -0.2706 -0.1643
27986W        W44247   1.814  13.446  12.535 -0.0412 -0.2182 -0.1347
27987W        W44248   1.923   8.437  15.895 -0.1246 -0.1869  0.0461
27988W        W44249  13.546  17.431   0.363 -0.0262  0.0463 -0.1599
27989W        W44250  10.523  14.771  13.151  0.3310  0.4354 -0.2443
27990W        W44251  11.546   4.567  11.964  0.1498  0.2436 -0.0144
27991W        W44252   4.368  14.159   3.787  0.4732 -0.3545  0.0246
27992W        W44253   4.178  15.273   6.247  0.0209 -0.1116  0.3364
27993W        W44254  11.657  12.778  14.607  0.2154  0.0848 -0.3743
27994W        W44255  16.121   5.018  13.971  0.5424  0.0439  0.2037
27995W        W44256   5.919  15.338   0.195  0.0735 -0.0122  0.1204
27996W        W44257   0.031   8.459   2.836 -0.0760  0.1560  0.0112
27997W        W44258  15.854   3.784  14.789  0.1020 -0.2172  0.0535
27998W        W44259  12.741  12.248   3.819  0.1033 -0.1253  0.2347
27999W        W44260   6.825   0.333  13.867  0.0755 -0.1747  0.0121
28000W        W44261  13.939   0.714   5.952 -0.0616 -0.1846  0.1383
28001W        W44262  10.814   1.354  11.936 -0.0245 -0.0486 -0.0947
28002W        W44263  11.211   6.951  14.174 -0.0309 -0.0605 -0.0598
28003W        W44264   7.173   8.360  16.654 -0.0325  0.2159 -0.1406
28004W        W44265   9.732  15.690  12.678 -0.1740 -0.0108  0.1175
28005W        W44266  17.642   4.545   1.147 -0.1299 -0.0454  0.0718
28006W        W44267   1.216   4.653  14.574  0.0583  0.1644  0.0853
28007W        W44268  14.738   0.881   2.582  0.2855 -0.3102 -0.2024
28008W        W44269   3.085   5.087  15.067 -0.1880  0.3028 -0.0737
28009W        W44270   0.524  15.875  16.209  0.0747  0.3866 -0.0739
28010W        W44271   2.157  12.672   3.648 -0.2142  0.1573 -0.2146
28011W        W44272   3.670  13.340  12.377 -0.3575 -0.0867 -0.1004
28012W        W44273   0.900   0.496  16.520  0.3516 -0.0546  0.2433
28013W        W44274  14.899   3.248  14.199  0.1787 -0.2156  0.1765
28014W        W44275  10.321   7.900  12.870 -0.1278 -0.0543 -0.0386
28015W        W44276   8.001   1.961   4.377  0.3322  0.2398  0.1818
28016W        W44277   3.097  12.196   5.035 -0.1619  0.0128 -0.2946
28017W        W44278   5.464   5.095   1.054  0.0810  0.2670  0.0127
28018W        W44279  16.171   9.598   0.445  0.3600 -0.1851  0.2088
28019W        W44280  10.784   8.423   5.333  0.1832  0.1826 -0.0407
28020W        W44281   3.759  11.529   3.758  0.2024 -0.2554  0.1060
28021W        W44282   5.117  17.829  13.389  0.0770 -0.1830 -0.0063
28022W        W44283  17.066  10.801  13.106  0.2238 -0.0451 -0.3362
28023W        W44284   3.660  12.786   0.906  0.1692  0.3394  0.3509
28024W        W44285   2.295   1.049  11.200 -0.0785  0.1720 -0.1858
28025W        W44286   3.765  13.247   4.025 -0.2965 -0.0324  0.2540
28026W        W44287  14.640   2.069  15.750 -0.2318  0.1495  0.1476
28027W        W44288   1.592   7.200  15.359 -0.1061 -0.1980  0.0760
28028W        W44289  13.054   9.475   6.248 -0.1399  0.1337 -0.2486
28029W        W44290  13.513   1.827  12.172 -0.0770  0.1703 -0.1030
28030W        W44291   2.969   8.688  14.845  0.4681  0.0864 -0.0037
28031W        W44292  10.516  13.031   3.296 -0.0675  0.0939  0.1508
28032W        W44293   3.915  15.421   2.582  0.1701  0.0424  0.0962
28033W        W44294   6.292   7.268  16.687  0.1625 -0.1621 -0.5574
28034W        W44295  13.749  10.285  14.226  0.0262 -0.2106 -0.1231
28035W        W44296   9.277  11.113  12.942 -0.1183 -0.1322  0.1093
28036W        W44297   1.449   6.385   5.080  0.1272 -0.0138  0.1328
28037W        W44298   8.588   7.587   5.586 -0.0730  0.0024  0.2018
28038W        W44299   0.334  14.431   3.571  0.0577 -0.1071 -0.2080
28039W        W44300   9.667   2.065  15.525  0.2042  0.0896 -0.0943
28040W        W44301   3.389   0.780  13.753  0.0845  0.0474 -0.0704
28041W        W44302  11.345   7.983   1.722 -0.2357 -0.4005 -0.0954
28042W        W44303   4.313  13.814   2.492 -0.0037  0.0791  0.1053
28043W        W44304   9.966   6.905  14.412 -0.1363  0.1216 -0.0157
28044W        W44305   1.509   4.570   5.097  0.1884 -0.1250  0.2505
28045W        W44306  16.516  11.168   1.320 -0.2109 -0.0598  0.2078
28046W        W44307   6.264   8.302  13.722 -0.0743 -0.2695 -0.2028
28047W        W44308   4.338  10.435   1.607  0.0512  0.0071 -0.0554
28048W        W44309  11.162   7.024  16.338 -0.0117 -0.4051  0.0191
28049W        W44310  10.217   6.810  16.909 -0.0567 -0.1996  0.3816
28050W        W44311  17.231  17.766   3.329  0.1195 -0.0634  0.2229
28051W        W44312  17.211   7.844   0.868  0.0410 -0.0585 -0.3367
28052W        W44313  15.653  16.923  15.093 -0.0908  0.2372 -0.0245
28053W        W44314  16.516  15.450   5.406 -0.2342  0.0766  0.1050
28054W        W44315   9.585   8.134  11.624 -0.5933  0.1449 -0.0455
28055W        W44316   3.306  10.013   2.707 -0.3006 -0.2083  0.1856
28056W        W44317  15.152  15.993   2.599  0.0825 -0.1653  0.0060
28057W        W44318  12.468   7.662  11.526  0.1799 -0.2616 -0.0332
28058W        W44319  10.299   4.275  14.206 -0.1905  0.1178 -0.0190
28059W        W44320   1.210   2.964  13.690  0.0759 -0.0250  0.0572
28060W        W44321  14.934  11.580  16.955  0.1862 -0.1510  0.0586
28061W        W44322   7.098  14.450   0.873 -0.1762 -0.1638  0.0055
28062W        W44323  14.714   0.300  15.943  0.0037 -0.2332 -0.0730
28063W        W44324  14.859  16.860  12.956  0.1493  0.0832 -0.2152
28064W        W44325  12.846   3.338   0.322  0.0314 -0.1604  0.1478
28065W        W44326  15.808   9.019   4.024  0.0233  0.1508  0.1730
28066W        W44327  12.394   6.817  16.869 -0.0144 -0.1541 -0.0111
28067W        W44328  12.186  15.966   2.329 -0.1336 -0.1891 -0.0441
28068W        W44329   3.028  13.856  15.836  0.1180 -0.2112 -0.1461
28069W        W44330   9.213   5.131  15.830  0.0512  0.0690  0.2914
28070W        W44331  10.034   5.100  14.510 -0.0417 -0.1435 -0.0949
28071W        W44332  15.232   5.831  15.953  0.0847 -0.0868 -0.1154
28072W        W44333  17.018  13.887   0.745  0.2970 -0.2599  0.0959
28073W        W44334  11.415   3.935  14.213  0.3415  0.0901 -0.0143
28074W        W44335   8.503   1.426  12.371 -0.1221  0.1153 -0.1626
28075W        W44336   3.664  11.927  12.730  0.0962  0.2106  0.2727
28076W        W44337   3.533  12.050  11.791  0.1051 -0.5764 -0.0489
28077W        W44338   5.283  15.718   5.263 -0.1477 -0.5840 -0.2660
28078W        W44339   2.771   6.402  16.636 -0.3711  0.3785  0.2427
28079W        W44340  12.676   4.727  14.896  0.2137  0.2151 -0.0288
28080W        W44341  12.962   0.040   1.572  0.0817  0.2238 -0.0379
28081W        W44342   2.081  13.017  16.350 -0.1529 -0.1400  0.3724
28082W        W44343   9.381  17.147  16.024 -0.0771  0.0460  0.1543
28083W        W44344   1.464   4.332  15.490 -0.1490  0.0446  0.3697
28084W        W44345   9.715  16.987  16.426  0.1038  0.1357 -0.0307
28085W        W44346   6.351   8.829   1.386 -0.3711  0.0159 -0.0143
28086W        W44347  16.309   9.692  16.413 -0.0296 -0.1905  0.1456
28087W        W44348   8.995  12.804   0.334 -0.2087 -0.1757 -0.1107
28088W        W44349   8.718  13.685   3.521  0.0713 -0.1330  0.2036
28089W        W44350  13.630  12.363   5.699  0.1304  0.1020 -0.1200
28090W        W44351  13.607   7.047   1.580 -0.0432 -0.0277  0.0679
28091W        W44352   5.064  14.709  12.225  0.0113 -0.1471 -0.0557
28092W        W44353   8.104   6.850   2.439 -0.0041  0.1273  0.1229
28093W        W44354  16.232   6.827   2.033 -0.2331  0.2084 -0.1016
28094W        W44355   6.561   9.128   2.616 -0.0966  0.1601 -0.1822
28095W        W44356   0.527  12.419   4.633 -0.0720 -0.1116  0.1649
28096W        W44357   9.235   2.432  11.550  0.1706  0.0794 -0.2417
28097W        W44358   5.995  13.271   2.953 -0.3234  0.1426  0.2911
28098W        W44359   0.841  15.763   3.751 -0.1758 -0.1411  0.0182
28099W        W44360   7.625  11.485  15.054 -0.0188 -0.0719  0.0511
28100W        W44361   1.486   3.847  15.555  0.0889  0.0102  0.0398
28101W        W44362   7.548  16.003  14.471  0.1168  0.1314 -0.1863
28102W        W44363  16.723  11.593  13.125  0.0440  0.0179  0.0017
28103W        W44364  15.171  15.527   1.735 -0.0049  0.0152 -0.1291
28104W        W44365  14.871   1.755   2.836  0.2804  0.1683  0.3311
28105W        W44366   8.771  15.989  15.066  0.0678 -0.0077  0.1437
28106W        W44367   9.911   2.392   1.793  0.1387  0.2770  0.0173
28107W        W44368   1.837   5.743   4.534  0.0023  0.0503  0.1277
28108W        W44369   4.860   1.799  13.029 -0.1304 -0.1406  0.1488
28109W        W44370   6.057   6.772  16.648  0.2732  0.0980 -0.2325
28110W        W44371  14.971  11.209   3.859  0.2752  0.1554  0.0267
28111W        W44372  17.829  13.683  11.823 -0.2388  0.4110 -0.0534
28112W        W44373   9.839  11.401  11.769 -0.2757  0.0137 -0.0896
28113W        W44374   5.038   7.850   5.307 -0.0193 -0.2760 -0.0848
28114W        W44375  11.828   6.643  15.048  0.0175  0.1969 -0.0350
28115W        W44376  12.095  13.973   2.944  0.1084 -0.0339 -0.0663
28116W        W44377  14.333   2.785   5.562  0.0094 -0.0883 -0.0525
28117W        W44378  13.240   8.545  13.746 -0.0836 -0.2090 -0.0305
28118W        W44379   9.333   6.272  14.713  0.1269 -0.2608 -0.2029
28119W        W44380   3.964   1.545   4.103  0.3194 -0.3978 -0.0756
28120W        W44381   1.803   6.170  13.858  0.0837  0.1191  0.1400
28121W        W44382   0.335  14.204   3.138 -0.1322 -0.3116  0.0084
28122W        W44383  16.208  15.272   0.587  0.1305 -0.2597  0.2670
28123W        W44384  11.870  14.530   3.630  0.0231  0.0799 -0.0308
28124W        W44385  14.432   0.349   4.142 -0.1940 -0.0879  0.1946
28125W        W44386   5.899  17.560   2.575  0.0268 -0.0577  0.0966
28126W        W44387  17.639   9.165   2.096 -0.0918 -0.1901  0.3069
28127W        W44388   0.158  13.370  13.601  0.3119 -0.4516 -0.1373
28128W        W44389   1.386   2.506   4.615 -0.0557  0.1339  0.0325
28129W        W44390  12.163   3.674   4.095  0.2217  0.1803  0.1438
28130W        W44391  10.143   3.870  12.402  0.0450 -0.0710  0.0557
28131W        W44392   8.022  14.120   4.153  0.0035  0.0037  0.0245
28132W        W44393   3.214  12.349   5.826  0.0342  0.1345  0.0951
28133W        W44394   6.410  13.222  15.038 -0.0085 -0.3304 -0.3074
28134W        W44395   0.055  10.696   4.798  0.5485  0.0188 -0.6538
28135W        W44396  16.538  15.997  12.995 -0.1260  0.1887  0.1713
28136W        W44397   3.259   0.546   2.481 -0.1179  0.2072  0.1671
28137W        W44398   3.554  14.134  13.717  0.1427 -0.1286 -0.1137
28138W        W44399   6.492   9.202  15.139  0.1377 -0.3085  0.0313
28139W        W44400  13.869   8.516  15.510 -0.0404 -0.0025  0.0509
28140W        W44401   1.977  11.590   1.581  0.1541  0.1603 -0.3528
28141W        W44402  13.201  16.554  14.178  0.0653 -0.2233  0.0372
28142W        W44403   6.978   6.223  14.391 -0.1622 -0.1602  0.0450
28143W        W44404  11.054   2.966   2.812  0.1101  0.2710 -0.2120
28144W        W44405   6.316   4.245  12.481 -0.0148 -0.1047  0.1219
28145W        W44406  17.355  11.296  16.810 -0.2502  0.0072  0.1807
28146W        W44407   3.341   8.929  15.822  0.0267 -0.0619 -0.0009
28147W        W44408  11.904   9.187   2.018  0.1456  0.2780 -0.0157
28148W        W44409   9.196  16.047  15.295 -0.2047 -0.3504  0.0125
28149W        W44410   9.127   3.062  14.706 -0.2389 -0.1030  0.1075
28150W        W44411   2.279   8.656  12.612  0.3480 -0.0224  0.2847
28151W        W44412   4.218  15.019   2.752 -0.2725  0.0371  0.0505
28152W        W44413   7.312   7.221  16.879  0.1847 -0.0080 -0.1288
28153W        W44414  15.775  14.173   5.458  0.1039 -0.1888  0.1751
28154W        W44415   3.285  12.619   1.911 -0.1432 -0.0868 -0.0132
28155W        W44416  11.355   7.346   0.103  0.0967 -0.1414 -0.3294
28156W        W44417   8.170  17.411  12.794 -0.3808  0.1664 -0.1439
28157W        W44418  11.445   1.537   3.516  0.1307  0.1716  0.0369
28158W        W44419   2.232   0.899  12.416  0.0328  0.0614  0.6183
28159W        W44420   2.682  12.375  14.832  0.2231  0.2016  0.0591
28160W        W44421   8.547   0.464   2.714 -0.0354  0.0173 -0.1427
28161W        W44422  10.589   0.603   4.085  0.2226  0.1667 -0.0319
28162W        W44423  15.611   6.056   1.127  0.0390  0.2690 -0.0552
28163W        W44424   6.284   2.619  16.612 -0.3738  0.0730  0.2785
28164W        W44425  13.445  14.173   2.373 -0.0086 -0.1134 -0.0636
28165W        W44426   1.022   9.391   0.789 -0.0875  0.1152 -0.2205
28166W        W44427  17.704   8.511  12.156 -0.0255 -0.2276 -0.0947
28167W        W44428   4.086  16.166  11.415 -0.0800  0.0515 -0.2868
28168W        W44429   4.615   7.541  11.470  0.1698  0.2682  0.0459
28169W        W44430   1.173  13.143   2.857  0.1452 -0.1164  0.0228
28170W        W44431  15.860  10.369  12.799 -0.0191  0.0533 -0.3586
28171W        W44432   0.412  10.017   2.372 -0.1187 -0.1674  0.2522
28172W        W44433   6.451   3.530  14.405 -0.4215  0.0143 -0.1446
28173W        W44434   5.720   5.448  15.351 -0.1000  0.2971  0.1583
28174W        W44435   2.027   4.494   5.176 -0.0730 -0.0328 -0.1582
28175W        W44436   5.223  10.695   2.325 -0.0206 -0.3152 -0.1526
28176W        W44437  17.301   6.849   1.242  0.1331 -0.0745  0.0785
28177W        W44438   6.763   3.531   3.327  0.0266 -0.0344 -0.0082
28178W        W44439  13.009  16.757  15.720 -0.0501  0.3093 -0.1472
28179W        W44440   6.773   9.805   4.474  0.1963  0.0805  0.1201
28180W        W44441  15.449   1.885  12.984  0.0235 -0.0536  0.1966
28181W        W44442  11.650  14.164  15.379 -0.0944  0.1768 -0.2370
28182W        W44443   5.510  14.423  16.208 -0.1644  0.1730 -0.1719
28183W        W44444  13.822  14.000  11.961  0.0896 -0.0742 -0.1098
28184W        W44445  13.848  15.287   2.977  0.0799  0.1775 -0.2742
28185W        W44446   1.655  15.189  13.040 -0.0032 -0.2468  0.1924
28186W        W44447  16.905   0.179  12.438  0.4061 -0.1925  0.1260
28187W        W44448  11.523  12.376   3.437  0.0213 -0.2890  0.0616
28188W        W44449  15.591  10.393   4.135  0.1122 -0.0618 -0.0532
28189W        W44450  12.905   6.299   0.664 -0.1123 -0.0998 -0.1884
28190W        W44451  17.386  16.414  12.286  0.0164  0.2390  0.1282
28191W        W44452   4.999   5.878   5.242  0.1183  0.0430 -0.2845
28192W        W44453   3.092   0.934   3.920 -0.2239  0.0600 -0.2220
28193W        W44454   8.531   6.652   5.741 -0.2610  0.0929 -0.1312
28194W        W44455  11.219   0.530  12.594 -0.0074  0.4062 -0.1426
28195W        W44456   8.097   8.918  14.394  0.4782  0.1995  0.1023
28196W        W44457  12.730  14.891  12.423 -0.1255 -0.0673 -0.1186
28197W        W44458  13.621  15.007   0.301  0.0390 -0.1041 -0.4730
28198W        W44459   2.043   4.456   1.941 -0.1375 -0.0053  0.2706
28199W        W44460  12.085  11.635   4.697  0.2395  0.1584 -0.0263
28200W        W44461  14.215   0.781  13.390 -0.0858 -0.0636 -0.0755
28201W        W44462   6.674  13.315   1.143  0.1158 -0.2393 -0.0031
28202W        W44463  15.367  15.203  13.835 -0.0520 -0.0615  0.2036
28203W        W44464   9.390  14.844   4.882 -0.2387  0.0063  0.0126
28204W        W44465   4.289  14.459  16.808 -0.1261 -0.2651  0.2278
28205W        W44466  17.431   2.618   0.151  0.0366 -0.4903  0.1966
28206W        W44467  12.618   8.226  16.581  0.0442 -0.0408  0.0678
28207W        W44468  17.509   3.675  16.943 -0.1794  0.0945 -0.2737
28208W        W44469   1.078   6.734  16.239 -0.2351  0.0161  0.0356
28209W        W44470   3.937  11.524  13.974 -0.1262 -0.0256 -0.0858
28210W        W44471   3.682   7.289  11.449 -0.0590  0.1613 -0.0675
28211W        W44472  13.046  14.258  16.700  0.0012 -0.4696  0.0245
28212W        W44473  13.573   2.572   4.991  0.0098 -0.1414 -0.1550
28213W        W44474   6.864   1.060  13.010 -0.3459  0.1053 -0.1283
28214W        W44475   3.546   6.925  15.505 -0.0099  0.1813  0.0458
28215W        W44476  17.013   3.412  16.821 -0.3035 -0.0942 -0.0846
28216W        W44477   7.565   8.742  16.698  0.0432  0.0418  0.0700
28217W        W44478   0.190  17.061  16.820 -0.1032 -0.2505 -0.0732
28218W        W44479   1.503  11.935  16.274  0.2690  0.0868 -0.1571
28219W        W44480   0.871   4.449   1.008 -0.0185  0.2384 -0.2591
28220W        W44481   4.478  13.871  15.297  0.0094 -0.4187 -0.1941
28221W        W44482  11.748  14.297   3.185 -0.3290 -0.0804  0.2815
28222W        W44483  17.744  15.473   0.810  0.1587  0.0356  0.1391
28223W        W44484  12.080  10.288  13.648 -0.0379 -0.4401 -0.1693
28224W        W44485  17.575  11.258   4.350  0.0380 -0.1463 -0.0079
28225W        W44486   0.374   6.935   0.157 -0.0994 -0.0072  0.3137
28226W        W44487   1.283  11.127   3.035  0.1076 -0.2728  0.1076
28227W        W44488  12.849   4.752  12.821  0.3705  0.0206 -0.1815
28228W        W44489   7.782  12.581   1.116 -0.1336  0.1350 -0.1063
28229W        W44490  13.723  17.754  15.839 -0.0940 -0.0510 -0.0521
28230W        W44491  11.475   7.598  12.886  0.0330 -0.1184 -0.0960
28231W        W44492   4.062   1.029   2.474  0.0740  0.2520 -0.0566
28232W        W44493   9.776  15.564  15.901 -0.0236  0.0015 -0.1338
28233W        W44494   9.685  17.125   5.674 -0.1882  0.2364 -0.0201
28234W        W44495  12.221   3.650   5.865 -0.2383  0.0650 -0.1220
28235W        W44496  10.233  13.885  14.942 -0.1409 -0.1917 -0.1233
28236W        W44497  12.727  14.058   3.695  0.0416 -0.0962 -0.1368
28237W        W44498  10.600  13.185   3.783 -0.1406 -0.1945  0.0524
28238W        W44499  13.115  17.322  15.713 -0.4901  0.0491 -0.0558
28239W        W44500   5.860  12.052   5.423  0.0899  0.1537  0.2723
28240W        W44501  13.605   6.183  13.423 -0.1919 -0.1043 -0.0055
28241W        W44502   3.126   3.010  16.385  0.1960 -0.0231  0.0205
28242W        W44503   6.926  16.975  16.792  0.1629  0.2227  0.0363
28243W        W44504   0.543  15.592  12.002 -0.3521  0.0270  0.2404
28244W        W44505  15.973  12.909   5.156 -0.1458 -0.0318  0.2903
28245W        W44506  13.994  12.870   2.203 -0.4051  0.1547  0.0897
28246W        W44507  13.131   5.062   4.645 -0.1462 -0.1576  0.1974
28247W        W44508  13.730  12.096  16.732 -0.1495 -0.2104 -0.1389
28248W        W44509   9.105  11.665   3.353 -0.1955  0.0247  0.0657
28249W        W44510   0.219   8.998   1.953  0.0343 -0.2638 -0.3592
28250W        W44511   3.924   2.600  11.865  0.2259  0.2357 -0.0392
28251W        W44512   4.948  13.482   1.015  0.0974  0.0475 -0.0593
28252W        W44513  15.480   9.928   3.454  0.3738 -0.0384  0.0674
28253W        W44514   4.967  15.674  15.245  0.1936  0.0775 -0.1456
28254W        W44515   3.936  11.421   4.832 -0.1662  0.1825  0.0047
28255W        W44516   9.398   0.861   4.645 -0.0494 -0.1036  0.1799
28256W        W44517   6.222  16.176   5.590  0.1960  0.0284  0.1362
28257W        W44518  10.641  17.482  15.029 -0.1635 -0.1885 -0.0387
28258W        W44519   0.619  13.705  14.076 -0.0666 -0.3271  0.1939
28259W        W44520   1.054   9.299  12.822  0.1595 -0.2343 -0.1342
28260W        W44521   9.506   7.077  14.195  0.3502 -0.1160 -0.3273
28261W        W44522  17.058  12.521   2.403 -0.0019 -0.0670 -0.1698
28262W        W44523  13.114   2.061  10.899 -0.1221 -0.1873 -0.2278
28263W        W44524   6.100  10.741  15.482 -0.0824 -0.0984  0.0348
28264W        W44525  11.760   0.648   3.726  0.0628  0.3581  0.3213
28265W        W44526  12.029  14.472   4.870  0.0347 -0.0698 -0.0985
28266W        W44527  10.930   1.311   1.540 -0.1292 -0.3826  0.1000
28267W        W44528   0.016  12.232   1.164  0.1310  0.0239 -0.1704
28268W        W44529   8.718   6.757  16.733 -0.3334  0.0933  0.0593
28269W        W44530  14.941   7.319  14.691 -0.0176  0.0580 -0.0152
28270W        W44531   5.549   3.672   1.414  0.1783 -0.0003 -0.1589
28271W        W44532   7.555  11.361   0.364  0.2041 -0.0239  0.0816
28272W        W44533   8.333   6.882  12.791  0.0092  0.1219  0.2277
28273W        W44534  13.863   4.840  16.136 -0.1992 -0.0600 -0.0891
28274W        W44535   3.324   9.268  11.756 -0.0625  0.2346  0.1437
28275W        W44536   7.440   3.621   3.861  0.2518 -0.0648 -0.1607
28276W        W44537   3.220   9.290   5.500  0.4443 -0.2308 -0.0684
28277W        W44538  14.507   9.097  15.084 -0.0162  0.1197 -0.1574
28278W        W44539  15.387   7.551  16.284 -0.0707 -0.3636  0.1099
28279W        W44540   2.330   1.911   1.763 -0.0095  0.1575 -0.1550
28280W        W44541   3.783   5.690   0.763  0.2973 -0.0951  0.1289
28281W        W44542   2.602  11.930   5.193  0.1247 -0.0103 -0.0797
28282W        W44543  11.406   0.801  12.151  0.0311 -0.2673  0.2380
28283W        W44544  14.222   8.445  11.657  0.0012  0.1285  0.1249
28284W        W44545   3.886  15.940   3.998 -0.1055  0.1850  0.1449
28285W        W44546   4.683   7.513  15.495 -0.0872  0.0897  0.1303
28286W        W44547  15.524   3.811  13.184 -0.1271 -0.1936 -0.4640
28287W        W44548   3.417  15.733  13.411 -0.0678 -0.3486  0.0130
28288W        W44549   9.863   7.732  16.404 -0.2355  0.1465 -0.1175
28289W        W44550   4.851   3.467  15.802  0.0398  0.1277  0.1912
28290W        W44551   4.857   8.001  15.531  0.1003  0.2932 -0.3699
28291W        W44552  15.846   6.951   5.281  0.0305 -0.0836 -0.1089
28292W        W44553   1.251  12.796  15.957  0.1007  0.1107 -0.2420
28293W        W44554   0.898  12.463   2.148 -0.1716 -0.0937 -0.1292
28294W        W44555   6.012  13.904   0.167 -0.0067  0.1981  0.0316
28295W        W44556   5.292   5.644   1.807 -0.0519 -0.3977 -0.1053
28296W        W44557   1.215   7.816   0.466  0.0367  0.4353  0.0284
28297W        W44558  11.484  16.808   0.565  0.3034  0.1343 -0.0553
28298W        W44559   2.122   0.944  14.216 -0.3184  0.0265  0.0964
28299W        W44560   0.203  11.259  11.928 -0.2480  0.0614 -0.2297
28300W        W44561   6.353   8.500  11.427 -0.1839  0.3427 -0.2968
28301W        W44562  11.944   5.150   2.888 -0.1453  0.1638 -0.1755
28302W        W44563   4.796   0.673  15.167 -0.0099 -0.0482 -0.2359
28303W        W44564  13.838   1.092   3.812 -0.2881  0.0044  0.0790
28304W        W44565   8.746   2.566   1.195 -0.0649 -0.0593 -0.1352
28305W        W44566   9.471   4.344   3.634  0.1510 -0.1785  0.1403
28306W        W44567  15.510   2.406  16.908 -0.1691  0.3076  0.1771
28307W        W44568  12.433   9.054   5.549  0.2541  0.4026  0.0807
28308W        W44569  11.651   4.388   5.676 -0.2832  0.2807  0.0222
28309W        W44570   4.298  14.420  13.641 -0.2442 -0.0638  0.0473
28310W        W44571  10.717   0.348  11.993 -0.0145 -0.1864  0.0256
28311W        W44572  13.347  11.132   0.129  0.1615 -0.2772 -0.3536
28312W        W44573  13.608   9.176  11.845 -0.1152  0.0158 -0.4439
28313W        W44574   1.635   1.774   6.232  0.0629 -0.0188  0.1543
28314W        W44575  17.307  13.822   3.340 -0.2015 -0.1019  0.2660
28315W        W44576   6.517   5.316  11.990  0.2244  0.2099  0.1617
28316W        W44577   5.741   5.195   2.878  0.0486 -0.0127  0.3879
28317W        W44578  12.476   0.248  16.291 -0.3164 -0.1106  0.1575
28318W        W44579   4.198  15.097  16.254  0.2546 -0.0114  0.0131
28319W        W44580  15.102  15.224   1.289  0.1457 -0.2748 -0.1535
28320W        W44581  11.295   4.679  13.160 -0.1980 -0.1189 -0.2209
28321W        W44582   2.192  14.591  13.742  0.2835 -0.1000  0.3465
28322W        W44583  12.562   1.291  16.409 -0.0386  0.0746  0.0539
28323W        W44584  13.062   4.645   0.460 -0.1562 -0.1575  0.3946
28324W        W44585   6.476   1.318  13.918 -0.2337 -0.1009 -0.2036
28325W        W44586   3.041   4.961   2.837 -0.0623  0.3741 -0.5306
28326W        W44587   6.301  13.916  13.776 -0.2692  0.0351  0.1668
28327W        W44588  13.022  10.642   0.774 -0.1410  0.0691  0.1202
28328W        W44589  10.771   4.785   4.587  0.0976 -0.1547  0.0775
28329W        W44590   3.201  13.795   4.652  0.0374  0.2992 -0.0808
28330W        W44591  11.087   5.513   5.385  0.1659 -0.1788 -0.1223
28331W        W44592  11.123  13.409   3.734 -0.3057 -0.1777 -0.0892
28332W        W44593   2.057  14.580   5.710 -0.3860 -0.3155  0.0305
28333W        W44594  10.221   4.820  13.860 -0.0189  0.1510 -0.0812
28334W        W44595   7.577   3.956  16.788 -0.0106  0.2942 -0.1978
28335W        W44596   0.961   3.386   4.691 -0.0228 -0.2092  0.0916
28336W        W44597   0.445  15.746   0.598  0.0781 -0.2472 -0.2321
28337W        W44598   8.161   4.403   1.755 -0.2495  0.0500 -0.0545
28338W        W44599   6.787   2.545  12.315 -0.2620  0.0770  0.3892
28339W        W44600   5.089  12.291   2.102  0.0740  0.0904 -0.1818
28340W        W44601  10.474   9.910   2.991  0.0630  0.0196 -0.2717
28341W        W44602  16.162   1.843  14.349  0.0830  0.0353 -0.2611
28342W        W44603   3.721  13.775  14.211 -0.0577  0.0602 -0.0801
28343W        W44604  13.984  13.341   0.927 -0.3467 -0.0509 -0.1364
28344W        W44605  13.382   3.478  16.600  0.1406  0.2605  0.3351
28345W        W44606  11.630   4.782  15.298  0.2201 -0.0350 -0.0585
28346W        W44607   1.845   0.308   2.679 -0.0778  0.0923 -0.2210
28347W        W44608  17.845   9.091  15.171 -0.1032  0.1595  0.1356
28348W        W44609  17.624  13.485   1.879  0.0221  0.0344 -0.2352
28349W        W44610  15.839   6.935   1.198  0.0046  0.1895 -0.1901
28350W        W44611   9.056   4.283   3.186  0.0927 -0.2289  0.1138
28351W        W44612  12.658  13.847  14.999  0.2245  0.0231  0.0503
28352W        W44613   6.374   3.224   1.348 -0.0363  0.2234  0.0989
28353W        W44614  16.697  15.878   5.788  0.0666  0.1884  0.0842
28354W        W44615  13.521  17.062   4.229  0.0563 -0.2817  0.0069
28355W        W44616   9.200  10.042   3.441  0.3229  0.2133  0.0384
28356W        W44617  17.276  17.778  16.618 -0.2049  0.0594  0.1052
28357W        W44618   8.384  16.217  14.161  0.3175 -0.1629  0.1989
28358W        W44619   5.122  10.191   5.561 -0.0928  0.3786 -0.2834
28359W        W44620  10.346   4.610   0.103  0.0157  0.0706 -0.0702
28360W        W44621  15.309   8.777   3.879  0.1166  0.1407  0.2541
28361W        W44622  17.406  15.469   1.165  0.2203  0.1632  0.0862
28362W        W44623   8.644   8.365   3.360 -0.3772 -0.0420 -0.1163
28363W        W44624  14.394   8.331  16.699 -0.1374 -0.1228  0.1667
28364W        W44625  15.491   5.818  12.369  0.0260  0.1196  0.1510
28365W        W44626   9.694   9.005   4.009 -0.2250 -0.0904 -0.1839
28366W        W44627   9.002  11.745   4.693 -0.3766 -0.1309  0.1303
28367W        W44628  10.738   6.286   4.687 -0.3906  0.0994  0.3260
28368W        W44629   3.742  15.738   3.440 -0.0435  0.1867  0.1556
28369W        W44630   6.637  15.920   4.591 -0.0795  0.3327  0.1004
28370W        W44631   0.101   5.083   2.055 -0.2140  0.2688 -0.2151
28371W        W44632  10.621  16.742  11.594 -0.0713 -0.1090  0.1316
28372W        W44633   0.702  10.459   4.118 -0.0396  0.2431 -0.0125
28373W        W44634   0.072   0.516  13.321  0.4951 -0.3845 -0.2354
28374W        W44635  16.104  16.428   2.086 -0.1172 -0.0368 -0.2037
28375W        W44636   4.545  14.361  12.128  0.2248  0.2453  0.1977
28376W        W44637  15.777  11.669  15.915 -0.2945  0.0230 -0.0499
28377W        W44638  11.284   9.502  16.884 -0.3007  0.0496 -0.0527
28378W        W44639   4.094  13.076   1.350  0.2264  0.1072 -0.0872
28379W        W44640  16.853  10.807  15.630 -0.1656 -0.0233 -0.3822
28380W        W44641   6.293  15.745  12.833  0.0368  0.4190  0.0660
28381W        W44642   1.397  13.603  11.751 -0.4733  0.0820 -0.2119
28382W        W44643   5.522   6.881  14.887 -0.0699  0.2370  0.2020
28383W        W44644   6.299  13.532   3.857  0.1005 -0.2039 -0.0898
28384W        W44645   5.290   7.682  14.184  0.0450 -0.2647  0.0263
28385W        W44646  13.958   4.125   2.412 -0.1019 -0.1449  0.0576
28386W        W44647  16.697  13.473   6.301  0.1817  0.3145 -0.2076
28387W        W44648  16.377  10.961   4.069 -0.0790 -0.0809  0.0253
28388W        W44649   0.452   3.291  14.649  0.4524 -0.1615 -0.0365
28389W        W44650  13.442   1.248  16.240 -0.1988 -0.0074  0.1149
28390W        W44651  13.077   3.669  16.166 -0.0679 -0.0813  0.1225
28391W        W44652  13.925   0.077   1.575  0.3651  0.2319  0.0501
28392W        W44653   7.421   5.510   3.506  0.0107  0.0653  0.1589
28393W        W44654  15.512  15.450   2.134  0.2166 -0.0383 -0.0172
28394W        W44655  10.168   4.480   5.381  0.1143 -0.1576 -0.2408
28395W        W44656   8.377   2.746  13.507 -0.2786  0.0347  0.0729
28396W        W44657  16.366  12.016  15.223  0.1134  0.0128 -0.2233
28397W        W44658  15.703   4.381  14.596  0.0644  0.1870  0.1619
28398W        W44659   3.812  16.700   5.199 -0.0497 -0.1537 -0.3731
28399W        W44660   1.520   7.426  14.500 -0.3039 -0.1209 -0.0167
28400W        W44661   7.292   8.898   1.779 -0.0859  0.2523 -0.0979
28401W        W44662  14.749   6.335  12.759  0.0804 -0.0796 -0.1081
28402W        W44663   8.269   6.693  14.643  0.1481  0.0074 -0.3178
28403W        W44664   1.593   0.401   4.597 -0.1372 -0.2831  0.2708
28404W        W44665  16.001  13.030  14.983 -0.1346  0.1108 -0.1560
28405W        W44666   1.638   1.133   1.958 -0.2209  0.0306 -0.0149
28406W        W44667   4.908   6.541   5.241  0.3355 -0.2531  0.1508
28407W        W44668   8.385   1.761  16.591 -0.0177 -0.0266  0.2437
28408W        W44669  13.818  15.396   3.756  0.1910  0.1385 -0.0645
28409W        W44670   8.093   3.336  12.928 -0.1922  0.1646 -0.2078
28410W        W44671   1.689  16.614   0.113 -0.2295 -0.0382  0.0284
28411W        W44672   8.517   1.959   0.077  0.2113 -0.1223  0.0005
28412W        W44673  14.421   0.128   0.820 -0.0988 -0.2079 -0.0036
28413W        W44674  14.927   5.154   4.029 -0.0935 -0.0935  0.2540
28414W        W44675   4.345   4.514   5.806 -0.0177  0.1733 -0.2213
28415W        W44676   6.299   3.027  14.261  0.2195  0.1807  0.1978
28416W        W44677   4.692  11.908  14.213  0.2202 -0.0513 -0.1002
28417W        W44678   7.305  12.040  12.675 -0.1234 -0.0229  0.1851
28418W        W44679  13.917  11.821   2.872 -0.2102  0.1829  0.2026
28419W        W44680   3.972  14.508  15.610  0.1494 -0.1710  0.0343
28420W        W44681   4.745   6.864  14.328  0.1769 -0.2380 -0.3478
28421W        W44682  13.681   2.389  15.670 -0.0557 -0.1826  0.1101
28422W        W44683   2.486   1.145   5.430 -0.1488 -0.1707  0.4879
28423W        W44684   3.327   2.638   0.419  0.0090 -0.1551 -0.2436
28424W        W44685   0.079   6.741  16.676  0.0728 -0.3055 -0.1576
28425W        W44686  12.452  10.230  16.047 -0.1006  0.2170  0.2400
28426W        W44687   0.553   1.891  13.308  0.4791  0.2501  0.0685
28427W        W44688   2.817   6.773   2.988  0.3070 -0.3495 -0.0455
28428W        W44689  13.009  16.562   4.151 -0.0938  0.2636  0.0246
28429W        W44690   3.688   1.541   1.306  0.0653  0.2686  0.2237
28430W        W44691  10.902   9.968   3.709  0.0577 -0.2043 -0.1043
28431W        W44692   2.219  16.494  11.983 -0.1188  0.1413 -0.2547
28432W        W44693  11.173  10.943   3.256  0.0985 -0.2049 -0.3537
28433W        W44694   7.206   4.969   1.776  0.0717 -0.4201 -0.1102
28434W        W44695  14.767   3.960   3.628  0.2917  0.1435 -0.0208
28435W        W44696  13.006   5.663   1.725  0.1792 -0.0339 -0.1604
28436W        W44697   7.009  14.492   4.785 -0.3322  0.0734  0.1483
28437W        W44698  10.969  16.652  15.780  0.0094 -0.1422 -0.3360
28438W        W44699   7.094   6.081   4.146 -0.0208  0.3927  0.1607
28439W        W44700   8.419   6.211  13.452  0.0800 -0.3148 -0.1399
28440W        W44701  16.887  12.180  15.182  0.0279 -0.0004 -0.0781
28441W        W44702   5.973   8.735  13.746 -0.2423 -0.0845 -0.0046
28442W        W44703  10.451   8.412  13.856  0.1052  0.0577 -0.0378
28443W        W44704  15.688  10.349   0.509  0.1412 -0.0727 -0.0936
28444W        W44705  14.307   7.868   0.625 -0.1616  0.1378  0.0807
28445W        W44706  16.631  15.646   1.203  0.0379 -0.0020  0.0822
28446W        W44707  13.187   9.219  14.515 -0.3883  0.0879 -0.1274
28447W        W44708   8.630  12.366   5.055 -0.1313  0.0162 -0.1928
28448W        W44709  12.364   8.073   5.987  0.1189  0.2792  0.1158
28449W        W44710  17.720   6.471  16.295 -0.4839 -0.0418  0.1410
28450W        W44711   3.054   8.298   2.328 -0.1068  0.1130  0.1126
28451W        W44712   1.524   2.829   3.391 -0.1189  0.0990 -0.0733
28452W        W44713  13.435  16.983  12.526  0.3740 -0.1228  0.1961
28453W        W44714   0.731   5.705   5.350  0.0080  0.0039 -0.1756
28454W        W44715   3.558   5.154  13.416  0.1865 -0.0641  0.3646
28455W        W44716  16.576   2.049  16.221  0.2333 -0.2368  0.1088
28456W        W44717   1.665  13.377   1.464  0.2038 -0.3568 -0.1142
28457W        W44718   1.934   3.818   1.211  0.1566  0.4841  0.0457
28458W        W44719   2.418  10.097   2.953  0.0025 -0.0683  0.2212
28459W        W44720   0.342   1.496  15.446  0.1282 -0.0425 -0.1286
28460W        W44721  13.172  16.819  12.012 -0.3161  0.0671  0.0986
28461W        W44722  12.353  13.421  15.052  0.1639  0.2463  0.0481
28462W        W44723   2.399  16.597  16.377 -0.0447 -0.0041  0.1558
28463W        W44724   1.014   7.174  12.387  0.1057  0.0891 -0.0412
28464W        W44725  11.601  10.733   0.759 -0.0405  0.1420  0.0486
28465W        W44726   0.146   8.225  14.840 -0.0039 -0.3988 -0.0729
28466W        W44727   6.179  13.560   5.509  0.0243 -0.0890 -0.2155
28467W        W44728   2.006  13.117   5.307  0.1760 -0.1870  0.2680
28468W        W44729  15.177   7.159  12.868  0.0980 -0.2404  0.1802
28469W        W44730   6.167   2.571   1.992  0.0231  0.2165  0.2138
28470W        W44731  10.718  14.739   1.683  0.0167 -0.1435  0.1670
28471W        W44732  13.242  11.288   3.223  0.1112  0.0414  0.0783
28472W        W44733   2.158  17.011   2.715 -0.0078  0.2533  0.1016
28473W        W44734   2.584  10.827   1.665  0.0358  0.0745 -0.0657
28474W        W44735  14.109   5.540   4.426 -0.2943  0.1614  0.0563
28475W        W44736  12.314   3.682   5.125  0.0474  0.1328 -0.3008
28476W        W44737   6.243   9.128  14.556  0.0681  0.2475 -0.0871
28477W        W44738  10.511  15.961  12.669  0.2613 -0.0324 -0.1218
28478W        W44739  17.541  15.890  12.150  0.1472 -0.2461 -0.2709
28479W        W44740  15.023   4.383   0.342 -0.2072 -0.1006 -0.1437
28480W        W44741  14.025  12.555  12.324  0.0901 -0.0278  0.0966
28481W        W44742   5.575   2.442   5.046  0.2499  0.2329 -0.1370
28482W        W44743   5.772   8.010  12.347 -0.0983 -0.1270  0.1281
28483W        W44744  10.981   2.200  14.456 -0.0404 -0.2740  0.0382
28484W        W44745   5.639   4.461  15.976  0.0044  0.0034 -0.3590
28485W        W44746   5.545   8.704  15.266  0.0067 -0.1944  0.0296
28486W        W44747   9.956  13.420   2.044 -0.0892  0.1217  0.2097
28487W        W44748  15.777  12.109  14.986 -0.3051 -0.0355  0.2743
28488W        W44749  11.047   2.072  13.997  0.1496  0.0409  0.1839
28489W        W44750   7.774  13.852   2.563 -0.1011  0.2178  0.2482
28490W        W44751   2.547  11.211  14.923  0.1712  0.2660 -0.0517
28491W        W44752   0.905  15.655   5.406  0.0429 -0.1893 -0.1139
28492W        W44753  11.909  14.366  14.636  0.1075 -0.0353  0.1730
28493W        W44754  12.284  17.121   5.396 -0.0202 -0.2063  0.3425
28494W        W44755   0.281   2.656   4.723 -0.2204  0.1165  0.3838
28495W        W44756  15.118  10.599  16.391  0.1306 -0.2385 -0.0410
28496W        W44757   3.110   6.055  16.875  0.1359  0.1485  0.2433
28497W        W44758   1.044   3.443   0.229  0.0383  0.1819 -0.1916
28498W        W44759   0.924  11.744   4.923  0.0665  0.1040 -0.1384
28499W        W44760   7.370   3.435  12.376 -0.2633  0.0290  0.1211
28500W        W44761   8.974   1.077   4.439  0.0379  0.1824  0.1222
28501W        W44762  13.923   4.741   3.082  0.0677 -0.3448 -0.0152
28502W        W44763   4.763  15.038  16.114  0.1526  0.3026  0.0436
28503W        W44764   2.234  16.517  12.749  0.3862  0.0740  0.1406
28504W        W44765   0.048   9.861  10.823  0.3150 -0.1734 -0.1585
28505W        W44766  14.849  11.521   4.488  0.0056 -0.1232  0.0975
28506W        W44767   0.434   3.219  13.694  0.0514 -0.2465 -0.3067
28507W        W44768  14.266  10.437   5.000 -0.0259 -0.0325 -0.3062
28508W        W44769  11.283   8.361   3.942 -0.0083 -0.0846 -0.1712
28509W        W44770   7.360  17.739  13.519 -0.0516  0.0092  0.0398
28510W        W44771   8.779  15.753   2.587  0.1655 -0.0532 -0.2575
28511W        W44772  11.005   1.797   3.599  0.1379  0.1943 -0.2322
28512W        W44773   4.485  14.857   0.379  0.0653  0.0157 -0.0569
28513W        W44774   7.518   6.763   3.423  0.0013  0.2923  0.0884
28514W        W44775   2.326  11.107   2.004  0.3947 -0.1241 -0.1244
28515W        W44776   1.599   4.563  14.152 -0.0807 -0.0337 -0.2478
28516W        W44777  10.327   2.607   2.825  0.0960  0.1575 -0.3119
28517W        W44778  13.401   0.003   1.911  0.1753  0.1031 -0.1508
28518W        W44779   3.182  16.454   5.127  0.0387 -0.1678 -0.0867
28519W        W44780  10.575   4.804  14.218 -0.0590 -0.1617 -0.2702
28520W        W44781   0.655  16.175   5.570 -0.1730 -0.1223  0.0880
28521W        W44782   1.028  12.732  16.811 -0.1406  0.0247  0.1401
28522W        W44783   3.385   4.418   0.473 -0.0289 -0.0466 -0.0520
28523W        W44784   5.094  17.284   5.178  0.0131  0.1308 -0.1727
28524W        W44785   0.902   9.057  11.862 -0.0169  0.0763 -0.1982
28525W        W44786  14.981  14.008  12.366  0.1206 -0.2959 -0.1510
28526W        W44787   5.088  16.957  14.778 -0.1657 -0.1416  0.1052
28527W        W44788  12.829   1.712  16.578 -0.0786 -0.0751  0.0546
28528W        W44789  14.413  17.665  12.750 -0.0237  0.1625  0.0168
28529W        W44790  15.019  15.684  12.016  0.1822  0.2235  0.0754
28530W        W44791   8.846   0.352  16.446  0.0134  0.1522  0.0861
28531W        W44792  10.040  16.130   4.089 -0.0501 -0.0941 -0.0477
28532W        W44793  14.865  17.694   2.581 -0.0279 -0.0892  0.1335
28533W        W44794   7.203   8.703   2.261  0.0213 -0.2124 -0.3332
28534W        W44795   4.178   3.317   2.820  0.0293 -0.0173 -0.1401
28535W        W44796   9.771  12.706  12.514 -0.0581 -0.1301  0.1340
28536W        W44797  12.665  16.752  12.119 -0.3589 -0.0263  0.1530
28537W        W44798   0.785  12.178  12.905 -0.0234 -0.3051 -0.4650
28538W        W44799   3.360  17.308   4.564  0.2141 -0.0523  0.0161
28539W        W44800  10.040  15.017   0.932 -0.2435 -0.2156  0.0629
28540W        W44801  10.384   3.083  13.612 -0.1035  0.2812 -0.0794
28541W        W44802  10.982   1.073  14.921  0.0740 -0.3570 -0.1157
28542W        W44803  11.405   1.081   5.466 -0.0055 -0.0276 -0.1813
28543W        W44804   2.419  13.360  11.799 -0.2872 -0.2064 -0.0634
28544W        W44805   5.319   4.228  13.671 -0.2051 -0.0309 -0.0366
28545W        W44806   6.600   2.506   0.094  0.2311  0.1731  0.0488
28546W        W44807   8.159   2.268  15.379 -0.0875 -0.0567  0.0786
28547W        W44808   2.659  15.673  16.290 -0.0247 -0.1247 -0.1964
28548W        W44809   8.835   7.209  14.592 -0.1021  0.2625  0.0073
28549W        W44810   7.304  13.569  14.071 -0.0584  0.0179  0.1978
28550W        W44811   3.528   3.612  15.776  0.0766  0.1211  0.2848
28551W        W44812   9.834  15.693  16.431  0.1931  0.0816 -0.1877
28552W        W44813   4.385   5.411   4.303  0.0977  0.0343  0.3847
28553W        W44814   9.548  14.927   0.757  0.1112 -0.0418  0.1723
28554W        W44815   3.839   1.104  13.956 -0.5066  0.3045 -0.4158
28555W        W44816   7.801   9.166   5.382  0.0662 -0.1798  0.2935
28556W        W44817  12.157  16.840   3.639 -0.4927  0.2827  0.1329
28557W        W44818  16.107  15.009  15.973 -0.1596 -0.0730 -0.1657
28558W        W44819   6.229   3.990  14.337  0.0119 -0.2600  0.2311
28559W        W44820  15.999  17.417   1.654 -0.0788 -0.1448 -0.4434
28560W        W44821  11.593  10.832  13.904  0.1034  0.1826  0.1601
28561W        W44822  14.812  14.701  16.683 -0.0068  0.0662 -0.2828
28562W        W44823   4.190  15.085   0.812  0.2325  0.1976 -0.1602
28563W        W44824  11.791   3.406   0.583 -0.0212  0.1554 -0.2881
28564W        W44825  17.046   8.529  14.091  0.2119  0.0415 -0.2158
28565W        W44826  15.827   3.124   4.009  0.1266  0.1045 -0.0023
28566W        W44827  10.595   9.083   1.448  0.0006  0.3619  0.2471
28567W        W44828   7.815   8.861  12.739  0.0690 -0.0264 -0.1379
28568W        W44829   2.108   7.525   1.582  0.0345  0.2691 -0.2707
28569W        W44830  15.154   6.676  12.707 -0.0422  0.1877 -0.0699
28570W        W44831   1.611   4.287   5.500 -0.2676  0.0722  0.1589
28571W        W44832  14.805  12.780  16.002 -0.2050 -0.0850  0.1353
28572W        W44833   8.098   0.044   1.535  0.2968 -0.0710  0.0540
28573W        W44834   0.681   8.593  12.014  0.0417  0.2051 -0.0328
28574W        W44835  12.253  11.806  13.052  0.0112 -0.0402  0.3260
28575W        W44836  17.822   1.257   6.223  0.0594  0.0901  0.2196
28576W        W44837  15.104   2.406  12.224  0.1558 -0.0053 -0.0112
28577W        W44838   6.403   2.055   0.890  0.0669 -0.0864  0.2719
28578W        W44839   8.987   2.201   5.101  0.1982 -0.0796  0.3169
28579W        W44840   6.893   0.833   2.505 -0.0460 -0.1918 -0.0445
28580W        W44841   8.198   0.217  14.283  0.2808 -0.0532  0.1469
28581W        W44842   6.926  16.843  13.990  0.1178  0.1814  0.4647
28582W        W44843  15.711  11.004   2.124  0.1173  0.0593 -0.0509
28583W        W44844  12.505  11.317   5.389 -0.2916  0.0843 -0.1469
28584W        W44845   5.437   1.152  14.707 -0.0391  0.2455 -0.1980
28585W        W44846   2.577   6.179   0.076 -0.0915 -0.2720 -0.1032
28586W        W44847   4.004  11.621   5.639  0.0023 -0.3029  0.1784
28587W        W44848   3.130   5.300   0.887  0.0630 -0.0785 -0.1338
28588W        W44849   2.912   2.300   6.379  0.2299  0.0820  0.1155
28589W        W44850  13.085   0.805   1.586 -0.1488 -0.1726  0.1112
28590W        W44851   5.376  14.284   1.497  0.0135  0.1849 -0.1869
28591W        W44852   9.374   9.800  16.126 -0.0697  0.0702 -0.3461
28592W        W44853  17.156  15.795   3.507  0.0773 -0.0535 -0.2422
28593W        W44854  16.155   6.418  12.651  0.4120  0.1761  0.1110
28594W        W44855   5.004  11.325   3.892  0.1001  0.1888 -0.2501
28595W        W44856  13.318  11.926  16.469 -0.0249 -0.0783 -0.0348
28596W        W44857   7.047  16.163   0.319 -0.0348  0.0817 -0.0271
28597W        W44858  10.389  12.276   2.495  0.3594 -0.2590 -0.3548
28598W        W44859   6.575  14.942  16.493 -0.0797 -0.0063  0.0186
28599W        W44860  16.669  13.675  14.032 -0.2442 -0.1350  0.2413
28600W        W44861   0.399   6.938   1.019 -0.0340  0.0277  0.1858
28601W        W44862  13.833   9.933  15.931 -0.0339  0.0789 -0.0958
28602W        W44863  14.002  12.774   0.794 -0.0263  0.0440 -0.2602
28603W        W44864  16.002   5.571  16.304 -0.0693  0.1936  0.1185
28604W        W44865  15.056  10.204  15.412  0.2459  0.0852  0.1909
28605W        W44866   3.721  14.983   2.241  0.0335 -0.3113 -0.3574
28606W        W44867   6.912   7.653  16.248  0.0706  0.2345 -0.1644
28607W        W44868  11.170   5.820  15.043  0.0048 -0.0121  0.1025
28608W        W44869   9.842   6.485  12.975 -0.1098  0.0178  0.2221
28609W        W44870   4.447   2.242   3.605 -0.3379 -0.2183 -0.1033
28610W        W44871  17.462   7.677   3.435  0.1056  0.0345 -0.0582
28611W        W44872   2.109  17.813   4.612  0.2776  0.2951 -0.3316
28612W        W44873   7.899  14.190  14.551  0.0961  0.2933  0.2753
28613W        W44874   5.657   5.441   0.712 -0.6320 -0.2240  0.1321
28614W        W44875  12.116   5.094   0.608  0.1818 -0.1525  0.2223
28615W        W44876   8.941  15.228   2.438  0.1250  0.1235  0.0705
28616W        W44877   3.660  17.494  16.289  0.0763 -0.0541 -0.0441
28617W        W44878   9.490   5.684   0.886  0.0054  0.0897 -0.2944
28618W        W44879   6.652  11.787   1.245 -0.2979 -0.2141 -0.0404
28619W        W44880  13.191   4.141   0.291  0.0864  0.0351 -0.1129
28620W        W44881  17.621   9.262   4.404  0.0625  0.0932 -0.1616
28621W        W44882   3.743  17.115   0.357  0.1258  0.0939  0.0746
28622W        W44883   7.551   3.867   2.973  0.1290 -0.1263 -0.0071
28623W        W44884  11.074  12.416   5.980  0.1615 -0.1141  0.0782
28624W        W44885   1.224   0.095   0.637  0.6561  0.0880  0.3990
28625W        W44886  10.829   3.931  14.626  0.2032  0.2157 -0.0557
28626W        W44887  12.545   4.328  13.798 -0.0269  0.2380  0.2479
28627W        W44888  15.555  13.242  13.426  0.2681 -0.1508  0.0835
28628W        W44889  16.010   5.224   5.116 -0.0198 -0.0547 -0.1451
28629W        W44890  12.369  10.063  14.116  0.1531  0.0824  0.1597
28630W        W44891  14.209  16.701   5.541 -0.1073 -0.1190 -0.2802
28631W        W44892   4.296  15.588   0.908  0.0807 -0.1412  0.1522
28632W        W44893  10.175   0.878   5.778  0.0173  0.2064 -0.3280
28633W        W44894   6.710  14.821  14.733  0.2700 -0.0232  0.0363
28634W        W44895   0.467  10.631  11.819 -0.3225 -0.0444 -0.0670
28635W        W44896   6.812   4.301  16.974 -0.2071  0.2638  0.0354
28636W        W44897   4.650   6.927   5.566 -0.0991 -0.0193 -0.0064
28637W        W44898  10.709   7.090   1.325 -0.0100  0.1067  0.2039
28638W        W44899   1.220  12.847   2.469 -0.0264 -0.1438  0.1233
28639W        W44900   9.615   2.319  13.786  0.2695  0.0238  0.0456
28640W        W44901  11.624   5.672   0.557  0.2589  0.2582  0.1592
28641W        W44902   6.989   1.381  15.343 -0.0087 -0.0292  0.2107
28642W        W44903  14.764  17.636  13.553  0.0639  0.0895  0.3476
28643W        W44904  15.627   4.872  14.661 -0.0285  0.0171  0.3418
28644W        W44905   9.953   5.723  13.728  0.0831  0.1838  0.1563
28645W        W44906  10.439   2.041  12.425 -0.2233  0.1977  0.0491
28646W        W44907   0.793   6.601   2.653  0.1341 -0.1048  0.2077
28647W        W44908  12.840  16.630  13.803  0.0457  0.1676 -0.0893
28648W        W44909  17.847  17.304   0.237 -0.1210  0.2434  0.2557
28649W        W44910   1.080   2.720  14.176 -0.1082  0.0388 -0.0483
28650W        W44911  17.164   2.634   2.906 -0.1372 -0.2320 -0.0565
28651W        W44912   3.857  15.069  11.968  0.1599 -0.1825  0.1680
28652W        W44913  12.509   0.268  16.859 -0.1294 -0.0601 -0.1576
28653W        W44914   2.630   7.137   5.525  0.0748  0.2581  0.0317
28654W        W44915  13.733   7.513  14.615  0.1201  0.3460 -0.2544
28655W        W44916   5.601   3.503   6.077  0.0905  0.2864  0.0913
28656W        W44917  15.247   3.865   3.553  0.1708  0.1524 -0.3319
28657W        W44918   0.260  17.472  14.632 -0.0268  0.1513 -0.2539
28658W        W44919  13.762  15.598  16.755  0.0387 -0.1162  0.2469
28659W        W44920   9.280  14.999  14.801 -0.0587  0.0997  0.2042
28660W        W44921   8.788   2.670  12.658  0.0736  0.0116  0.0509
28661W        W44922   2.088   7.518  15.860 -0.2389 -0.1461  0.1629
28662W        W44923   5.324  11.538  16.883 -0.0737  0.2093 -0.0246
28663W        W44924  14.628   5.061   3.629  0.0528  0.0687 -0.2191
28664W        W44925   0.416   0.667  12.533  0.1437 -0.0703 -0.4581
28665W        W44926   2.221   4.709  16.320  0.2673 -0.2351  0.0782
28666W        W44927   2.142   4.996  15.271  0.1300 -0.0184 -0.0943
28667W        W44928   5.627  13.798  14.444  0.2899 -0.0186 -0.0003
28668W        W44929  15.526  14.745   2.758 -0.0987 -0.0529  0.2937
28669W        W44930  11.268   6.211   4.793 -0.1191  0.1477 -0.1930
28670W        W44931   8.099  10.452  12.970  0.1290  0.1020  0.0097
28671W        W44932   6.955   6.960   3.077  0.1511  0.4072  0.0621
28672W        W44933   3.943  16.987  13.735 -0.0702  0.0818 -0.0173
28673W        W44934   0.346   8.853  13.377  0.4038 -0.1023 -0.1746
28674W        W44935   2.438   4.066   6.062 -0.2173  0.0373 -0.3702
28675W        W44936  16.074   5.466   4.678  0.4605 -0.2600 -0.1957
28676W        W44937   5.360   3.543  16.138 -0.0476 -0.0541 -0.0659
28677W        W44938   1.071   1.673   0.788  0.0917  0.2172  0.4225
28678W        W44939   2.699   6.267   2.416  0.2787 -0.0185  0.2062
28679W        W44940   0.061   8.218   3.974  0.2539  0.1300  0.0073
28680W        W44941   1.797   8.421  12.756  0.1912 -0.0425  0.1820
28681W        W44942  14.321   0.222   1.314 -0.0088 -0.5358 -0.3749
28682W        W44943   6.214  12.977   1.391  0.1648  0.0419 -0.1399
28683W        W44944   1.507   2.209  15.486  0.0593 -0.1043 -0.1538
28684W        W44945   4.340   0.969  14.068 -0.3011 -0.2306  0.1364
28685W        W44946  11.660  17.174  13.841 -0.1620  0.1985  0.1244
28686W        W44947  10.302   2.566   2.093  0.0102  0.0236  0.1179
28687W        W44948  11.104  12.253   3.647 -0.2094  0.2951 -0.0445
28688W        W44949  12.657   2.761   4.941  0.1718 -0.1133 -0.1023
28689W        W44950  17.561  17.664   2.184  0.1380 -0.0157 -0.0420
28690W        W44951   8.875  15.108   1.970 -0.1867 -0.5513 -0.3027
28691W        W44952   3.654   9.196   3.483  0.2252  0.0219 -0.0029
28692W        W44953   6.175  17.299   1.785 -0.3320 -0.0789  0.0035
28693W        W44954  16.551   5.061   3.848  0.3577 -0.1031  0.3456
28694W        W44955   3.138   4.609   5.550  0.2925 -0.0979 -0.0767
28695W        W44956  17.667  15.067  12.072  0.1275 -0.1210 -0.4669
28696W        W44957  15.983   8.218   4.863  0.1217 -0.2285  0.0588
28697W        W44958  12.250   7.280   5.585 -0.1610 -0.2030 -0.0313
28698W        W44959  13.990   5.748  12.496  0.2082 -0.0020  0.1680
28699W        W44960  16.536  13.662   5.373  0.1345  0.0731  0.0351
28700W        W44961   3.279   4.172  16.959  0.0205  0.1429 -0.1619
28701W        W44962  10.578   0.536   4.942  0.0655  0.0792  0.0320
28702W        W44963  15.406   3.317  14.156  0.0501 -0.0993 -0.0521
28703W        W44964   2.457  16.872  16.823 -0.1696 -0.0995 -0.1200
28704W        W44965  11.917  10.198   0.777  0.1770 -0.2827  0.1373
28705W        W44966  13.993   8.916  11.685 -0.3352 -0.2775  0.1030
28706W        W44967  11.149   2.306   2.356  0.2908 -0.0601  0.1505
28707W        W44968  17.326  11.884  14.835  0.1514 -0.3944 -0.3460
28708W        W44969  13.216  15.927  15.872 -0.2306  0.0349 -0.1828
28709W        W44970  13.262   2.577   2.983 -0.0734 -0.6625 -0.1908
28710W        W44971  13.817  10.490   0.438 -0.3475 -0.1361 -0.2004
28711W        W44972  12.530   7.164   0.685 -0.0560  0.0568 -0.1652
28712W        W44973   0.575   8.656  15.544  0.0195 -0.0309  0.2856
28713W        W44974  14.509  14.259  16.725  0.0805  0.1483  0.3186
28714W        W44975  13.199   8.470   3.970  0.1172  0.0648 -0.2718
28715W        W44976  13.737   2.845  15.495 -0.5040 -0.2422  0.2179
28716W        W44977   7.597  12.713   5.915  0.2364 -0.1651 -0.0598
28717W        W44978  16.420  11.902   5.440 -0.0908  0.1304 -0.1882
28718W        W44979   1.983  12.588   1.524  0.3270  0.1734  0.0234
28719W        W44980   8.705   9.563  14.908  0.1763 -0.2744  0.0018
28720W        W44981   1.831   8.299   6.320 -0.0955 -0.0248 -0.2719
28721W        W44982   3.869  12.128   0.527 -0.3977  0.0910  0.0408
28722W        W44983   2.863   8.642   5.859 -0.1258  0.0140 -0.0387
28723W        W44984   3.949   5.088   4.080 -0.0603 -0.2526  0.0237
28724W        W44985   1.794   0.470   0.332  0.0639 -0.0537  0.0100
28725W        W44986  11.464  11.110   5.998  0.1270  0.2852  0.0683
28726W        W44987   1.027  11.078  12.251 -0.1984 -0.0596  0.0257
28727W        W44988  16.299  10.133   4.564 -0.3102 -0.2866  0.1865
28728W        W44989   0.694   4.482  11.702  0.1283 -0.2042 -0.1524
28729W        W44990  15.106   3.521  14.551  0.2689 -0.2053 -0.0725
28730W        W44991  10.903   6.390  12.135  0.0098  0.0251  0.0284
28731W        W44992  15.924   7.844  11.538  0.0278  0.3289  0.0691
28732W        W44993   4.392   2.834   5.779  0.2140  0.0997 -0.1539
28733W        W44994  14.797  15.866   0.402 -0.0154  0.0468  0.2377
28734W        W44995   6.594   7.059  15.917  0.1433 -0.2706 -0.2229
28735W        W44996   4.041   5.694  13.019 -0.0908 -0.1342  0.0650
28736W        W44997  12.910  15.059  16.148 -0.2006 -0.0431 -0.0858
28737W        W44998  12.294  13.189  16.931  0.1371  0.1798 -0.1678
28738W        W44999   0.958   8.870  12.361  0.2136  0.2266  0.0798
28739W        W45000   8.366  10.693   4.824 -0.0680  0.2031  0.0887
28740W        W45001  15.083   9.470   2.179 -0.2078  0.1735  0.0408
28741W        W45002  10.790   5.672  14.228  0.1108  0.4052  0.1708
28742W        W45003  15.656  11.847   0.034  0.1780  0.1227  0.1643
28743W        W45004  13.746   0.973   3.287 -0.0741 -0.3248  0.2025
28744W        W45005  15.078  12.346   3.595  0.3135 -0.1543  0.1641
28745W        W45006   1.366   3.625  14.255 -0.0567 -0.1630 -0.0596
28746W        W45007   1.243  10.768   2.523 -0.0621  0.0161  0.0014
28747W        W45008  15.907   8.022   3.071  0.0767 -0.0834  0.0476
28748W        W45009   0.337  16.379  15.799 -0.1087  0.1512 -0.1196
28749W        W45010   9.552  11.503  16.204  0.0625 -0.0184 -0.4893
28750W        W45011   3.118  15.730  12.237 -0.0832  0.1198 -0.0105
28751W        W45012   8.638   9.135  13.247 -0.2384 -0.0335 -0.0224
28752W        W45013   9.251   5.131  16.360  0.0606 -0.2175 -0.0807
28753W        W45014  14.938   9.165   0.826 -0.0358 -0.0698  0.2358
28754W        W45015   3.082   2.106   1.185  0.2888  0.2065 -0.1461
28755W        W45016  14.615   2.570   0.383 -0.2069  0.1114  0.5759
28756W        W45017  17.623  15.737   4.558  0.0959 -0.1445  0.0381
28757W        W45018  10.185   1.265   4.600  0.0607 -0.0636  0.1206
28758W        W45019   2.750  11.247  16.263 -0.1631 -0.2632 -0.0546
28759W        W45020   6.813   1.182   1.274 -0.2314 -0.1441  0.1622
28760W        W45021   6.214  12.013  13.169  0.0136  0.2967  0.2911
28761W        W45022   4.914   9.390  16.448  0.0677 -0.0602 -0.1603
28762W        W45023   8.305  11.388   1.127  0.1593  0.1473  0.0204
28763W        W45024   3.075   9.951   1.271 -0.0350  0.0918  0.0041
28764W        W45025   6.932  10.309   2.817  0.0876  0.1817 -0.1033
28765W        W45026  16.147   4.616  12.920 -0.1018  0.0347 -0.2018
28766W        W45027   2.216   7.064   4.648 -0.0568  0.1835 -0.1572
28767W        W45028   7.479   3.388   5.312 -0.0694 -0.0510 -0.0450
28768W        W45029   1.451  11.938   0.685 -0.1207 -0.0935  0.1519
28769W        W45030   8.865  11.208   1.042  0.0293 -0.1370  0.0799
28770W        W45031   8.744   6.084   0.419  0.1326  0.0813 -0.0981
28771W        W45032  11.355  14.076   3.219  0.1760 -0.0429  0.0317
28772W        W45033   0.520   5.328  13.616 -0.0120 -0.1858 -0.1897
28773W        W45034   8.693   5.800  12.959  0.2235 -0.1939 -0.1230
28774W        W45035  15.508   3.742   1.488 -0.2151  0.3002  0.2387
28775W        W45036  16.696  15.305  12.668  0.0047  0.0659  0.2477
28776W        W45037   1.602  15.519   4.018 -0.1445  0.2410  0.1879
28777W        W45038   3.154  16.011   1.892  0.0241 -0.0042  0.0802
28778W        W45039   6.003  15.027   3.225 -0.1104 -0.1051 -0.0411
28779W        W45040   2.758  14.105   0.313  0.0504  0.0042  0.0439
28780W        W45041  12.661   1.282   4.926  0.0299 -0.0158  0.2403
28781W        W45042   7.916  13.867  14.041 -0.0792 -0.1240  0.1236
28782W        W45043  17.458  16.421  16.476 -0.2257 -0.0059  0.1099
28783W        W45044  14.674   0.238  15.010 -0.0118  0.0165 -0.0796
28784W        W45045   3.620   3.439   2.440  0.5183  0.1533 -0.3504
28785W        W45046  15.366   0.410  14.819 -0.3295 -0.0799  0.0374
28786W        W45047  17.663   1.241   1.368  0.0108 -0.0270  0.1680
28787W        W45048   8.810   6.959   1.867 -0.0673 -0.2106 -0.1392
28788W        W45049  16.063  10.023   0.679  0.1607 -0.0459  0.1442
28789W        W45050   8.011  16.227  16.749 -0.1833  0.0958  0.1966
28790W        W45051  11.251   7.448   2.410 -0.0417  0.0241  0.0104
28791W        W45052   5.615   3.429  11.860  0.0571 -0.0707 -0.2342
28792W        W45053   7.181   7.606  12.078 -0.0733 -0.0406 -0.3485
28793W        W45054   3.094   2.155   1.712  0.0799  0.0997  0.2982
28794W        W45055  17.475   8.725  15.343  0.0007 -0.1090 -0.0230
28795W        W45056  15.419  11.837  12.233 -0.0960  0.0806 -0.0155
28796W        W45057   7.575   3.327   3.079  0.0991 -0.1526  0.0576
28797W        W45058  16.071  15.600   0.225 -0.0238  0.0489 -0.1838
28798W        W45059  15.142  17.410   4.932  0.1773 -0.0262 -0.3288
28799W        W45060   6.235  17.006   0.965  0.2872  0.1129 -0.0224
28800W        W45061  12.311   2.815  12.126  0.0107  0.1210 -0.0928
28801W        W45062  16.366  17.225   0.394 -0.0519 -0.1278 -0.2748
28802W        W45063  12.936   6.157  15.434  0.0888  0.0517 -0.1000
28803W        W45064   0.916   0.179  11.730 -0.0198  0.3612  0.0771
28804W        W45065   2.057   1.219  13.219 -0.0968 -0.3998  0.0281
28805W        W45066   9.493  15.153  15.971  0.1114 -0.1526  0.2195
28806W        W45067  11.828   8.487  15.387 -0.2743  0.2629  0.2165
28807W        W45068  12.760   8.465   3.599 -0.0795  0.1597  0.1468
28808W        W45069  16.319  15.531  12.384  0.1407  0.0966  0.0378
28809W        W45070  10.840   0.135   4.082 -0.0777 -0.3622 -0.0325
28810W        W45071   6.647   0.396   2.432  0.0518 -0.1758 -0.1330
28811W        W45072   9.855  16.691   0.698 -0.1168  0.2051  0.1576
28812W        W45073   3.720  17.669   3.580  0.1492  0.1024 -0.0409
28813W        W45074   2.307   4.810  13.341 -0.0221 -0.2627 -0.2505
28814W        W45075  14.232  16.175  13.503  0.3527  0.1698 -0.0823
28815W        W45076  13.427   6.005   5.862 -0.0207  0.1842  0.1132
28816W        W45077   3.174  10.085  14.397  0.1904 -0.1706 -0.1532
28817W        W45078  16.976  12.724   3.208 -0.0098  0.1275 -0.3209
28818W        W45079   1.602   2.387   1.498  0.3397 -0.1529 -0.0119
28819W        W45080  16.081   3.155  16.965  0.2610 -0.1031  0.1279
28820W        W45081  12.082   3.122   4.976 -0.0444  0.2339 -0.2672
28821W        W45082   5.118   9.543  11.945  0.2238 -0.0095  0.5811
28822W        W45083   3.107   6.003  12.225  0.0920  0.1055 -0.2761
28823W        W45084  12.042   5.682  16.013  0.0554 -0.2812  0.0739
28824W        W45085  17.357   8.074   5.520 -0.1067 -0.2170  0.2848
28825W        W45086  12.924   2.835   3.530 -0.2060  0.2087  0.2189
28826W        W45087   5.998  13.983   5.351 -0.2436 -0.0914  0.0854
28827W        W45088   5.514   2.415  12.557 -0.0126  0.4430  0.0733
28828W        W45089   7.211   4.216  13.607 -0.1356 -0.0989  0.0401
28829W        W45090  14.362   9.653   0.176  0.2556 -0.1545  0.0965
28830W        W45091  12.297   3.995   0.699  0.0538  0.0511  0.0870
28831W        W45092   9.271   4.800  14.423  0.0315 -0.2397 -0.0671
28832W        W45093   4.089  11.455   2.452  0.1432  0.0030 -0.2519
28833W        W45094   3.337   3.803   5.255  0.0213  0.1875 -0.1440
28834W        W45095  13.321   0.786   5.460  0.3762 -0.0884  0.0511
28835W        W45096   4.599  16.406  13.523 -0.1284  0.2887 -0.0022
28836W        W45097  15.567  14.620   1.861 -0.3303  0.1640  0.2872
28837W        W45098   2.725   5.970   3.271 -0.6587  0.1584  0.3332
28838W        W45099  14.517   2.072  13.176 -0.1686 -0.1363  0.1012
28839W        W45100   9.870  17.287   4.746 -0.0592 -0.1285 -0.1298
28840W        W45101   1.872   9.152  16.259  0.4576 -0.0716 -0.1108
28841W        W45102   6.101  11.380   4.883 -0.2726  0.2938  0.2748
28842W        W45103  15.264  13.503  13.866  0.1699  0.0344  0.0857
28843W        W45104   7.231  16.099  16.400 -0.3261  0.0041 -0.0597
28844W        W45105   1.060  12.508   1.697  0.0959  0.1073  0.0717
28845W        W45106  15.976   9.295  15.014 -0.0141  0.0611  0.0365
28846W        W45107  11.479  12.212   5.247 -0.1888 -0.0617 -0.3169
28847W        W45108   9.973  15.790   3.121 -0.0435 -0.0129 -0.2845
28848W        W45109   6.160  14.891  11.994 -0.4086 -0.0362  0.3267
28849W        W45110  11.908   6.045  13.606  0.0578 -0.1483 -0.0881
28850W        W45111   3.456   9.285  16.839 -0.2600 -0.0318  0.2084
28851W        W45112  16.501   3.969  13.725 -0.1356  0.0462  0.1233
28852W        W45113  16.740   2.719   4.329 -0.0242  0.0297  0.0257
28853W        W45114   3.881  14.379   0.809 -0.0809  0.1937 -0.1006
28854W        W45115  13.163  16.875   3.716  0.1138  0.2235 -0.1316
28855W        W45116   8.677  17.250  14.851  0.2146  0.1056 -0.0283
28856W        W45117   0.196  11.481  13.438 -0.0703 -0.2573  0.1925
28857W        W45118   2.160   0.597   5.515  0.1861 -0.0780 -0.1349
28858W        W45119  11.880  17.695  16.379 -0.0600  0.1798 -0.0051
28859W        W45120  14.934   3.027  16.258  0.2070  0.1639 -0.1651
28860W        W45121  10.127   5.687  12.572 -0.0189  0.0960  0.0162
28861W        W45122  13.415  11.339  11.810 -0.1071 -0.1318  0.0520
28862W        W45123  10.557   3.902   0.755 -0.4282  0.0496  0.0206
28863W        W45124   5.834   3.945   0.893 -0.1754  0.1343 -0.0147
28864W        W45125  14.072  10.923   0.840 -0.2831  0.1129  0.1650
28865W        W45126  12.889   6.169  13.882 -0.2864  0.1207  0.1346
28866W        W45127   0.110   9.413   0.366  0.1107  0.0213  0.0204
28867W        W45128   9.575  16.378   4.716  0.2446 -0.3150  0.1506
28868W        W45129  16.534  11.770   2.475  0.0247 -0.1601 -0.0319
28869W        W45130  10.485   4.498  15.038 -0.2022  0.2376  0.1518
28870W        W45131  12.858  13.308  14.895 -0.2534 -0.4008 -0.1260
28871W        W45132  16.487   1.709   0.025  0.0697 -0.2718 -0.1932
28872W        W45133   9.218   4.855   3.827 -0.2173  0.2539  0.0801
28873W        W45134  11.754  17.431   6.290  0.0429 -0.2138  0.1969
28874W        W45135   2.928   7.929  15.881 -0.0037 -0.2113 -0.0700
28875W        W45136  15.248  13.989   1.323 -0.4746 -0.1473  0.1566
28876W        W45137   9.642  13.536   5.776  0.1700 -0.1414  0.2277
28877W        W45138  11.493   1.085  16.360 -0.1693 -0.2036 -0.3308
28878W        W45139   7.508  17.653   5.193 -0.0485  0.1579  0.1285
28879W        W45140  17.191   8.484   0.162  0.0787  0.0909  0.1822
28880W        W45141  14.917   8.037   4.958 -0.1425 -0.0429 -0.2316
28881W        W45142   3.906   8.800  13.183 -0.1264  0.1632 -0.3540
28882W        W45143  12.186   3.876   2.442  0.0679  0.0285  0.1120
28883W        W45144  10.763   0.803  13.919  0.2213  0.0473  0.0527
28884W        W45145   9.838   0.892  14.212 -0.1114  0.4482 -0.3406
28885W        W45146  14.982  17.030  16.829  0.0042  0.0074 -0.0291
28886W        W45147   6.999  11.550   3.536  0.1130 -0.0742 -0.2676
28887W        W45148   2.003  11.335   5.480 -0.1759 -0.0546 -0.0182
28888W        W45149  15.428  15.942   2.085  0.1655  0.3211  0.0508
28889W        W45150  13.465   3.340   5.643  0.0267  0.1353  0.0605
28890W        W45151   7.378  17.264  12.191  0.2524 -0.0686 -0.0561
28891W        W45152   9.699  14.557   3.968 -0.1482  0.0695  0.5535
28892W        W45153  11.943   9.072   3.511 -0.2171  0.1830  0.1069
28893W        W45154  12.825   2.444  14.425  0.2419  0.0267 -0.1896
28894W        W45155   1.168   2.815   0.772  0.2151 -0.1271 -0.0477
28895W        W45156   3.692   5.075   4.898 -0.1043  0.2118 -0.0442
28896W        W45157   9.028   8.197  15.719 -0.2060  0.0161  0.4357
28897W        W45158  17.240  17.708   5.563  0.0462 -0.0519 -0.2966
28898W        W45159   0.574  11.068   3.230 -0.1336 -0.2245 -0.0511
28899W        W45160  16.585   1.862   5.349 -0.0920 -0.0995 -0.1060
28900W        W45161   2.996   1.294   0.110  0.1450 -0.0941  0.1107
28901W        W45162  13.871   8.712  12.135  0.1002  0.2420 -0.0245
28902W        W45163  10.751  13.842  16.628  0.0658  0.0868 -0.1091
28903W        W45164   4.982   0.348  11.449  0.1509 -0.1224 -0.3730
28904W        W45165   4.549   9.500   1.778 -0.1652  0.2441  0.2350
28905W        W45166   5.622   8.621   1.919 -0.2222  0.0456  0.0369
28906W        W45167   5.056   6.465  12.231  0.0434 -0.2092 -0.0653
28907W        W45168  14.939  10.576  16.974  0.0638  0.1929 -0.0238
28908W        W45169  15.312   4.274   3.093 -0.1190 -0.2124  0.2122
28909W        W45170   0.563   2.921   4.055 -0.0731 -0.1900  0.2142
28910W        W45171   4.323   3.751   1.034  0.0768 -0.0659 -0.0289
28911W        W45172  13.905  14.759  15.366 -0.2090  0.2146  0.1955
28912W        W45173  17.830   7.383   2.331 -0.0851  0.1830  0.1427
28913W        W45174   8.134  11.866   0.751  0.0728 -0.0878  0.1540
28914W        W45175  14.665   3.493  13.497  0.0846 -0.2078 -0.0797
28915W        W45176   0.728  12.881   3.980  0.2680  0.0134  0.1814
28916W        W45177   6.505  11.218   5.712  0.2188 -0.0615  0.2281
28917W        W45178   1.601   8.200   4.014 -0.2986 -0.1423 -0.0611
28918W        W45179  12.265   2.807   5.294  0.3213  0.2962 -0.1384
28919W        W45180   6.732   5.074  11.607  0.1558  0.1172  0.0879
28920W        W45181   3.669   3.354   0.442  0.1811 -0.3006  0.3017
28921W        W45182   9.028   3.747   3.116 -0.1532 -0.0054 -0.0164
28922W        W45183   1.995  12.234   2.436 -0.1549 -0.1767  0.0661
28923W        W45184   7.549   9.212  12.113 -0.1691  0.0544 -0.1747
28924W        W45185  10.936   7.926  14.451  0.1240  0.2666 -0.1170
28925W        W45186   1.285  13.577   5.430 -0.1190 -0.0368  0.2295
28926W        W45187   0.968  12.372   5.432 -0.0881  0.0840 -0.2432
28927W        W45188   8.304  11.809  13.528  0.3195  0.1596  0.0566
28928W        W45189   6.486   2.097   4.062 -0.0048  0.0217  0.0726
28929W        W45190  10.760   2.914  12.803  0.0322 -0.0218 -0.1739
28930W        W45191   2.563   7.705  16.102 -0.0966 -0.1874  0.2108
28931W        W45192  11.251   6.643   2.006 -0.0290 -0.1103  0.2775
28932W        W45193   1.036  13.767   3.600 -0.0164  0.0716 -0.0666
28933W        W45194  16.414   8.084   1.389  0.0527 -0.2917 -0.2373
28934W        W45195   0.666   7.869   2.936 -0.1007  0.3909 -0.0527
28935W        W45196   7.489   3.257   2.535  0.0189  0.3290  0.3180
28936W        W45197   6.742  16.166   3.956  0.0541 -0.4666  0.0587
28937W        W45198   8.075   1.940  13.269 -0.0007 -0.1233 -0.0092
28938W        W45199   0.221  15.425  14.671 -0.3826  0.0466 -0.0268
28939W        W45200  10.667  14.433  14.471  0.0131 -0.0784  0.0833
28940W        W45201   9.941   6.051  11.629  0.2210 -0.0783  0.0993
28941W        W45202   4.147   0.947  12.268 -0.0104  0.0072  0.2032
28942W        W45203  13.194  12.706  11.692 -0.0352  0.0059 -0.0383
28943W        W45204  13.119   1.504   4.722 -0.1462  0.0014  0.2089
28944W        W45205   3.802  17.359  12.776 -0.0459  0.0744  0.1163
28945W        W45206   5.924  17.245   0.621 -0.0949  0.2582  0.1554
28946W        W45207  16.479  17.496  14.686  0.0464 -0.0997 -0.4148
28947W        W45208  11.692   5.938   3.160  0.0830 -0.1856  0.0862
28948W        W45209  14.121  14.558  13.553 -0.2185  0.0110 -0.0955
28949W        W45210  17.233   4.446   4.990 -0.1426 -0.1190 -0.0398
28950W        W45211   4.250  13.620  14.048 -0.0171  0.2436  0.0621
28951W        W45212   6.062   0.363  12.251 -0.2213  0.3799 -0.2763
28952W        W45213  14.706  11.529   0.429 -0.1726 -0.0657 -0.2731
28953W        W45214   4.526  17.655   1.531 -0.0911  0.1853  0.0718
28954W        W45215  15.863  16.256  11.961 -0.0794  0.3515 -0.3178
28955W        W45216  12.504  16.870   2.451  0.1027  0.1550 -0.0156
28956W        W45217  15.081   3.588   1.239 -0.1572  0.0916  0.0391
28957W        W45218  16.567   2.238   1.654  0.4372 -0.1040  0.0008
28958W        W45219   5.311  10.184  15.794 -0.0459  0.1111 -0.0022
28959W        W45220   9.244   4.850   2.825 -0.4094  0.0158  0.0929
28960W        W45221   7.894   9.711  14.258 -0.2738  0.1961 -0.0453
28961W        W45222   3.682  17.560  11.698  0.1902  0.0299 -0.0554
28962W        W45223  11.970   6.405  13.151  0.1751 -0.0393  0.1436
28963W        W45224   9.248  12.250  11.304  0.2144 -0.1181 -0.1050
28964W        W45225   0.733   9.132   4.040 -0.0135  0.0606 -0.0815
28965W        W45226  10.442  10.131   1.371 -0.2847  0.0310  0.0805
28966W        W45227   7.719  11.104   4.383  0.2493  0.3252 -0.0799
28967W        W45228   8.103   8.291   1.373  0.0848  0.1838 -0.0128
28968W        W45229   3.489  14.181   4.412  0.2478 -0.1597 -0.1248
28969W        W45230  13.241  15.672  13.539 -0.3187 -0.0837 -0.1117
28970W        W45231  11.683   1.792   1.049  0.3220  0.0287  0.3522
28971W        W45232  17.375   9.793  15.290  0.0117  0.3287  0.0660
28972W        W45233   3.916   3.479  14.795  0.0201 -0.0176  0.1255
28973W        W45234   2.566   4.140  13.662 -0.2382 -0.2461 -0.1084
28974W        W45235  13.356  11.922   4.756  0.0697 -0.0841 -0.2323
28975W        W45236  11.404  16.546  16.038  0.0927 -0.0748 -0.4393
28976W        W45237   7.472   2.921  15.403 -0.0582  0.2508  0.0312
28977W        W45238   8.748   1.580  16.293  0.0407  0.0497 -0.2295
28978W        W45239   1.711   9.289  15.295 -0.0224 -0.2719  0.1277
28979W        W45240  13.149   2.251  14.777 -0.0939  0.0886 -0.1788
28980W        W45241   0.370  13.751   2.941 -0.0180  0.1054 -0.1433
28981W        W45242   2.621   2.012   0.384 -0.0059 -0.2028 -0.0341
28982W        W45243   5.175   4.268   0.377  0.2828 -0.0925  0.0620
28983W        W45244   0.552  14.505   0.556 -0.2912  0.1292 -0.3274
28984W        W45245  11.931   6.506   1.413 -0.0294  0.3318  0.0332
28985W        W45246  13.530   6.975  16.942  0.0781  0.0366 -0.1791
28986W        W45247   6.559   4.690  15.462  0.0060 -0.0785  0.1523
28987W        W45248   4.509  16.312  15.590  0.1208  0.3463 -0.2471
28988W        W45249   8.908   9.624  16.314 -0.0379  0.1016 -0.0925
28989W        W45250  17.723  11.863  15.433 -0.0058  0.1802 -0.1628
28990W        W45251   3.022  17.856   4.711  0.1662 -0.2351 -0.0891
28991W        W45252  12.619   5.142   1.624 -0.0025 -0.1099 -0.0208
28992W        W45253  15.017  16.653  16.091 -0.0129  0.0690  0.0468
28993W        W45254   5.049  17.247   0.909  0.1025  0.0588  0.1642
28994W        W45255  14.848  16.050   2.183 -0.0819  0.2565  0.0904
28995W        W45256   4.311   2.129   5.940  0.2958  0.2271  0.2164
28996W        W45257   1.073   2.827   3.806 -0.1301 -0.1364 -0.0262
28997W        W45258   2.355  12.028  13.780  0.1501  0.1374  0.3096
28998W        W45259   0.672   7.618  13.157 -0.0584 -0.2411 -0.0908
28999W        W45260  11.014   0.957  12.792 -0.0296  0.1638  0.2141
29000W        W45261  16.415  15.448  11.895  0.0245  0.0620 -0.0281
29001W        W45262   3.870   7.134  16.224 -0.1469 -0.0556 -0.1046
29002W        W45263   4.614   8.058  11.665  0.1695  0.0210 -0.0683
29003W        W45264  15.156  13.000  12.339 -0.1550 -0.3033 -0.1678
29004W        W45265   9.836   3.934   3.645 -0.4804  0.2306  0.1273
29005W        W45266  12.872   6.428   1.145  0.1962  0.1817  0.0475
29006W        W45267  11.005  15.072   3.532 -0.4217 -0.0601  0.0888
29007W        W45268   1.492   2.815   4.147  0.2818  0.1507  0.2206
29008W        W45269   0.086  10.837  13.446  0.2767 -0.1577 -0.3166
29009W        W45270   5.007   7.147  15.868  0.2571 -0.4921 -0.4681
29010W        W45271   2.191   7.443  16.367 -0.1121  0.1094 -0.0521
29011W        W45272   7.612   2.463  15.577  0.0780  0.0517 -0.0500
29012W        W45273  14.201  15.328  15.786  0.0125 -0.0819  0.1427
29013W        W45274  15.433  16.470   4.198  0.2489 -0.0587  0.0620
29014W        W45275  10.884   5.931   5.037  0.0909  0.2450 -0.3006
29015W        W45276  11.963   1.519   6.227  0.1779 -0.2043 -0.0095
29016W        W45277   7.358   9.868   2.615 -0.0937 -0.1581  0.1879
29017W        W45278  11.396  16.036  13.228 -0.0552 -0.1223 -0.1204
29018W        W45279   5.792   3.268   0.108  0.0345  0.0556 -0.0153
29019W        W45280  16.909   8.505   1.547  0.0316 -0.1388 -0.2550
29020W        W45281  12.299  12.699   1.969 -0.2827 -0.1390 -0.1711
29021W        W45282   8.135   1.127   3.285 -0.0174 -0.0359 -0.0850
29022W        W45283   4.650  15.241  15.297 -0.0124  0.0530 -0.1235
29023W        W45284  14.455  17.692   0.436 -0.2681 -0.1476 -0.0856
29024W        W45285  13.268  16.436  15.989 -0.1525  0.0416 -0.1353
29025W        W45286   8.255  12.747   1.862  0.1257  0.1743 -0.4328
29026W        W45287   5.566   5.671   4.493  0.0027  0.0099  0.1682
29027W        W45288  13.457   5.712  11.368 -0.3866  0.1290  0.0544
29028W        W45289   2.407  15.165   4.245  0.2279  0.2604  0.1684
29029W        W45290  12.689  11.090  13.340  0.1101  0.1712  0.1744
29030W        W45291   5.792  15.345  11.260 -0.0163 -0.2758 -0.1410
29031W        W45292   3.116   1.827  15.709  0.3015 -0.3137  0.2044
29032W        W45293   3.359   1.304   0.914 -0.1424 -0.1269 -0.3928
29033W        W45294  15.222   3.805   0.244  0.2094 -0.1089  0.1030
29034W        W45295  12.009  12.571  16.508 -0.0089 -0.1304 -0.2789
29035W        W45296   8.114  15.279   5.948 -0.3123 -0.3403  0.0195
29036W        W45297  10.409  10.185  12.215 -0.0627  0.0576 -0.0445
29037W        W45298   6.548   8.388  15.283 -0.0766 -0.3453  0.1219
29038W        W45299   4.393  17.285  14.530  0.2802 -0.3551  0.1566
29039W        W45300   2.646   3.091   6.034 -0.0456  0.1156  0.1936
29040W        W45301   2.215  11.398  16.657  0.1764 -0.0516  0.0964
29041W        W45302  14.662   3.152   2.564  0.1175  0.3673  0.0882
29042W        W45303  15.284  17.729   3.307 -0.1053 -0.0391  0.4153
29043W        W45304  14.067  14.397  12.167 -0.1159  0.2603 -0.0911
29044W        W45305  11.010  13.265   6.378  0.0394  0.1126  0.3764
29045W        W45306   5.536  12.154   0.440 -0.3107 -0.0287  0.0254
29046W        W45307   2.135  10.399   2.400 -0.2396 -0.1449  0.2257
29047W        W45308   9.298  10.666  10.343  0.1807 -0.2070  0.0432
29048W        W45309   1.562   6.081  13.081 -0.0375  0.0931  0.2980
29049W        W45310   5.512   7.435   1.586  0.2647 -0.0467 -0.1308
29050W        W45311   4.750   7.028   1.185 -0.1497 -0.1032 -0.0419
29051W        W45312   3.142   8.328  11.816  0.0231  0.0120 -0.1134
29052W        W45313  11.662  10.713   1.239 -0.0322 -0.1297 -0.0850
29053W        W45314  17.598   9.419   3.477  0.3166  0.0704 -0.0568
29054W        W45315   4.224  10.585   2.923 -0.1335 -0.0037 -0.0618
29055W        W45316   7.506  13.973   3.947 -0.1605  0.1795  0.1609
29056W        W45317   1.008  11.707  12.995  0.0008  0.0468 -0.4597
29057W        W45318  10.229   0.752   3.629 -0.2964 -0.0324  0.0469
29058W        W45319  16.932   3.402   1.361  0.0981  0.1408 -0.0626
29059W        W45320  15.874  15.386  15.412  0.1200 -0.0780 -0.0558
29060W        W45321   5.654   9.148   2.536 -0.1697 -0.0501  0.1281
29061W        W45322   3.949  12.830  14.364  0.0407  0.1198 -0.1667
29062W        W45323  10.725  15.246  14.216  0.1061  0.0535 -0.0586
29063W        W45324   0.153  13.657  14.334 -0.1301 -0.0396  0.1003
29064W        W45325  17.689  17.651  15.585  0.2749 -0.1282  0.1513
29065W        W45326   0.400  16.285   1.720  0.0757 -0.2374 -0.0959
29066W        W45327   8.544   3.789   0.746  0.0035 -0.0963  0.1276
29067W        W45328  11.008   6.761   4.853  0.0266 -0.1690  0.0345
29068W        W45329   9.837  12.527   1.652  0.0116  0.0928 -0.2069
29069W        W45330  14.763  10.267   1.507 -0.2089 -0.1268 -0.0600
29070W        W45331  12.042  11.400   3.142  0.1758  0.2038  0.1773
29071W        W45332   7.416   9.551  13.456 -0.0698  0.1360  0.0710
29072W        W45333  12.848  12.987  11.963  0.2040  0.1511 -0.0098
29073W        W45334   4.962  15.365   5.151 -0.0595  0.1176  0.1594
29074W        W45335   4.618   0.344   3.725 -0.3318 -0.0916 -0.1561
29075W        W45336   8.521   8.632  14.519  0.0145  0.2732 -0.0314
29076W        W45337  15.800   4.487  11.724  0.2061 -0.1243 -0.0815
29077W        W45338   9.679   4.409   5.411  0.1833 -0.2054 -0.1950
29078W        W45339   6.209   8.716  16.883  0.1054 -0.3006  0.2862
29079W        W45340  13.109  11.877  12.981  0.1313 -0.1175 -0.1751
29080W        W45341  15.621   6.387  12.621 -0.1903 -0.2674 -0.2044
29081W        W45342  10.975  14.315  16.488 -0.3563  0.2322 -0.1742
29082W        W45343   8.575  16.358  14.674 -0.4183  0.3020  0.3039
29083W        W45344   7.648   6.678   0.421 -0.2603  0.0678  0.0841
29084W        W45345  13.523   1.455   0.246  0.0054 -0.1351  0.0350
29085W        W45346   7.815   4.280   2.798  0.0870  0.0726 -0.2213
29086W        W45347  14.183  13.519  16.942  0.0574 -0.1636  0.1046
29087W        W45348   9.993   6.800   4.149  0.0364  0.2290 -0.1161
29088W        W45349   8.355   0.499   1.779 -0.0929  0.1305 -0.3714
29089W        W45350  14.867  14.929  13.033  0.0717  0.2407 -0.1996
29090W        W45351   1.410   1.299   0.704 -0.3340  0.0058 -0.1618
29091W        W45352   6.286   5.740  11.784  0.1597  0.2011  0.0382
29092W        W45353   3.740   1.253   2.143  0.1118 -0.2859  0.0936
29093W        W45354   8.706  15.911   5.381 -0.0126  0.0025 -0.0894
29094W        W45355  14.309  10.094  16.097  0.0089  0.2385  0.0618
29095W        W45356   6.458   9.022   6.264  0.5520 -0.0562 -0.1013
29096W        W45357   7.843  17.037   5.965  0.2902  0.1155 -0.0588
29097W        W45358   3.634   8.344  14.991  0.0546 -0.2169  0.2481
29098W        W45359   7.315   7.543   5.036 -0.1028  0.0206  0.0213
29099W        W45360   5.521   6.625  14.121 -0.0165 -0.3191  0.2631
29100W        W45361   0.393   1.692   4.082  0.2800 -0.1025 -0.3767
29101W        W45362   3.129  15.636   2.233 -0.0418 -0.1372 -0.0772
29102W        W45363  17.081   1.004  14.389  0.3254 -0.3971  0.1370
29103W        W45364  13.412   2.110  10.507 -0.1903 -0.1840  0.1583
29104W        W45365   2.587   0.644   5.289 -0.1951  0.0188 -0.1021
29105W        W45366  11.761  15.430   3.082  0.0422 -0.0192  0.1712
29106W        W45367  15.191   6.618  16.344 -0.1477 -0.0006  0.0435
29107W        W45368   3.121   6.420   5.526 -0.1630  0.1242  0.2393
29108W        W45369  16.729  12.944  16.791  0.0945 -0.2461  0.0687
29109W        W45370  12.859   1.709  13.324 -0.0195  0.0178  0.0844
29110W        W45371   7.635  12.766   0.247  0.0885 -0.2254  0.2891
29111W        W45372  14.741  15.609  14.732 -0.2886  0.0144  0.0746
29112W        W45373  14.710  12.274   2.313  0.0360 -0.0005 -0.0500
29113W        W45374  10.184   3.720   1.046  0.2078  0.1638  0.0619
29114W        W45375   7.778  11.979   1.960 -0.1057 -0.0207 -0.0635
29115W        W45376   4.959  15.629  16.838 -0.0823 -0.2031  0.0220
29116W        W45377  13.397  15.753  16.365 -0.1109 -0.0484  0.0170
29117W        W45378   1.606   5.936   3.983  0.3156 -0.1796 -0.0019
29118W        W45379   8.321   7.960   1.050  0.4103 -0.0515 -0.0967
29119W        W45380   9.023   1.752  14.338 -0.0160 -0.2367  0.3928
29120W        W45381   7.259  16.534  16.116  0.3410 -0.0728  0.0118
29121W        W45382  10.308   7.435  16.360  0.2418  0.0677 -0.0486
29122W        W45383  12.756   2.426  16.945 -0.1430 -0.2670 -0.2549
29123W        W45384  15.178   2.980  13.095 -0.2749 -0.1193 -0.2705
29124W        W45385   3.024  10.419  15.698 -0.0493  0.2971 -0.1806
29125W        W45386  11.630  14.270   4.572  0.0513  0.3137 -0.3758
29126W        W45387   3.392   7.805  16.000  0.2160  0.0561 -0.1691
29127W        W45388   2.110  13.030  13.687  0.6255  0.1488 -0.4293
29128W        W45389   5.056   6.138   1.042  0.1780 -0.2108 -0.1753
29129W        W45390   0.114  17.198   0.708  0.1010  0.2018 -0.2195
29130W        W45391  17.001  16.597  16.264  0.1398  0.4468 -0.3224
29131W        W45392   1.393  15.880  11.897 -0.2800  0.2582  0.1319
29132W        W45393   8.872   4.547   4.969 -0.0440 -0.2931 -0.0608
29133W        W45394   8.739   1.561  15.324 -0.0626  0.2165  0.2082
29134W        W45395  14.261  16.811   0.673  0.1794  0.2452  0.3357
29135W        W45396   9.719  14.570   1.125 -0.1036  0.0796  0.2353
29136W        W45397   1.959   6.441  13.045  0.1110 -0.1428  0.0359
29137W        W45398  11.227  13.635  12.968  0.1275  0.2168  0.2498
29138W        W45399   4.502   9.451  14.257 -0.1400  0.2544  0.3590
29139W        W45400   3.305   2.051  13.075 -0.4705  0.2184  0.1635
29140W        W45401   8.552   8.302  15.591  0.0829 -0.0005  0.0279
29141W        W45402   0.515   0.223   0.175  0.2165 -0.2100 -0.1418
29142W        W45403  10.082  15.387   4.525 -0.2255  0.0312 -0.1447
29143W        W45404  11.063  15.800  13.497 -0.0655 -0.1115  0.1169
29144W        W45405   6.151  14.019   1.231 -0.2728 -0.1351  0.1478
29145W        W45406   2.908   7.004   3.455 -0.1409 -0.1515 -0.0482
29146W        W45407  13.162   9.902  12.614 -0.1980  0.2015  0.0650
29147W        W45408  15.375   9.339   5.084 -0.0668 -0.0318  0.0129
29148W        W45409   3.949   4.136  12.380  0.1596 -0.0992 -0.1227
29149W        W45410  12.241   5.141   3.903 -0.3893  0.1249  0.1346
29150W        W45411  15.371  14.709  15.279 -0.2795  0.0282 -0.2637
29151W        W45412  15.981  15.312  13.478 -0.2363  0.2228  0.1406
29152W        W45413  16.181   2.946  12.932  0.1112  0.0311 -0.0847
29153W        W45414  14.280   1.199   2.477  0.0702  0.3463  0.0182
29154W        W45415  17.291   3.428  14.668  0.2091 -0.4804  0.0968
29155W        W45416  12.716  17.506   1.291  0.0499  0.1274 -0.3596
29156W        W45417   6.659  14.658  12.496  0.0535 -0.5642 -0.1541
29157W        W45418  17.213  15.237  14.025 -0.0480 -0.1726  0.0532
29158W        W45419   9.373  15.754  15.649 -0.2000  0.0016  0.1543
29159W        W45420   1.450   4.157  14.894 -0.4528 -0.0561 -0.0230
29160W        W45421   2.378   2.984  13.128  0.3099 -0.0508 -0.0745
29161W        W45422   7.333   0.324  13.728  0.1460 -0.0219 -0.1245
29162W        W45423  12.409  13.717  16.969 -0.1691  0.0297  0.0731
29163W        W45424  16.083   2.664   6.060  0.0383 -0.1452  0.1292
29164W        W45425   2.508   9.252   1.577  0.0900 -0.1024 -0.1373
29165W        W45426  14.312   6.602  12.791  0.0673  0.1817 -0.0438
29166W        W45427   2.563   7.759   0.203 -0.2964 -0.0537  0.0096
29167W        W45428  15.225  16.463   2.734 -0.0577 -0.0092 -0.1240
29168W        W45429   6.372   6.439   2.064  0.2049 -0.3267 -0.2158
29169W        W45430  14.852  11.971   4.671  0.1460  0.0474 -0.0322
29170W        W45431  13.875  13.281   1.972  0.2739  0.2439  0.1077
29171W        W45432   2.748  14.866   5.010 -0.0501  0.1429 -0.4729
29172W        W45433   8.019   5.118   2.292 -0.0630 -0.0297  0.0745
29173W        W45434  15.152  10.799   3.613  0.2669 -0.1208  0.1121
29174W        W45435   5.076   2.668   5.871 -0.2101 -0.2921 -0.1557
29175W        W45436   6.460  17.501   4.753 -0.0356  0.2289  0.0297
29176W        W45437  12.174  15.283   1.322 -0.1367  0.1948  0.1575
29177W        W45438   4.267   9.966   1.251  0.1606 -0.0497 -0.1666
29178W        W45439   3.228   1.727   1.877 -0.0117 -0.1800  0.0138
29179W        W45440   9.782   2.859  12.534  0.0734  0.4698  0.3168
29180W        W45441  16.313   0.888  12.064 -0.0451 -0.0847  0.2292
29181W        W45442  14.848   1.252  12.982 -0.1576 -0.0336 -0.2044
29182W        W45443  17.620   7.796  14.979  0.0299  0.2806 -0.0874
29183W        W45444   1.639  11.234  13.570 -0.0947  0.1607  0.0865
29184W        W45445   5.245  16.856  16.008  0.2214 -0.0504 -0.1030
29185W        W45446   5.610   5.253  13.593  0.2164  0.3020 -0.0806
29186W        W45447   6.038   6.718   1.480 -0.0078  0.0336  0.0415
29187W        W45448  13.121  11.102  11.438  0.2295 -0.1977  0.4259
29188W        W45449  12.648  16.530  16.706 -0.3168 -0.0756 -0.1285
29189W        W45450  17.690  12.343  14.009 -0.2363  0.0517  0.1859
29190W        W45451  13.221   3.507  15.619  0.0115  0.1923 -0.1588
29191W        W45452   3.798   7.718  11.642 -0.0318  0.0465  0.0681
29192W        W45453   8.430   5.591   1.474 -0.0302  0.4075  0.0915
29193W        W45454  10.700  13.773  11.620  0.2473 -0.0862 -0.1591
29194W        W45455   1.705  13.390   4.132  0.0516  0.2097 -0.1281
29195W        W45456   3.935   4.603  11.986  0.2021  0.1745 -0.0861
29196W        W45457  12.535   9.054   4.394 -0.0488 -0.1061 -0.2864
29197W        W45458   3.538  15.934  12.458  0.0793  0.2179  0.0310
29198W        W45459   0.096   0.966   3.556  0.1904  0.0481 -0.1022
29199W        W45460   2.244   9.525  16.518 -0.3568 -0.0843  0.2350
29200W        W45461  14.006   9.250   5.262 -0.0085 -0.1546  0.0629
29201W        W45462   5.976   2.317  12.792  0.1168 -0.1873 -0.0459
29202W        W45463  12.603  10.223  11.994 -0.0954 -0.3045 -0.0127
29203W        W45464   4.928  16.241   2.486  0.1966 -0.1295  0.1811
29204W        W45465  14.029  12.028   5.169 -0.0154 -0.1693  0.0485
29205W        W45466   9.968  11.877  16.937  0.0435  0.1011  0.1574
29206W        W45467   5.449   1.540  16.267 -0.1502  0.2597 -0.1439
29207W        W45468  13.440  16.681  13.786 -0.1355  0.3247 -0.2932
29208W        W45469   0.036   6.477   0.159 -0.1038  0.0490 -0.1327
29209W        W45470   9.245  11.354   1.349 -0.0249 -0.1165 -0.3328
29210W        W45471   1.173   8.334  14.858  0.0658 -0.1481  0.1403
29211W        W45472  13.834   4.627   0.742  0.2062  0.1894  0.2414
29212W        W45473   9.293   9.830   6.021  0.2045 -0.1963  0.0758
29213W        W45474   6.558   0.187  14.747 -0.0424 -0.0959 -0.1278
29214W        W45475  13.531   8.435  16.775  0.2356 -0.0364 -0.2248
29215W        W45476  12.784   9.155   1.843  0.0772  0.2426  0.1514
29216W        W45477   0.122   1.097   5.398 -0.1316 -0.1035 -0.1215
29217W        W45478  12.395  12.220   2.574 -0.1148 -0.1979 -0.2034
29218W        W45479   6.122   6.765   5.934  0.1231  0.2238 -0.0285
29219W        W45480  12.353   2.830   2.415  0.0279 -0.2430 -0.2584
29220W        W45481  17.278  10.981  15.965 -0.2129  0.0197 -0.1251
29221W        W45482   0.666   9.248   1.893 -0.2972  0.0888  0.1067
29222W        W45483   6.910   6.585   4.069 -0.0129 -0.2110  0.0590
29223W        W45484   6.515  10.270   3.677 -0.0478 -0.1555 -0.0701
29224W        W45485   5.783   0.445  12.988  0.4156  0.0069 -0.2552
29225W        W45486   2.272   3.884   0.065  0.2240 -0.1113  0.3327
29226W        W45487  12.640   7.740  16.664 -0.2306 -0.1338  0.1250
29227W        W45488  12.648  14.412  15.001  0.0118 -0.1837  0.4925
29228W        W45489  17.309  10.813   2.763 -0.0674 -0.0081 -0.0647
29229W        W45490   4.094   2.615   4.947  0.2488  0.1762  0.0580
29230W        W45491   6.557   3.143  16.478  0.1196 -0.2306 -0.4924
29231W        W45492   3.932  13.851   5.746 -0.3148 -0.0593 -0.0851
29232W        W45493   9.664   5.843   1.871 -0.0131  0.0268  0.1858
29233W        W45494   5.407   0.057  12.992 -0.2225  0.1525 -0.2281
29234W        W45495  12.647  11.636  13.783  0.2729  0.2517  0.0942
29235W        W45496   0.853   3.017  15.545  0.0117  0.4575  0.1909
29236W        W45497  12.333   3.480   0.665 -0.2345 -0.2108 -0.0272
29237W        W45498   7.404   4.958   0.886 -0.0006 -0.3796  0.1000
29238W        W45499  16.351  10.823  13.977  0.0157  0.1884 -0.3849
29239W        W45500  12.441  10.310   0.063 -0.0587 -0.2089  0.1283
29240W        W45501  16.885   2.360   3.234  0.2163  0.0150 -0.0856
29241W        W45502   2.988  14.347  13.707 -0.0873 -0.0736  0.0423
29242W        W45503   3.412  14.639  13.710  0.0286 -0.1013 -0.1060
29243W        W45504  11.147   6.592  12.537  0.1611  0.1030 -0.2028
29244W        W45505   4.397   5.609  16.137  0.0313  0.3141  0.0675
29245W        W45506  11.132  13.138   5.488 -0.2548 -0.1826  0.0196
29246W        W45507   0.048   2.642   1.329 -0.1181  0.0759  0.0972
29247W        W45508   8.700  14.158   4.284  0.2166 -0.0947 -0.1184
29248W        W45509  14.849   8.053  15.902  0.0831 -0.2342  0.3129
29249W        W45510   7.058   3.646  14.406 -0.0053  0.0318 -0.0521
29250W        W45511   2.345   6.728   0.439 -0.0280 -0.0488  0.0810
29251W        W45512   1.751   5.667  16.657  0.0766  0.0197  0.1158
29252W        W45513  17.474  13.347   2.738 -0.1093 -0.0195  0.1519
29253W        W45514   9.580  12.540  16.426  0.1152  0.0255 -0.3045
29254W        W45515  15.515   5.268   1.678 -0.2780  0.2422  0.1827
29255W        W45516  10.968  12.932  14.138  0.2538 -0.3269  0.1116
29256W        W45517   8.816  13.583  13.182 -0.1151 -0.1484  0.2555
29257W        W45518   5.396  17.411  13.876  0.0450  0.1613 -0.1139
29258W        W45519  12.082  16.565  16.805 -0.0966 -0.0329 -0.0115
29259W        W45520   3.116  13.942  13.940 -0.3435  0.4164 -0.0536
29260W        W45521  17.012   5.548   5.150 -0.2998 -0.2706  0.2422
29261W        W45522   7.120   2.213  14.065  0.0513 -0.0158 -0.2654
29262W        W45523  17.101   7.382   1.689 -0.1048 -0.0403  0.1212
29263W        W45524  17.534   0.259   3.954 -0.2074  0.1495  0.2304
29264W        W45525  16.439  14.229   1.606 -0.1307  0.0757  0.1001
29265W        W45526  11.037   4.834   5.404 -0.0309  0.0843  0.2677
29266W        W45527  16.233  12.361  11.954 -0.1349  0.3489  0.1893
29267W        W45528  15.570  15.863   3.542 -0.0428 -0.0459 -0.0885
29268W        W45529   2.067   2.701  12.674 -0.3608 -0.3266 -0.1069
29269W        W45530  17.355  12.618  13.723 -0.1754 -0.2866  0.0094
29270W        W45531   9.901  17.026  11.148 -0.2997  0.2321 -0.0756
29271W        W45532   1.589  16.931  15.772  0.0140 -0.1809 -0.0014
29272W        W45533   9.022  14.232   5.683  0.0832 -0.1985  0.1855
29273W        W45534  13.979   4.907  12.061 -0.3984 -0.2570 -0.2027
29274W        W45535  13.868   9.097   0.745 -0.1563 -0.0799 -0.2834
29275W        W45536  14.730  13.813  12.003  0.0608 -0.0460  0.1497
29276W        W45537  17.520  11.475  15.129 -0.1689  0.1410  0.0710
29277W        W45538  11.925  15.373  13.912 -0.0293  0.1494 -0.1739
29278W        W45539   6.723  15.594   3.328  0.3180 -0.0392  0.0297
29279W        W45540   1.884   0.290  13.770  0.1111 -0.1163  0.0319
29280W        W45541  10.518  15.159  15.457 -0.0967 -0.0404  0.0770
29281W        W45542  12.614   1.813   0.716  0.1571  0.2544  0.0078
29282W        W45543   1.966   9.238   1.500 -0.0161  0.3216  0.0915
29283W        W45544   7.641   0.089   1.835  0.0541 -0.0726 -0.0707
29284W        W45545   7.074   8.306  14.830  0.0415  0.0843 -0.1144
29285W        W45546   2.937  16.854   4.898  0.0605  0.0957 -0.2225
29286W        W45547   0.345  10.947  14.789  0.1098 -0.0518 -0.0064
29287W        W45548   1.175   5.820   2.618 -0.0955 -0.4666  0.1553
29288W        W45549   8.635   7.409   2.121  0.1219  0.5768  0.1051
29289W        W45550   8.039   1.349  15.877 -0.1050 -0.1475  0.0489
29290W        W45551   1.189  12.356  15.449  0.2153  0.0902 -0.0565
29291W        W45552   5.463   9.914   3.230 -0.0157  0.1999 -0.3163
29292W        W45553  12.005   5.333  15.238 -0.2122 -0.0315  0.0534
29293W        W45554   0.496  16.276  12.565 -0.2072  0.0931 -0.1097
29294W        W45555   8.018   6.958  12.427 -0.0376  0.0295 -0.2513
29295W        W45556  15.251  11.877  15.232 -0.2630 -0.0692  0.2965
29296W        W45557  14.021   7.194   2.361 -0.2208  0.0622 -0.0855
29297W        W45558   9.674   3.071  16.101  0.1467 -0.0613 -0.0563
29298W        W45559   7.845   7.049  16.551 -0.1986 -0.0274  0.0329
29299W        W45560  13.390  10.932   4.965  0.0197  0.0297 -0.0118
29300W        W45561   3.055  15.398  12.656 -0.0871  0.0356 -0.0375
29301W        W45562   2.544   5.361   5.153 -0.1392 -0.0073  0.1429
29302W        W45563   4.027   0.488  15.839 -0.1612 -0.1411  0.0257
29303W        W45564  15.919   9.304   0.116 -0.0377  0.2004 -0.2478
29304W        W45565   3.926  15.633  16.038 -0.2500 -0.5176  0.0909
29305W        W45566   0.962  16.569  16.427  0.0822 -0.1757  0.1877
29306W        W45567   2.631  17.042   4.120  0.1401 -0.1724  0.1598
29307W        W45568   5.211   9.328   4.916  0.2865  0.1166 -0.1279
29308W        W45569   7.313   9.806   4.886  0.1338  0.1459  0.2169
29309W        W45570   3.901  17.696  16.733  0.2192  0.0991  0.1120
29310W        W45571  13.613   2.815  15.995  0.0034 -0.2368 -0.0196
29311W        W45572   0.758  14.744  15.460 -0.2738 -0.0018 -0.4183
29312W        W45573   7.331   2.066   3.497  0.2517  0.1050  0.3690
29313W        W45574  17.234  10.840   0.142 -0.2521  0.1464 -0.2777
29314W        W45575   5.285   0.136   1.941  0.1058 -0.0889  0.0693
29315W        W45576  13.691  12.556  12.689 -0.1719 -0.0082  0.1434
29316W        W45577   2.748   0.858   1.941 -0.0556  0.0398  0.3069
29317W        W45578  16.044   8.440  15.909  0.0578  0.1703 -0.0268
29318W        W45579   9.513  17.819   1.599 -0.0105 -0.3321  0.2219
29319W        W45580   9.149  15.252  13.863  0.1431 -0.1456 -0.1333
29320W        W45581   4.616  16.612  13.958  0.1983 -0.1359 -0.4307
29321W        W45582  11.117  12.658  15.876  0.2652  0.0861  0.1764
29322W        W45583  15.484   6.134  15.148  0.1384  0.1798  0.1480
29323W        W45584  11.625  11.437   4.448 -0.1176  0.1495 -0.0047
29324W        W45585   5.112   1.887   0.876 -0.0088 -0.1027  0.0115
29325W        W45586  16.680   5.614   6.136 -0.0078  0.0262 -0.0458
29326W        W45587  17.675  16.187   1.895  0.0695  0.0462 -0.1945
29327W        W45588   5.354  11.682   0.525 -0.0087  0.0452 -0.1270
29328W        W45589  15.976   3.671  12.844 -0.4439  0.1839  0.1626
29329W        W45590  16.484  16.994   5.257 -0.0311 -0.0978 -0.0498
29330W        W45591  12.632  15.491  14.944  0.4400 -0.2471 -0.2517
29331W        W45592  12.350   0.789  13.998 -0.3231 -0.0390  0.3079
29332W        W45593   5.718  15.408  12.638  0.0764 -0.0656 -0.0493
29333W        W45594   2.944  13.427  11.544  0.0930 -0.0699  0.0363
29334W        W45595   1.105   6.758   1.777 -0.1332 -0.0972 -0.1289
29335W        W45596   8.018   6.007  11.684  0.2020  0.0106  0.1120
29336W        W45597   9.996   3.116   1.076 -0.0548 -0.0134 -0.1934
29337W        W45598   8.993  11.442  15.305  0.0840  0.0943  0.1741
29338W        W45599  11.693  12.779   1.985  0.1820  0.1580  0.1057
29339W        W45600   9.342  16.728   0.659  0.1415  0.0499 -0.2927
29340W        W45601  11.499   1.571   0.662 -0.0141  0.2477  0.0655
29341W        W45602   3.488  11.793  14.926 -0.3050 -0.3458 -0.1555
29342W        W45603  15.464   4.689  12.155 -0.0111 -0.1273  0.3195
29343W        W45604   2.527   4.156   4.003 -0.1719  0.2234 -0.1099
29344W        W45605   1.173  12.913  14.026 -0.0523 -0.4604 -0.0209
29345W        W45606   8.007  16.754   3.855 -0.2118  0.0661  0.1290
29346W        W45607  12.521   0.157  12.379  0.1197 -0.0044  0.0426
29347W        W45608  10.684  13.616   0.917  0.0659  0.1022 -0.0877
29348W        W45609   7.664   9.572   1.386 -0.0775  0.1775 -0.2994
29349W        W45610  10.085   7.784   2.348 -0.2476 -0.4271  0.0222
29350W        W45611  14.632   3.854   4.286 -0.1109 -0.0301 -0.2031
29351W        W45612   4.554  12.745   2.547  0.1315  0.3603  0.2601
29352W        W45613  10.444   2.742  16.693  0.0309  0.0115  0.0984
29353W        W45614  17.221  15.307  14.507 -0.0398  0.0533  0.1288
29354W        W45615   9.637   2.134  11.817  0.2834 -0.0637 -0.0408
29355W        W45616   4.368   6.610  14.793  0.0873 -0.4705 -0.1071
29356W        W45617  10.082   5.191   0.846 -0.1459  0.1036 -0.2104
29357W        W45618   8.933   4.805   1.631 -0.4426  0.2198 -0.0904
29358W        W45619   9.648   6.261  15.358 -0.0327  0.0537 -0.4075
29359W        W45620  14.062   2.709   1.369  0.3001 -0.0486  0.1301
29360W        W45621  14.530   7.294  15.644 -0.3389  0.1596  0.1681
29361W        W45622  15.799   9.265   1.545  0.0790 -0.0139 -0.1183
29362W        W45623   9.500   8.866   3.485 -0.4116  0.0352 -0.1805
29363W        W45624  10.292  16.966  14.090 -0.0840 -0.1310  0.1102
29364W        W45625   7.283  17.397   4.827 -0.2819 -0.0534 -0.0808
29365W        W45626  15.260  10.447  13.184 -0.2407  0.2754  0.1263
29366W        W45627  17.646   3.269   3.495 -0.0593 -0.0843  0.1387
29367W        W45628  17.152  15.932  11.760 -0.0057 -0.0137 -0.0573
29368W        W45629   9.231   3.466  14.409 -0.1588 -0.3679 -0.2567
29369W        W45630  17.558  12.480  12.180  0.2208  0.0917  0.0080
29370W        W45631   8.316  17.149   3.049  0.1124 -0.0861  0.0241
29371W        W45632  16.536   5.032  12.793  0.1803  0.1950  0.1448
29372W        W45633   3.170   5.944   3.771 -0.0555 -0.0044  0.2563
29373W        W45634  11.257   1.061   4.423 -0.0789  0.0839 -0.1480
29374W        W45635  16.716  16.558  12.290  0.2744 -0.3829 -0.2551
29375W        W45636   9.828   5.996   0.967 -0.1487 -0.3164 -0.0320
29376W        W45637   7.396   5.649   2.957 -0.0085 -0.0585 -0.0117
29377W        W45638  11.210  16.214   5.525 -0.1153  0.0493  0.1030
29378W        W45639   0.873   3.419  15.829 -0.2603 -0.1743  0.1450
29379W        W45640   1.769   6.503   3.359 -0.1357 -0.3726  0.1670
29380W        W45641  11.708   0.679   2.373  0.1275  0.0376 -0.0262
29381W        W45642   0.319   5.246   3.026  0.1917  0.0998 -0.1313
29382W        W45643   6.691  11.386   4.448  0.0030  0.0564 -0.1122
29383W        W45644   7.843   6.765  13.447 -0.0393  0.0969 -0.2799
29384W        W45645   3.916  16.178   1.625 -0.2710  0.3316  0.0099
29385W        W45646  14.546  13.167   0.399 -0.1469  0.0197  0.3412
29386W        W45647   7.826   9.360  15.312 -0.1524 -0.1325 -0.0698
29387W        W45648  14.852  16.412  14.676  0.0860  0.4982  0.5210
29388W        W45649   5.504  12.401  15.494  0.0309 -0.0073  0.1390
29389W        W45650   7.692  11.073   1.955 -0.1939 -0.3095  0.2980
29390W        W45651   8.246  13.238  14.652  0.0591 -0.1720  0.0706
29391W        W45652  11.239   3.274  13.189 -0.0761 -0.3548 -0.1828
29392W        W45653   4.835  16.465   6.444  0.0025  0.3820  0.0029
29393W        W45654  11.931  16.558   1.430  0.1529  0.0500 -0.3493
29394W        W45655  15.943   8.613   0.804  0.0848 -0.2599  0.3252
29395W        W45656   9.214   6.665  16.648 -0.2661 -0.0004  0.0744
29396W        W45657   8.628   4.827  11.926  0.2604 -0.0343  0.2380
29397W        W45658  16.260   3.225  16.055  0.0989 -0.0303 -0.0359
29398W        W45659   4.878   1.297   2.808 -0.1036  0.2126 -0.1343
29399W        W45660  17.482   5.426   4.246  0.2382  0.0040  0.0169
29400W        W45661   7.721  16.579  15.285 -0.0525 -0.0553  0.1108
29401W        W45662  11.983  13.539   0.149  0.0171 -0.1313  0.3931
29402W        W45663  13.548  15.067   5.500  0.2973  0.3181  0.0554
29403W        W45664   1.223  10.223  12.255  0.0000 -0.2582 -0.1566
29404W        W45665  13.037   6.874  16.803  0.2917 -0.0886  0.1887
29405W        W45666  13.105  14.844  13.281 -0.1741 -0.2166 -0.0118
29406W        W45667   4.248  16.786   0.924 -0.2618  0.1536 -0.1319
29407W        W45668   6.112   8.835   2.771  0.1182  0.3235 -0.3309
29408W        W45669  16.343  12.903   3.086 -0.0116 -0.1878  0.0923
29409W        W45670  17.486  13.112   6.009  0.0306  0.1507 -0.0618
29410W        W45671  13.119   5.926   0.971  0.0203 -0.0201  0.0749
29411W        W45672   1.087   4.502   0.464  0.3018  0.4892  0.1409
29412W        W45673  17.381  15.731  14.208 -0.0888  0.4274  0.2847
29413W        W45674  15.698  17.607  16.699 -0.1366  0.0501 -0.0905
29414W        W45675   2.602   2.223  12.061 -0.0257  0.0190  0.2250
29415W        W45676   0.161  16.213   3.892  0.2036 -0.1566 -0.1386
29416W        W45677  10.382  12.972   0.414  0.2592  0.3341  0.0034
29417W        W45678  11.261   3.128  13.965  0.3461  0.3079 -0.0038
29418W        W45679  13.177  15.551   1.184  0.1465  0.1660 -0.2389
29419W        W45680  14.713   5.487   0.637  0.0911 -0.2837  0.1631
29420W        W45681   1.506   3.183  12.269  0.0749 -0.0863  0.3048
29421W        W45682   1.195  16.604   0.241 -0.0214  0.2030  0.3151
29422W        W45683   0.683  10.871  10.643  0.3525  0.1644  0.2046
29423W        W45684   9.675  15.394  15.341 -0.0678 -0.1720  0.1696
29424W        W45685   1.821  10.765   5.359  0.0084  0.1546 -0.0456
29425W        W45686  15.129  10.095  16.701 -0.3902 -0.0952  0.2164
29426W        W45687  13.505   8.854   1.199  0.0677  0.2169 -0.1231
29427W        W45688   0.521   4.312   3.939 -0.3097  0.1893  0.1883
29428W        W45689   8.904   0.575  11.182  0.1824 -0.0406 -0.0847
29429W        W45690   1.024  10.759   3.833 -0.0301 -0.0972 -0.1234
29430W        W45691   2.095  16.671   5.451  0.1102  0.0478  0.2069
29431W        W45692   3.051  12.647  14.059 -0.1174  0.3169 -0.4139
29432W        W45693  10.344  14.319  15.305  0.4291  0.0398  0.1844
29433W        W45694   0.916   9.077  15.469 -0.0421 -0.2724  0.0038
29434W        W45695   4.758  16.134  16.710 -0.0805  0.2698  0.3127
29435W        W45696   1.572  15.445  14.451  0.0058 -0.0482  0.0693
29436W        W45697   0.062   9.200  12.380 -0.1010  0.2721 -0.0391
29437W        W45698   2.615  10.780   0.734  0.2855  0.0293  0.0693
29438W        W45699  10.886   2.890   4.227  0.1589  0.1907 -0.0225
29439W        W45700   8.945   2.000  16.848 -0.0775 -0.2763  0.0391
29440W        W45701   3.149   5.059   5.817  0.1997 -0.1058  0.1464
29441W        W45702  15.694   4.767   0.523  0.2704  0.1201  0.2660
29442W        W45703   8.250   0.015   0.346  0.1576 -0.2809  0.0895
29443W        W45704   8.971   6.422   1.486 -0.3326 -0.3577  0.2373
29444W        W45705  10.590   6.217  13.721 -0.0855 -0.1341 -0.1612
29445W        W45706   6.148  17.219  15.584  0.2029 -0.0852  0.2525
29446W        W45707  15.271   8.535   3.255 -0.0298  0.1747 -0.0470
29447W        W45708   0.969  14.292   1.407 -0.0429  0.2800  0.0022
29448W        W45709   6.854  17.513   0.410  0.3226  0.1260  0.0279
29449W        W45710   2.107   6.775   1.267 -0.0952  0.1147 -0.0793
29450W        W45711  16.543  15.921  13.930  0.0494 -0.0871  0.0616
29451W        W45712  12.923   1.165  15.011  0.0689 -0.0434 -0.0405
29452W        W45713  11.061   3.940  13.742  0.2277  0.1614 -0.0137
29453W        W45714   3.015  11.113  11.700  0.2893  0.4000 -0.2661
29454W        W45715   7.568   4.337  11.630  0.2417  0.3102 -0.1564
29455W        W45716  13.260  13.765  15.714 -0.2407 -0.0285 -0.0111
29456W        W45717   9.619   2.121   1.098 -0.0781  0.1534 -0.2015
29457W        W45718  15.949   9.678   3.299 -0.0309  0.3739 -0.0609
29458W        W45719  11.807   6.485  13.836  0.1215  0.2964  0.1253
29459W        W45720   5.816   5.043  15.687 -0.1149  0.1442  0.0314
29460W        W45721  13.975  14.420   4.448 -0.1778  0.1015  0.0938
29461W        W45722   4.954  15.150   4.690 -0.0527 -0.0134 -0.0587
29462W        W45723   9.903  11.466  13.983 -0.2363 -0.2957  0.1015
29463W        W45724  12.575  12.295  11.198 -0.2794  0.1468  0.1442
29464W        W45725   3.071  14.908   1.000 -0.0438  0.1230 -0.0233
29465W        W45726   3.245  10.860  14.246 -0.0933  0.0128 -0.3316
29466W        W45727   5.442  11.599   2.014  0.0595 -0.1288 -0.1574
29467W        W45728   9.978   0.037   3.974  0.4933  0.2468 -0.1821
29468W        W45729   7.879   7.903   3.843 -0.0137 -0.0426 -0.1603
29469W        W45730   9.618   0.519   4.281 -0.1216 -0.1215  0.0299
29470W        W45731   9.383  10.636  15.104  0.1962  0.2193 -0.3668
29471W        W45732   1.872  17.782  15.151  0.0482  0.0905 -0.0104
29472W        W45733  16.128   3.854   3.636  0.0172  0.1310 -0.0079
29473W        W45734   0.668   7.229   1.849 -0.0361 -0.0177  0.4577
29474W        W45735   2.155   3.492   5.639 -0.1012  0.0574 -0.0802
29475W        W45736  15.724   0.079  14.044 -0.0768 -0.0532 -0.3313
29476W        W45737  12.376   2.757   3.946 -0.0744 -0.3147 -0.1770
29477W        W45738   1.252  12.524  13.736  0.1371  0.0653 -0.0741
29478W        W45739  10.500   9.194  16.257 -0.4819 -0.2451  0.1245
29479W        W45740   6.323   5.437  16.639  0.3264  0.1141  0.0977
29480W        W45741  16.580   2.687   0.862 -0.1558  0.2234 -0.0327
29481W        W45742  16.134  12.369  16.307 -0.2246  0.1322  0.0202
29482W        W45743   8.218   0.932   2.530 -0.1460  0.2151  0.0412
29483W        W45744   4.745   6.126   4.053  0.1196 -0.0938 -0.1465
29484W        W45745   7.915  15.804   4.949  0.1029 -0.3819  0.2052
29485W        W45746   0.666   8.860   3.319 -0.1617  0.0616  0.0408
29486W        W45747  15.258   8.149   0.282  0.0194 -0.0178  0.0011
29487W        W45748   5.302  10.456  14.630  0.2191 -0.0898 -0.0034
29488W        W45749   3.150   0.470  15.137 -0.0944 -0.0812 -0.2872
29489W        W45750   4.431  16.970  16.450  0.1417 -0.0982 -0.1616
29490W        W45751   6.686   0.575  13.077 -0.0466 -0.2442  0.1222
29491W        W45752  12.921   9.278  15.549  0.2043 -0.0293  0.1999
29492W        W45753   5.950   4.912  13.422 -0.2009 -0.0267  0.0518
29493W        W45754   3.294   3.538   1.330  0.0696 -0.0408  0.2006
29494W        W45755  17.571   2.681  15.736 -0.0495  0.1016 -0.0551
29495W        W45756   4.950   6.185   4.771  0.1593 -0.1527 -0.0352
29496W        W45757   8.697   9.493   0.192 -0.3588  0.1868 -0.4339
29497W        W45758   5.989  15.989  10.947 -0.2836 -0.2134 -0.0847
29498W        W45759  11.584   2.653  14.812 -0.0248 -0.1495  0.0458
29499W        W45760   9.816  16.534   3.749 -0.1307  0.0127  0.0661
29500W        W45761   6.853  17.853  16.959  0.0145  0.1960  0.1120
29501W        W45762  10.968   1.186   2.879 -0.1099  0.1735 -0.0392
29502W        W45763  14.166  13.517   5.340  0.2764 -0.1839  0.1951
29503W        W45764  14.887  15.492  13.110 -0.0852  0.2756 -0.2441
29504W        W45765   9.923   1.331  13.443 -0.2154  0.0778 -0.4138
29505W        W45766   5.042   1.213   1.526 -0.0578 -0.0956  0.0591
29506W        W45767   2.041   2.812   2.958 -0.0970  0.0726  0.4968
29507W        W45768   6.799  10.315  16.173  0.1631 -0.0262 -0.2631
29508W        W45769  15.101   1.187   5.688  0.1086  0.0260  0.3927
29509W        W45770  13.695   3.000  13.572 -0.3076 -0.0536 -0.3166
29510W        W45771  12.308  14.181   4.000 -0.1233 -0.4421  0.0769
29511W        W45772   0.006  12.600   0.486 -0.3441 -0.2760 -0.1747
29512W        W45773   5.336   6.463   0.767  0.1755  0.1898  0.0832
29513W        W45774   4.010  14.620   2.490  0.2183  0.0000 -0.2176
29514W        W45775  15.628  13.857   1.735 -0.1257  0.0470 -0.2028
29515W        W45776  10.964  17.779   0.959  0.1654  0.2088 -0.1035
29516W        W45777   9.791   1.326  14.420  0.1150  0.3432 -0.1655
29517W        W45778  13.101   7.071   3.598 -0.1461  0.1973 -0.2720
29518W        W45779   9.312   5.909  15.274 -0.2286 -0.1040  0.2173
29519W        W45780   2.764  12.606  13.613 -0.4374 -0.1658  0.1202
29520W        W45781  17.171  17.270  12.479 -0.0855  0.1366 -0.0546
29521W        W45782   3.680   2.817  13.587  0.0517 -0.0989  0.1269
29522W        W45783   2.599  10.331   0.405  0.0881  0.1123  0.0878
29523W        W45784   9.234  10.032  12.862 -0.0490  0.2382 -0.2691
29524W        W45785   4.588   6.564  16.973  0.0163 -0.1570 -0.2174
29525W        W45786  10.399   5.831  13.953  0.2109  0.1371  0.0255
29526W        W45787   9.938   9.872  12.052  0.1052  0.0160  0.1524
29527W        W45788   9.312   8.571   1.463  0.1317 -0.2464  0.2270
29528W        W45789   2.831  15.436  16.851 -0.0594  0.0402 -0.1094
29529W        W45790   0.437   7.318  16.337  0.0961 -0.3925  0.0352
29530W        W45791  14.520   3.497  14.440  0.3879  0.1808  0.0002
29531W        W45792  12.771  14.665   0.643 -0.1648 -0.1371 -0.1880
29532W        W45793   5.071   0.538  15.579  0.3037  0.1336  0.2149
29533W        W45794  13.109   8.618   2.587 -0.0136 -0.2746 -0.1788
29534W        W45795   6.831   6.703  14.433 -0.1726  0.1475  0.5301
29535W        W45796   1.149  13.892   2.678 -0.1281 -0.1577 -0.2453
29536W        W45797   8.801   5.212   0.132 -0.1529 -0.1553  0.1952
29537W        W45798  15.221   9.101  14.535 -0.0035  0.1461  0.0910
29538W        W45799  11.765   8.991   5.072  0.0824  0.1359  0.2602
29539W        W45800  16.315  13.844   3.116  0.1422  0.0337 -0.0722
29540W        W45801  15.391   8.403   4.264 -0.0118  0.0222 -0.0201
29541W        W45802  10.185   5.638   5.318 -0.1830  0.0497  0.1420
29542W        W45803  16.408  14.421   3.219  0.0261 -0.0688 -0.1594
29543W        W45804  17.301   0.320   2.386  0.0405  0.0025 -0.0414
29544W        W45805   6.011   3.367   5.816  0.2153 -0.0242  0.2563
29545W        W45806   1.192   2.915   4.937  0.0622  0.2128  0.1639
29546W        W45807   3.763  13.318  15.526  0.1473 -0.1578 -0.1450
29547W        W45808  14.734   5.839  12.612 -0.1107 -0.0814  0.0617
29548W        W45809   8.054   0.415  11.521  0.1028  0.1584 -0.0443
29549W        W45810  10.959  11.463  13.271 -0.0253 -0.2687  0.0074
29550W        W45811   9.043   6.031  15.986  0.0073  0.1643 -0.3463
29551W        W45812   3.806   0.569  13.617  0.2266 -0.0548  0.0632
29552W        W45813   5.782   6.870  14.457  0.1328  0.0662  0.3153
29553W        W45814   9.444   2.169   1.957 -0.1506 -0.0762 -0.0740
29554W        W45815  15.081   7.803  12.555 -0.3610 -0.3034 -0.1036
29555W        W45816  11.917  12.241  15.589  0.2224  0.2704 -0.1375
29556W        W45817  14.688   3.896  15.386 -0.0327  0.2899 -0.2101
29557W        W45818   4.354   2.999  14.161 -0.1090  0.0829  0.1575
29558W        W45819   6.245  16.181   3.865 -0.0916  0.0324  0.0709
29559W        W45820  14.888   7.157   1.354  0.2531 -0.0002  0.3610
29560W        W45821   7.039   5.745   5.285 -0.1589  0.0484 -0.3036
29561W        W45822  16.116   0.315   1.057  0.0079  0.2015  0.0862
29562W        W45823   2.670   9.670  13.298  0.0611 -0.1403  0.1761
29563W        W45824   6.195   3.735  12.970  0.1355 -0.2972 -0.0177
29564W        W45825  12.386   9.129  12.901  0.2459 -0.0816 -0.1834
29565W        W45826  10.515   5.480  16.719  0.0316  0.0658 -0.0714
29566W        W45827   0.212   5.404   4.179 -0.0575 -0.0269 -0.0226
29567W        W45828   4.891   8.952  14.834  0.2274  0.1649 -0.0489
29568W        W45829  11.911   7.974   0.411  0.1636 -0.0931  0.1311
29569W        W45830  16.625   5.744   5.544  0.0715 -0.5863  0.2015
29570W        W45831  10.006  12.082   4.228  0.0736  0.0554 -0.1982
29571W        W45832   9.543  15.706  13.831 -0.2130 -0.1187 -0.2169
29572W        W45833   1.385   1.148  12.394 -0.4397  0.0432  0.5394
29573W        W45834   2.890   2.937  14.644  0.0664  0.1572 -0.4501
29574W        W45835   4.550  16.899   3.073 -0.2056  0.0617  0.2977
29575W        W45836   6.891   6.425  15.223  0.3481  0.0026  0.2984
29576W        W45837   6.386   3.517  12.096 -0.0765 -0.0311 -0.1134
29577W        W45838   6.957  14.015   5.135 -0.1178 -0.2670  0.1560
29578W        W45839  12.850  15.643  16.660 -0.2718  0.0513 -0.0002
29579W        W45840   6.707   8.701  12.710 -0.1953  0.2584 -0.1497
29580W        W45841   2.065   5.927  15.590  0.1218 -0.0910  0.1154
29581W        W45842  16.311   2.160   4.948  0.1551 -0.4045  0.1862
29582W        W45843  12.665  12.267   4.900 -0.1802 -0.0058 -0.1871
29583W        W45844  14.531  15.537  13.508 -0.0325 -0.1634  0.1529
29584W        W45845   0.519  14.986  12.650  0.1558  0.1213  0.1041
29585W        W45846   6.838   7.416   6.462  0.0891 -0.0007 -0.1156
29586W        W45847   0.442   8.593   1.848  0.2391  0.1213  0.2128
29587W        W45848   5.222   0.822   2.254 -0.0890  0.3817  0.2063
29588W        W45849   0.359  13.312   4.252 -0.2353  0.0083  0.0415
29589W        W45850   2.118  11.500  14.999 -0.0594 -0.0230  0.0089
29590W        W45851   5.637  16.601   1.351 -0.2495 -0.3414 -0.2259
29591W        W45852   7.411   4.780   2.677  0.2554  0.1051 -0.5018
29592W        W45853  12.275   5.986  14.666 -0.0599 -0.2384  0.3293
29593W        W45854  15.638  16.747   2.204  0.3479  0.2107 -0.0263
29594W        W45855   6.949  15.243   1.198  0.2229  0.0554 -0.2221
29595W        W45856   3.665  14.907   0.926  0.0442 -0.0766 -0.3053
29596W        W45857  17.782  11.333   1.970 -0.0814 -0.2715  0.3369
29597W        W45858  10.577   4.034  15.404 -0.1022 -0.0299  0.0754
29598W        W45859  12.309  14.983   3.067  0.0431 -0.3232  0.2489
29599W        W45860  13.948  14.963  13.334  0.0447 -0.2162 -0.1027
29600W        W45861   0.480   4.678  15.346 -0.1647  0.1196  0.0713
29601W        W45862  10.271   5.232  16.234 -0.1170 -0.1540 -0.2381
29602W        W45863   3.072   6.962  15.193  0.0951 -0.1749  0.0921
29603W        W45864   4.940  12.242  14.845  0.2148 -0.0806 -0.0906
29604W        W45865  16.128   5.943   1.144 -0.2345  0.4526 -0.3589
29605W        W45866   3.795   3.839  11.889  0.3199  0.1131 -0.0507
29606W        W45867   3.066   4.491  14.123 -0.0637 -0.0774 -0.1323
29607W        W45868   5.828  16.695  14.960 -0.0879 -0.2488  0.0796
29608W        W45869   2.324   2.509  16.948  0.2282  0.1436  0.3926
29609W        W45870  10.060  15.194  13.276 -0.1093  0.1296  0.2025
29610W        W45871   1.834  14.271   0.999 -0.0688 -0.3504 -0.0445
29611W        W45872  11.279   3.552   4.979  0.2660 -0.0472  0.1126
29612W        W45873   6.107  13.098  15.650 -0.2130 -0.1794  0.1643
29613W        W45874  15.514  11.029   3.885 -0.1053 -0.3242  0.1427
29614W        W45875   0.402   5.215   2.489 -0.0711  0.4018  0.1290
29615W        W45876   5.693  13.929   5.788  0.2878  0.1834 -0.1873
29616W        W45877   0.929  13.865  10.446 -0.1001  0.2805  0.0618
29617W        W45878   1.495   5.165   3.735 -0.0564  0.1618 -0.3069
29618W        W45879   4.477   0.721   2.200  0.1379  0.0942 -0.0261
29619W        W45880  11.834   7.858  12.655 -0.3013  0.1241 -0.1062
29620W        W45881   7.857  12.906  10.984  0.1805 -0.3046 -0.0947
29621W        W45882  14.273   8.746   1.554 -0.4050  0.2014 -0.0410
29622W        W45883   4.022  14.944  12.395 -0.3150 -0.0671  0.0707
29623W        W45884   7.685   5.059   5.930 -0.1911 -0.0065  0.0030
29624W        W45885  16.999   5.863  14.020  0.1013 -0.1456 -0.1820
29625W        W45886  10.170   7.157  15.364 -0.1672  0.1841 -0.1292
29626W        W45887  10.329   1.118   4.078  0.3241 -0.1639 -0.1535
29627W        W45888  14.566   0.809  13.838 -0.1128 -0.1010  0.2931
29628W        W45889   1.285  14.665   5.321  0.0232 -0.0982  0.0139
29629W        W45890   1.829   2.597  13.111 -0.1616 -0.0442  0.5139
29630W        W45891   3.804  16.147  13.475  0.0566  0.3466 -0.2133
29631W        W45892  17.026   8.443   0.607  0.1786 -0.1696  0.0594
29632W        W45893   7.662   9.920  15.674 -0.1075  0.6071  0.1534
29633W        W45894   3.084   0.764  16.385  0.0963 -0.1009 -0.2075
29634W        W45895   1.699   3.241   5.750  0.0769  0.0721  0.1177
29635W        W45896   2.000  11.262  14.114  0.0149 -0.1379 -0.4154
29636W        W45897   9.955   0.728   1.423  0.0269 -0.0630 -0.2173
29637W        W45898  10.903   8.910   0.178 -0.2624  0.0957 -0.1851
29638W        W45899   6.392  11.546   0.451  0.1320 -0.0982 -0.1654
29639W        W45900   4.185   8.946  12.274  0.0522 -0.1440 -0.2057
29640W        W45901  17.390   8.564  13.408 -0.1153  0.0953 -0.3772
29641W        W45902   2.154  15.852  15.155  0.1470  0.3249 -0.1752
29642W        W45903  17.800  13.979   2.019  0.2660  0.0789 -0.1256
29643W        W45904   3.915  17.279  14.127  0.0937 -0.1536  0.0023
29644W        W45905   1.691   8.374   5.359  0.0587 -0.0036 -0.0908
29645W        W45906   7.774   2.331  14.982 -0.1237 -0.0715 -0.0574
29646W        W45907   2.065   8.022   5.195 -0.0901 -0.0536 -0.0089
29647W        W45908  13.127   0.419   1.852  0.5141 -0.2054 -0.2573
29648W        W45909   7.682   4.274   2.021 -0.0453 -0.2711  0.0630
29649W        W45910  12.778   1.415   5.440  0.2605  0.2577 -0.2590
29650W        W45911  17.244  16.955   2.429  0.0333  0.0198 -0.1406
29651W        W45912  13.412  11.411   4.830  0.3546  0.0897 -0.0940
29652W        W45913   8.943  11.966   5.120 -0.0503  0.3370  0.3052
29653W        W45914   9.341   9.231  13.478 -0.1110 -0.1229 -0.1697
29654W        W45915  13.287   1.481  16.775  0.1855 -0.0890  0.0407
29655W        W45916   5.885  13.361   1.572  0.0493 -0.1053  0.1731
29656W        W45917  15.331  12.524   1.779  0.1216  0.0855 -0.0371
29657W        W45918   7.982  17.239  13.967  0.2865 -0.1240  0.2008
29658W        W45919  16.749   5.849  13.208 -0.1809  0.1441  0.1856
29659W        W45920  16.110   1.151   3.561 -0.2288  0.0236  0.1210
29660W        W45921  12.602   7.680  15.687 -0.1317  0.1335 -0.0733
29661W        W45922   7.790  10.526  16.149  0.4314 -0.2777 -0.0112
29662W        W45923  14.351  14.639   0.853  0.3514  0.0806  0.0700
29663W        W45924  15.662  10.352  16.415 -0.0841  0.1797  0.0152
29664W        W45925   5.611   0.601   2.041  0.3263  0.0400  0.2916
29665W        W45926  17.451   9.227   5.706 -0.3347 -0.0437 -0.0944
29666W        W45927   6.465   3.235   3.038  0.2475 -0.0035  0.0866
29667W        W45928   0.553  10.269   1.481 -0.0491  0.0838 -0.1760
29668W        W45929  17.764  15.140  13.908 -0.0695  0.0615  0.1627
29669W        W45930   0.067   2.393  12.588 -0.1264  0.0392  0.5338
29670W        W45931   9.096  14.778  13.272 -0.2301  0.0097 -0.0728
29671W        W45932  14.690   3.160  12.944 -0.1364 -0.0844 -0.3044
29672W        W45933  12.112  14.416  15.666  0.0017 -0.2041  0.0521
29673W        W45934  10.098   3.293   6.338 -0.4669 -0.3958  0.3541
29674W        W45935   6.048   9.382  12.732 -0.1028  0.0757  0.1185
29675W        W45936  16.008   0.200   4.001  0.0649  0.2463  0.0317
29676W        W45937   7.104   9.049  12.294 -0.3419 -0.0205  0.0390
29677W        W45938   3.632   2.404   2.989 -0.2757 -0.2275  0.0039
29678W        W45939  16.781   7.658   6.386  0.2427 -0.0468 -0.5367
29679W        W45940  11.324  17.066   4.932 -0.0936  0.2384  0.0206
29680W        W45941  13.830   8.400   1.445 -0.0848  0.0574  0.1098
29681W        W45942   2.341  15.277   2.459  0.0485  0.0383 -0.2589
29682W        W45943   3.618   7.653   4.654 -0.0715 -0.1999 -0.0779
29683W        W45944  13.373  10.830   2.013 -0.0399 -0.2694  0.0593
29684W        W45945  13.560   6.326   3.237  0.1557  0.1232 -0.0525
29685W        W45946   6.609   4.240  15.078 -0.2574 -0.0827  0.2063
29686W        W45947   7.525   4.548   4.261  0.1411  0.1776  0.0018
29687W        W45948   8.696  14.193  11.277 -0.1792 -0.1338  0.1542
29688W        W45949  12.183  11.126  15.152  0.2616 -0.3824  0.1675
29689W        W45950  15.027   9.674  15.281  0.0339 -0.1619  0.1412
29690W        W45951  16.971   7.687   5.489  0.1130  0.1767  0.2395
29691W        W45952   5.881  14.558   3.340  0.0641  0.0063 -0.2389
29692W        W45953  14.667   4.981  12.561  0.0655 -0.0087 -0.0519
29693W        W45954   9.505   7.404   0.017 -0.0125  0.0334  0.1120
29694W        W45955  15.177  16.947  13.865 -0.1621 -0.0408  0.0454
29695W        W45956  17.097  12.193  16.180  0.0284 -0.2660  0.0863
29696W        W45957   1.795   7.240   2.394 -0.3996  0.0341 -0.0193
29697W        W45958   5.463  14.814   5.409  0.1740  0.1645 -0.0157
29698W        W45959   0.360   0.015   3.588  0.0410  0.1419  0.0331
29699W        W45960  11.912   1.506   2.683 -0.1677 -0.0939  0.0487
29700W        W45961  17.492   4.174   2.374  0.2127  0.2335  0.2348
29701W        W45962   9.195  17.172  14.630  0.1410 -0.4750 -0.0401
29702W        W45963   5.346  10.547   5.892 -0.2670  0.2795  0.0560
29703W        W45964   6.067   0.557   2.268 -0.0435 -0.0482 -0.1863
29704W        W45965  15.767   9.565  15.357 -0.1027  0.0682 -0.0351
29705W        W45966  15.230   0.757   3.416 -0.3122  0.0755 -0.1106
29706W        W45967   6.631  16.179  12.028  0.0276  0.1393 -0.0649
29707W        W45968  13.699  12.266   4.749 -0.2027  0.0955  0.2845
29708W        W45969  13.319   1.739   5.686  0.0224  0.3660 -0.0667
29709W        W45970   5.113   0.226  11.907 -0.1386  0.0462  0.1013
29710W        W45971  16.200  17.287  14.336  0.2554  0.0361  0.0290
29711W        W45972  11.825   0.480  12.592 -0.0003 -0.2648 -0.2945
29712W        W45973   2.066  15.454  14.779 -0.0202 -0.1618  0.0409
29713W        W45974  17.034   9.190  14.650  0.0445 -0.1248  0.5741
29714W        W45975  16.653  17.854   0.463 -0.1006  0.0879 -0.1981
29715W        W45976  17.433  16.710   5.109  0.0697  0.2812 -0.2424
29716W        W45977   2.270  13.523   4.567  0.1525 -0.2017  0.0194
29717W        W45978   3.325  14.963  15.331  0.1146  0.1472  0.1022
29718W        W45979   2.036   4.120   2.810 -0.0755  0.1494 -0.3181
29719W        W45980  14.033   4.709   0.222  0.1851  0.1261  0.0505
29720W        W45981   1.846  17.177  15.396 -0.0570 -0.2222  0.5625
29721W        W45982  14.260  12.874  15.158  0.0716 -0.1955  0.1456
29722W        W45983  15.944   2.020   0.889  0.2475  0.1628  0.1433
29723W        W45984  15.573   9.500   3.747  0.1877 -0.0817  0.1615
29724W        W45985   9.772   1.364   1.745  0.2712  0.2374 -0.1268
29725W        W45986  15.018   4.381  13.091  0.1180 -0.1630 -0.0371
29726W        W45987   8.699  16.758   1.843  0.0424 -0.0852 -0.1141
29727W        W45988   3.335   4.279   3.923  0.1833 -0.1661  0.1909
29728W        W45989   8.389   9.816   5.347 -0.0124 -0.0297  0.0649
29729W        W45990  15.209   5.470   4.794 -0.0976  0.2565  0.2770
29730W        W45991  16.021  16.221  14.001  0.0470  0.0671  0.0401
29731W        W45992  10.307  10.262  14.033  0.0044 -0.0464 -0.2765
29732W        W45993   3.464  17.445  13.498 -0.0521 -0.2468 -0.2937
29733W        W45994  12.813   9.924  16.839  0.2184 -0.0025 -0.0668
29734W        W45995   0.844   2.170  13.016  0.1908  0.1369  0.2735
29735W        W45996   1.166   0.696   2.736  0.0717 -0.2790 -0.1274
29736W        W45997   5.010  16.516  15.720 -0.0340 -0.0380  0.2231
29737W        W45998  14.045   1.644   3.124 -0.0412  0.1013 -0.0379
29738W        W45999  11.232   2.220  16.393  0.0045  0.1029 -0.1124
29739W        W46000  14.306   5.307  16.477 -0.0054 -0.3992  0.2444
29740W        W46001   5.482   4.636   3.280 -0.0706  0.1697  0.2310
29741W        W46002   3.448  13.351  13.301 -0.1597  0.0337  0.1385
29742W        W46003   5.934  16.649  16.601 -0.0388  0.1282 -0.1428
29743W        W46004  10.707  11.997   1.562  0.0150  0.1661 -0.2522
29744W        W46005   0.560   3.037   5.522 -0.1246  0.1245  0.2178
29745W        W46006  10.572   6.077   1.936 -0.0842 -0.0759  0.2417
29746W        W46007   0.896   6.679   0.020 -0.2260  0.1172 -0.1814
29747W        W46008   2.210  13.138  12.567  0.0814 -0.2392  0.0352
29748W        W46009   0.305   5.887  12.051  0.2589  0.0813  0.0099
29749W        W46010  10.623  11.104  13.724  0.4323 -0.1108  0.2302
29750W        W46011  11.444  16.449   3.177  0.0622  0.1348  0.2477
29751W        W46012  14.823   0.297  14.494  0.1236  0.2767 -0.1512
29752W        W46013   4.142   2.785  16.054 -0.2838 -0.1393  0.1092
29753W        W46014   7.858   8.438   5.864 -0.1692 -0.1371  0.0379
29754W        W46015   1.016   5.099   4.006  0.1089  0.1188 -0.5828
29755W        W46016   9.395   3.630   0.400  0.3144 -0.0094  0.1122
29756W        W46017  12.401  16.318   3.640 -0.0538  0.0117 -0.0573
29757W        W46018   1.380   6.558   1.357 -0.1568 -0.1611  0.0023
29758W        W46019   8.516   7.770  15.691  0.0979 -0.0535  0.0550
29759W        W46020   2.175  15.098  12.923  0.1395  0.1143  0.0103
29760W        W46021  10.897   8.610  13.686 -0.2078 -0.3546  0.0389
29761W        W46022   9.188   4.099   5.656 -0.2378 -0.1435  0.1689
29762W        W46023  10.414   0.373   2.451  0.2082 -0.1865 -0.1409
29763W        W46024  11.573   9.315   1.206  0.3473 -0.1099  0.2544
29764W        W46025  12.233  16.872  13.089  0.1232 -0.0711  0.1781
29765W        W46026   2.651  13.778   4.308 -0.2429 -0.0231  0.0376
29766W        W46027   4.450   8.074  14.757 -0.0466 -0.1638 -0.1454
29767W        W46028  12.858   0.852   2.158  0.0764  0.0999  0.2811
29768W        W46029  11.255   2.187  12.249 -0.4193 -0.1930 -0.0708
29769W        W46030   6.330  17.388   1.324 -0.0461 -0.0808 -0.0896
29770W        W46031   6.510   0.057   0.454  0.1056 -0.1880  0.0809
29771W        W46032   8.142   8.682   2.709 -0.0571  0.5880  0.1583
29772W        W46033   8.538   1.205   2.267  0.0237 -0.1962 -0.0172
29773W        W46034   3.097   9.474  13.579 -0.2429 -0.0410 -0.0579
29774W        W46035  10.386   9.007   2.302 -0.0069 -0.1782  0.0730
29775W        W46036   2.492   8.586  14.536 -0.1321 -0.0175  0.1336
29776W        W46037   5.370   5.410  16.219  0.1064  0.1940 -0.1682
29777W        W46038   4.053   5.595  12.173 -0.0296 -0.1034  0.1807
29778W        W46039  10.166   9.146  12.321 -0.1313 -0.0322  0.0368
29779W        W46040  17.308   4.271   3.495 -0.1933  0.5231  0.2300
29780W        W46041   8.963   1.341   2.490  0.0199  0.0606  0.1110
29781W        W46042  11.058   0.363  16.439  0.3364 -0.1475  0.0970
29782W        W46043  15.057   3.922   4.562  0.3542 -0.0029  0.1395
29783W        W46044  15.627   7.100   2.607 -0.0285  0.0758 -0.0685
29784W        W46045  12.988   7.341   4.283 -0.0659 -0.0101 -0.0749
29785W        W46046   7.600  12.364   4.075 -0.0064 -0.0522 -0.0293
29786W        W46047   5.428   1.745   2.777 -0.3245  0.0864 -0.0526
29787W        W46048   1.778  12.782   3.283  0.3884 -0.1171 -0.0817
29788W        W46049   0.043   0.829   2.071  0.2587 -0.0247 -0.2437
29789W        W46050   0.147   0.633   0.042  0.0166  0.2635 -0.2141
29790W        W46051   1.185   3.185   2.384  0.1618 -0.0516 -0.0742
29791W        W46052  14.220   4.754  12.512  0.0238 -0.1246  0.1598
29792W        W46053  16.334   5.813   2.422 -0.0375 -0.0445  0.0737
29793W        W46054   3.803   3.994   2.996 -0.0231  0.0751  0.0115
29794W        W46055   0.384  16.661  12.214 -0.0755  0.0722 -0.0104
29795W        W46056  16.414  14.287  15.346  0.2042  0.1185 -0.0967
29796W        W46057   9.205   5.850   3.179 -0.3981 -0.0663 -0.0637
29797W        W46058  10.513  17.281  12.016 -0.0765 -0.0309  0.0007
29798W        W46059   1.207   2.215   0.885 -0.0168 -0.1412 -0.2047
29799W        W46060  13.855   6.297   0.629 -0.0915  0.1860 -0.0759
29800W        W46061   1.901   2.340  13.774  0.0415 -0.1438 -0.0341
29801W        W46062   3.840   4.503   3.965 -0.0243  0.3112 -0.1327
29802W        W46063  13.031   6.652   3.348 -0.2092 -0.2735 -0.0048
29803W        W46064  17.394  15.068   5.451  0.2648  0.1056  0.0365
29804W        W46065   7.386   5.093  15.639  0.3824 -0.0596  0.0720
29805W        W46066  17.513  11.086   3.087 -0.2585 -0.0055 -0.2048
29806W        W46067  16.505   8.841  13.209  0.1792 -0.0049 -0.2897
29807W        W46068  15.085   8.597  14.424 -0.1695 -0.0666  0.1842
29808W        W46069   4.443   6.890  13.585 -0.2001 -0.2760 -0.0492
29809W        W46070  15.416   1.260   2.144 -0.0101  0.0244 -0.1752
29810W        W46071  12.347  16.145  14.144 -0.1243  0.0552 -0.2014
29811W        W46072   0.323   0.231  12.758 -0.0952 -0.3333 -0.0610
29812W        W46073   6.916  12.844  14.536 -0.1137  0.0359 -0.0468
29813W        W46074   0.047   4.829  11.079  0.1717  0.2615 -0.0664
29814W        W46075   6.312  11.113   5.260  0.2841  0.0433  0.1002
29815W        W46076  12.371   0.591   3.849  0.1294 -0.0952  0.0097
29816W        W46077  14.690   7.718   6.276  0.0906 -0.1148  0.1341
29817W        W46078  12.346   1.071  15.379 -0.1985  0.0518  0.3110
29818W        W46079  16.452   8.149  16.498  0.0761  0.1754  0.0242
29819W        W46080  16.542  10.545  15.927 -0.0444 -0.0543  0.0993
29820W        W46081  12.571   4.959  16.236  0.2546  0.2651  0.2527
29821W        W46082   1.929   8.842  14.449 -0.0307 -0.1639 -0.4971
29822W        W46083   6.252   0.352  13.159  0.1366 -0.0259  0.0935
29823W        W46084   7.067  11.167   4.914 -0.0245  0.0046  0.0924
29824W        W46085  16.958   9.963   2.564 -0.0820  0.2350 -0.0493
29825W        W46086   1.592  14.530   3.126  0.1090 -0.2875 -0.1832
29826W        W46087  12.131  17.320  16.775 -0.0200  0.0248  0.1950
29827W        W46088  17.071  13.383   1.003 -0.0241  0.1526 -0.2017
29828W        W46089   5.410   2.394  16.791 -0.1270 -0.1561  0.2832
29829W        W46090   7.731  17.131  14.550  0.0175 -0.2181 -0.0532
29830W        W46091   4.429  12.013  16.592 -0.1162  0.0157  0.0909
29831W        W46092   0.453  16.982   5.306 -0.0724 -0.0574  0.0902
29832W        W46093   0.907  16.088   1.818 -0.0948 -0.2600  0.1301
29833W        W46094   5.833  14.068   3.525 -0.2680  0.0014  0.1017
29834W        W46095   7.523  13.565   4.843 -0.1568 -0.0177  0.0724
29835W        W46096   1.989  11.248  15.899 -0.2432  0.0785  0.0444
29836W        W46097  10.960   5.158  15.731  0.1085 -0.0615  0.0051
29837W        W46098  13.066  11.234   6.308 -0.1601  0.1675 -0.0189
29838W        W46099  11.061  14.288  13.420  0.1709 -0.0856 -0.0655
29839W        W46100   1.799  11.585  14.521 -0.0299  0.0149  0.0247
29840W        W46101  14.058  13.516  13.661 -0.2570 -0.0565 -0.1004
29841W        W46102   8.677   4.259   0.850 -0.0056 -0.0330  0.2885
29842W        W46103  11.646   6.927   0.252 -0.2968  0.0404 -0.0888
29843W        W46104   4.368   4.401  14.770 -0.1543  0.1099  0.0993
29844W        W46105   4.415  15.747  15.504 -0.0136 -0.1025  0.2167
29845W        W46106   8.673   6.270  14.658 -0.0799 -0.0900 -0.1202
29846W        W46107   0.025   3.731  12.031  0.3790 -0.1064 -0.1909
29847W        W46108   3.812   8.488   3.960 -0.1591 -0.0444  0.1183
29848W        W46109  17.418  15.931  16.542 -0.0023  0.0114 -0.0228
29849W        W46110  12.523  10.239   5.505 -0.0322 -0.0110  0.2661
29850W        W46111   7.767   6.965   2.082  0.0528 -0.2320 -0.0027
29851W        W46112  14.327   5.095   4.532 -0.1958  0.1024 -0.1154
29852W        W46113  11.741  10.362  15.447  0.4089  0.0641  0.0494
29853W        W46114  17.578   0.248  14.386 -0.1714  0.2036  0.1117
29854W        W46115   8.580   4.753  16.922 -0.0491 -0.1695  0.0558
29855W        W46116  13.874  16.576  13.371  0.0160 -0.1011  0.2215
29856W        W46117   0.950   7.892   0.016 -0.2586 -0.0226  0.4846
29857W        W46118  12.527   8.812  15.743 -0.0051  0.0305  0.0538
29858W        W46119   9.014  11.499  13.005  0.0155  0.1433  0.2082
29859W        W46120   5.318   3.980  16.585 -0.0532  0.1910 -0.0097
29860W        W46121  13.906  12.223   4.251  0.1205 -0.1580 -0.0532
29861W        W46122   1.974  12.103   0.760 -0.0490 -0.0500  0.0309
29862W        W46123   7.865  15.396   2.477  0.0712 -0.1546 -0.0930
29863W        W46124   4.391  15.097   3.850  0.0857 -0.1261  0.2671
29864W        W46125   6.497   5.762   5.231  0.1424  0.0511 -0.3010
29865W        W46126  13.207  11.349  16.674 -0.1835  0.4425 -0.0790
29866W        W46127   7.966   7.322   1.692 -0.2008  0.0540 -0.0324
29867W        W46128  12.428  14.254  14.453  0.1182 -0.1821  0.1939
29868W        W46129  15.450   3.891   1.031 -0.1856  0.1521 -0.0283
29869W        W46130   6.790   1.662   4.266 -0.2877 -0.1395  0.0602
29870W        W46131  14.971  12.296   5.033 -0.2746 -0.0005  0.0380
29871W        W46132  15.635   9.443   2.003 -0.2928  0.0224 -0.0760
29872W        W46133   4.571  16.355  12.947 -0.0782  0.0213  0.1644
29873W        W46134  16.293   8.621  16.272  0.2018 -0.3142  0.1623
29874W        W46135  10.030   3.020   0.007  0.2221  0.2567  0.1086
29875W        W46136  15.014   2.799  15.821  0.2625  0.0806  0.2227
29876W        W46137   4.385  17.704  16.679  0.1558  0.2325  0.0080
29877W        W46138  12.282  15.565  16.646  0.1583  0.0696 -0.0772
29878W        W46139  11.449  16.828   2.818  0.3119  0.1253  0.1808
29879W        W46140  12.572  16.155  14.652  0.0428 -0.3653 -0.1630
29880W        W46141   0.969  14.733  11.621  0.3089  0.3663 -0.0239
29881W        W46142   1.838   6.586  16.935 -0.0204 -0.0906 -0.2049
29882W        W46143   8.756   2.676  14.678 -0.2185 -0.1505  0.1689
29883W        W46144  11.410  17.780   6.160 -0.2047 -0.0183  0.3102
29884W        W46145   9.952   4.799   1.148 -0.3375  0.0925  0.0014
29885W        W46146   5.132  12.075  15.349  0.0715  0.0628  0.0945
29886W        W46147   9.397  16.191   0.109  0.0296  0.1269 -0.0478
29887W        W46148   3.564  17.615   2.439  0.3113 -0.0857  0.0447
29888W        W46149   6.903  11.666   4.053 -0.1032  0.0284  0.1489
29889W        W46150  16.870  16.154   4.277 -0.3537 -0.0106 -0.0278
29890W        W46151  15.210  17.215  14.350  0.3672  0.2199 -0.0625
29891W        W46152  10.129   6.423   5.059 -0.1859  0.1291 -0.1888
29892W        W46153  16.155   4.305  12.064 -0.4787 -0.1153 -0.0413
29893W        W46154   5.717  15.372  16.338 -0.1226 -0.2602 -0.0006
29894W        W46155  11.668   1.400  16.033  0.0763 -0.2397 -0.1329
29895W        W46156  16.895  13.725  13.149  0.1147 -0.0783  0.1944
29896W        W46157   7.385   4.781  14.821  0.2537  0.0879  0.1737
29897W        W46158   9.188  17.846   4.496  0.0167 -0.0519 -0.0670
29898W        W46159   9.164   2.756   2.963  0.0565  0.1225 -0.0658
29899W        W46160   2.733   0.994   4.945  0.1905 -0.0270  0.2210
29900W        W46161   7.079  12.742   6.018  0.0844  0.1686 -0.2681
29901W        W46162   1.694  12.167   1.195  0.2075 -0.2355  0.1738
29902W        W46163   7.215   4.294   5.833 -0.2038 -0.0058  0.0955
29903W        W46164  16.638   3.446  13.965 -0.0026 -0.0881  0.3038
29904W        W46165   2.208  11.769   4.676 -0.0800 -0.0251 -0.0620
29905W        W46166   7.968  17.728  13.764  0.0644  0.0280 -0.0239
29906W        W46167   3.745  17.747  14.925 -0.1141 -0.0596  0.2987
29907W        W46168   7.663  12.876  13.033  0.0942 -0.1066 -0.2272
29908W        W46169   0.297  17.678   0.513  0.0286  0.0232  0.2994
29909W        W46170  15.885  11.807   4.241 -0.1058  0.2686  0.0534
29910W        W46171  10.919  15.363   3.141  0.0213 -0.1900  0.0034
29911W        W46172  15.778   6.522   5.981  0.0348 -0.1809 -0.1528
29912W        W46173   2.053   9.326   5.660  0.0903  0.0835 -0.1785
29913W        W46174  16.374  11.730   4.980  0.3025  0.3732  0.0001
29914W        W46175  15.132   3.483  13.084  0.2685 -0.0252 -0.0253
29915W        W46176  17.451  13.930  13.866 -0.2347 -0.2339  0.3619
29916W        W46177   5.905   1.710   2.019 -0.1313 -0.3797 -0.1344
29917W        W46178   7.021  13.366   1.707 -0.3311  0.0430 -0.0780
29918W        W46179  17.416   6.567  15.597  0.2121 -0.0019  0.1773
29919W        W46180   2.676  14.253   1.643 -0.0693  0.3103  0.0676
29920W        W46181   0.170   5.647  15.420 -0.0490 -0.0426  0.2688
29921W        W46182  11.226  12.611  12.430  0.0308 -0.1921 -0.1510
29922W        W46183   2.909  13.948   0.799  0.2065 -0.1109 -0.1745
29923W        W46184   3.404   9.675   4.517  0.2285 -0.1163 -0.0158
29924W        W46185   5.989   7.727  16.329 -0.0246  0.1261  0.0893
29925W        W46186   2.943  15.265  15.380  0.1057  0.0253 -0.2900
29926W        W46187   0.307  12.683  14.092 -0.0192  0.0569  0.1447
29927W        W46188   3.294   3.088   0.662  0.0215 -0.2264  0.2136
29928W        W46189  11.755   9.451   0.182  0.2794  0.2369  0.1300
29929W        W46190  17.257   1.604   0.598 -0.2761 -0.1225  0.2326
29930W        W46191   4.835  11.749   4.085 -0.0965 -0.1299 -0.0116
29931W        W46192   5.673  13.861  14.955 -0.1442  0.0714  0.0176
29932W        W46193   4.069  10.175   5.472  0.5151  0.1296  0.1911
29933W        W46194   8.264   0.379   5.193  0.0224 -0.0746 -0.1141
29934W        W46195  10.055  12.664   5.063 -0.2811  0.0571  0.0488
29935W        W46196   8.958  11.167   3.847  0.2440 -0.1824 -0.1668
29936W        W46197  13.668   5.987  13.892 -0.2369  0.1529 -0.1878
29937W        W46198   8.310   5.099  12.506  0.1048 -0.3881 -0.0741
29938W        W46199   8.981   2.626   0.558 -0.1695 -0.1929  0.1282
29939W        W46200  13.776   5.839  13.015 -0.1095 -0.1945  0.2264
29940W        W46201  15.110   3.936   1.779 -0.1801 -0.0014 -0.1009
29941W        W46202   7.980   0.584   6.116  0.0228  0.2346  0.0747
29942W        W46203  13.365  14.721   0.679  0.0984  0.1174 -0.0633
29943W        W46204  17.521   2.609   5.700  0.1256 -0.2253 -0.2803
29944W        W46205  16.071   8.042  15.562  0.2765 -0.0868 -0.0014
29945W        W46206   2.733   9.614  15.929  0.0409  0.2031 -0.0030
29946W        W46207  10.141  13.872  16.265 -0.1310 -0.3209 -0.2890
29947W        W46208   9.290   4.500  13.821  0.0760 -0.2834 -0.0256
29948W        W46209  13.451   1.178  13.463  0.2101  0.0297  0.1994
29949W        W46210   0.764  12.645  13.804 -0.1391  0.1277  0.2652
29950W        W46211  12.530   3.440  14.062 -0.0656 -0.0159 -0.1728
29951W        W46212   8.276  15.141   2.050  0.1977  0.0368  0.2502
29952W        W46213   7.497  17.052  15.366  0.4500  0.0654  0.0959
29953W        W46214  15.293  14.596   2.289  0.2399  0.2775  0.0257
29954W        W46215   0.790   0.225   3.846  0.2271 -0.2895  0.0299
29955W        W46216   3.208  11.801  16.148 -0.2035  0.1129  0.1853
29956W        W46217   5.171  12.811   5.439 -0.2005  0.1141  0.2433
29957W        W46218  12.063  16.292  13.725  0.0900 -0.1855  0.1184
29958W        W46219  10.425   7.990   4.119 -0.0013 -0.1148 -0.1696
29959W        W46220  13.828  15.790   5.867 -0.1016 -0.0008  0.2862
29960W        W46221   1.169  14.759   3.205  0.0216  0.4010  0.3038
29961W        W46222  14.611  12.555   3.812  0.1775 -0.2174  0.1546
29962W        W46223  12.471  13.275   4.177 -0.0028  0.0432  0.0090
29963W        W46224  11.208  11.591  13.694  0.0192 -0.3012 -0.0455
29964W        W46225  12.109  17.598  15.948 -0.0737  0.2214  0.0239
29965W        W46226  10.035   6.975  13.920 -0.0026  0.1202  0.0375
29966W        W46227   9.168   0.120  13.859  0.0237  0.0872 -0.2883
29967W        W46228  14.223   4.332  16.875 -0.1729 -0.3328 -0.0549
29968W        W46229   0.201  13.037  12.298  0.3769  0.0502 -0.1184
29969W        W46230   6.185   6.003   1.720 -0.0686  0.0532 -0.2190
29970W        W46231   5.138   2.431   4.818  0.1040  0.1503 -0.1942
29971W        W46232   0.325  10.645   4.382 -0.2066 -0.1581 -0.2048
29972W        W46233   5.015  15.985  13.565  0.2295 -0.4308 -0.0098
29973W        W46234   7.685   1.974  15.367  0.0269  0.3295  0.1101
29974W        W46235  11.493   8.042  16.349  0.1687 -0.0862  0.0139
29975W        W46236  11.901  15.335   4.465  0.1961 -0.1192 -0.1558
29976W        W46237   5.779   7.232  16.852  0.2151  0.0098  0.1046
29977W        W46238  16.211   2.814  11.624 -0.0920  0.2040  0.2927
29978W        W46239  12.125   8.931  14.466  0.0852 -0.1060 -0.0874
29979W        W46240  12.048  12.903  14.291 -0.1055  0.2981 -0.0419
29980W        W46241  10.876  13.962   0.664 -0.1517 -0.2219 -0.1052
29981W        W46242   6.325  17.387  13.628 -0.1287 -0.0812 -0.0612
29982W        W46243   2.955   3.251  12.662  0.4972  0.2009  0.0342
29983W        W46244  15.844   1.584  15.618  0.1227 -0.3565  0.0929
29984W        W46245   7.579   7.946   2.060 -0.3470  0.1372 -0.0979
29985W        W46246   2.668  11.234  16.811 -0.1860  0.0112  0.2582
29986W        W46247   4.564   1.835   0.999  0.1046 -0.1040  0.1503
29987W        W46248  14.804  13.776  15.925  0.0927  0.1437  0.1827
29988W        W46249   9.512   5.717   4.225  0.0717 -0.2340 -0.1279
29989W        W46250   1.567   4.694   1.669 -0.1456 -0.1137  0.0709
29990W        W46251  13.577  13.078   0.807  0.2805 -0.2012  0.1618
29991W        W46252   4.814  13.207  11.502 -0.1650  0.1412 -0.2162
29992W        W46253  17.675  13.289  12.101 -0.3335  0.2730 -0.0762
29993W        W46254  10.856  14.788   5.013 -0.3137 -0.0670 -0.0609
29994W        W46255  13.328   9.641  15.213 -0.0357  0.0469 -0.1741
29995W        W46256   4.466  12.465   5.526 -0.1437 -0.0560  0.1329
29996W        W46257   2.763   0.232   2.437 -0.6130  0.1404  0.0701
29997W        W46258   1.525  12.046  14.663 -0.1385  0.3952 -0.1776
29998W        W46259   2.123   0.769  15.107  0.0355 -0.2462 -0.1886
29999W        W46260  16.532   1.141   5.865  0.1994  0.1228 -0.0475
30000W        W46261  16.153  15.727   1.514 -0.2087  0.0655 -0.1487
30001W        W46262   8.602  16.897   1.169  0.2862 -0.1891  0.0013
30002W        W46263  15.856  11.112  12.603 -0.0310  0.2753 -0.2692
30003W        W46264  12.897   4.349  12.468 -0.0371 -0.1171 -0.0969
30004W        W46265   1.365  10.661  14.269 -0.0082  0.1703  0.0140
30005W        W46266  14.844   2.276  14.528 -0.0213  0.2394  0.0254
30006W        W46267   6.081  12.097  11.656  0.1059 -0.2116  0.2507
30007W        W46268  17.056  14.768   6.173  0.0509 -0.4461  0.1283
30008W        W46269   1.974  13.991  15.575 -0.0278  0.0974  0.1376
30009W        W46270  12.339  13.532   2.874  0.2585  0.0902 -0.1737
30010W        W46271  15.320   5.136  13.780 -0.2398 -0.0630 -0.3843
30011W        W46272   9.047  16.850  11.005 -0.1724 -0.1773 -0.3325
30012W        W46273  11.209   4.320  16.696  0.0165 -0.0532 -0.1579
30013W        W46274   0.346   9.955   5.632  0.1495 -0.0205  0.0740
30014W        W46275   8.447   6.357  16.658 -0.0292 -0.2221 -0.3350
30015W        W46276  13.100  17.418  16.424 -0.0957 -0.0412  0.2623
30016W        W46277  16.540   1.417   3.696  0.0360  0.0617 -0.4091
30017W        W46278   4.845  15.006   1.742 -0.1945  0.0262  0.0651
30018W        W46279  16.986  11.783  13.526 -0.1546 -0.0013 -0.2219
30019W        W46280   7.822  10.051  12.147  0.3602 -0.1047  0.3035
30020W        W46281   6.681   5.087  13.486  0.2277 -0.1259  0.0670
30021W        W46282  12.688  15.713  14.167 -0.3351  0.0804 -0.1345
30022W        W46283   9.036  14.428   0.514  0.1540  0.3271 -0.0614
30023W        W46284   3.378   1.665  16.621 -0.0023 -0.0434 -0.1846
30024W        W46285   8.360  15.543   0.825 -0.1319 -0.1145  0.0349
30025W        W46286  17.420   7.238   0.714 -0.0495  0.1127  0.4318
30026W        W46287  13.484  17.376   2.713  0.2479  0.0972  0.1424
30027W        W46288   2.411   3.475  13.219 -0.2111 -0.0546  0.1970
30028W        W46289  10.311  11.577   1.452 -0.0705  0.2510  0.2365
30029W        W46290  16.283   3.408   5.004  0.0757 -0.0195 -0.1783
30030W        W46291  11.320   2.521   3.216  0.1845 -0.1082 -0.0002
30031W        W46292  16.602   3.452  15.508 -0.0590  0.2176  0.0304
30032W        W46293  10.669   4.395  16.709  0.1823  0.1365  0.0514
30033W        W46294  10.163   2.482  15.077 -0.1777  0.0393  0.0988
30034W        W46295  12.063  11.772   1.969 -0.0837  0.2376 -0.1396
30035W        W46296  17.511   1.067  12.145 -0.1340 -0.1645 -0.2407
30036W        W46297   0.751  10.769   2.890 -0.2515  0.3086  0.2243
30037W        W46298   3.463   9.149   2.660 -0.0985 -0.0074 -0.2502
30038W        W46299   4.622  10.168   4.180 -0.0925 -0.0345  0.2447
30039W        W46300   2.669   8.065   2.607 -0.6297 -0.1225  0.2869
30040W        W46301   6.163   9.844  12.965  0.0274 -0.1316  0.0948
30041W        W46302   3.392   4.683   2.608 -0.0619 -0.0606  0.1133
30042W        W46303   4.379   7.240  12.199 -0.1124 -0.1019 -0.0880
30043W        W46304  10.521  17.369   3.317 -0.0394 -0.0130  0.0039
30044W        W46305  12.619   8.795   3.959 -0.0742 -0.1448  0.5679
30045W        W46306   9.039   9.180  14.787 -0.0326  0.2488 -0.1075
30046W        W46307   2.471   9.219   4.681 -0.0989 -0.0175 -0.0865
30047W        W46308  12.154   9.399   5.821 -0.2288  0.1153 -0.1921
30048W        W46309   7.031  11.657   3.064 -0.0811  0.2923  0.0229
30049W        W46310  14.576   2.966  16.668 -0.0354 -0.1817 -0.0776
30050W        W46311  12.816  14.541  16.253 -0.1419 -0.0088  0.0798
30051W        W46312   1.112   8.221   3.895  0.0003 -0.3601  0.1303
30052W        W46313  12.371  10.901  11.889 -0.2016 -0.0182 -0.2621
30053W        W46314   1.509   1.998  13.829 -0.1550 -0.1107 -0.3539
30054W        W46315  12.272   8.653   3.588 -0.1086 -0.0296 -0.0439
30055W        W46316   8.627  12.783   2.655  0.1879 -0.1013 -0.0399
30056W        W46317   9.401  11.889   0.074 -0.2445  0.0164  0.1088
30057W        W46318  14.264   1.920   4.079  0.0284 -0.1819 -0.2534
30058W        W46319  17.439   5.556   3.215  0.1540 -0.1957 -0.2966
30059W        W46320   1.798  13.383  14.988  0.2809 -0.1434  0.0640
30060W        W46321   3.379  10.198   1.716  0.1897  0.0140  0.0996
30061W        W46322   8.297  13.103  14.200  0.0410 -0.1174 -0.0466
30062W        W46323   0.198   0.611   1.070 -0.3817 -0.0216 -0.0606
30063W        W46324   4.166   7.862   1.106 -0.2344  0.0681 -0.0078
30064W        W46325  14.668   1.977   2.388  0.3280  0.0823 -0.0199
30065W        W46326  10.014  12.970  12.923  0.3733  0.2179 -0.1398
30066W        W46327  16.118   4.710   5.298  0.3038 -0.1580 -0.2949
30067W        W46328  16.767   1.254   1.363 -0.0965  0.0019 -0.1190
30068W        W46329   1.685   6.835  13.749 -0.1201 -0.0391  0.1734
30069W        W46330   6.424  10.416   2.821 -0.2187  0.0978  0.0322
30070W        W46331   8.893   7.492  16.410  0.0045  0.2904 -0.1831
30071W        W46332  16.922   0.998   0.595 -0.2065  0.1007 -0.2033
30072W        W46333   7.060   3.231  11.848 -0.0206  0.3105 -0.0809
30073W        W46334  15.380   0.134  15.271 -0.0441 -0.2725 -0.2660
30074W        W46335  17.462  11.012  13.510  0.0899  0.2494 -0.1855
30075W        W46336   9.506   4.839  13.064  0.0496  0.1921  0.1449
30076W        W46337   6.031   7.296   5.425 -0.0153  0.2099  0.2229
30077W        W46338  15.824  14.781  13.259  0.0274  0.0207  0.0408
30078W        W46339   8.272   6.391   2.763  0.1412 -0.0193  0.1220
30079W        W46340   5.024   8.512  15.707 -0.2101 -0.1560  0.0700
30080W        W46341  10.642  12.226  13.015 -0.1340 -0.1246 -0.0682
30081W        W46342   6.945  14.665  16.024 -0.0119 -0.2119  0.1436
30082W        W46343  17.575   9.855   1.744 -0.1470 -0.4701 -0.1376
30083W        W46344  11.468  11.424  14.090 -0.1009 -0.2449 -0.1453
30084W        W46345   8.358  17.559  14.003  0.0476 -0.0751 -0.1898
30085W        W46346  15.682   7.066   2.062  0.2899  0.2178 -0.0040
30086W        W46347   3.861  12.091  12.189 -0.2406 -0.0977 -0.0486
30087W        W46348  13.952   6.032   2.544 -0.0148  0.1574  0.1209
30088W        W46349  12.582   0.915  13.512 -0.2001 -0.6095 -0.1376
30089W        W46350  13.905   3.869   0.225  0.1478 -0.2548  0.2281
30090W        W46351  11.003  17.118  11.806  0.0499 -0.0678  0.1997
30091W        W46352   8.005   1.596  12.421  0.1423 -0.0759  0.1900
30092W        W46353   3.863  13.319   1.729  0.1607 -0.1105  0.0673
30093W        W46354   7.807   1.165  14.304  0.1665 -0.0201 -0.3262
30094W        W46355   2.793   0.539  11.649  0.1703 -0.0401  0.0690
30095W        W46356  14.906  17.358  14.817  0.0252 -0.1045  0.0116
30096W        W46357   0.002   0.133   0.248  0.1807 -0.0064 -0.0687
30097W        W46358  12.173   1.915  11.748  0.0606  0.1643  0.0598
30098W        W46359   5.353  13.907   2.829 -0.1481 -0.0009  0.1652
30099W        W46360   4.804  14.851  15.581  0.0784 -0.0602  0.0152
30100W        W46361   3.649  14.155   1.779 -0.1043  0.2549 -0.2676
30101W        W46362  16.497   2.691  13.268  0.0970  0.2253  0.0299
30102W        W46363   4.291   9.811   5.812 -0.3554  0.0836 -0.0530
30103W        W46364  11.866  14.995  15.115  0.0771  0.0255  0.1231
30104W        W46365   2.534  11.610  15.251  0.2253  0.0237 -0.2268
30105W        W46366  15.007   2.283   2.576  0.1638  0.4055 -0.1853
30106W        W46367   9.940  17.451   4.229 -0.0351 -0.1380 -0.1883
30107W        W46368   0.186  17.796   0.975  0.0107  0.0389 -0.3409
30108W        W46369   8.319  16.081   5.059  0.1243 -0.1786 -0.0407
30109W        W46370   1.081   7.333  15.359  0.0616 -0.0426 -0.1082
30110W        W46371  11.010  16.378   1.226  0.1706  0.1383 -0.0216
30111W        W46372  10.149  17.070   2.061  0.1532  0.0448 -0.2721
30112W        W46373   0.729  16.332   5.071  0.3685  0.1181  0.4244
30113W        W46374   6.016   1.090  16.925  0.1280 -0.3591 -0.1073
30114W        W46375  15.538   6.615   0.028 -0.2145 -0.0666 -0.1000
30115W        W46376   7.836   0.646   5.438 -0.1173 -0.3591 -0.1799
30116W        W46377   0.460   7.291  15.261  0.2480 -0.1290  0.1283
30117W        W46378   4.599   0.408  13.317  0.1141 -0.0248  0.2048
30118W        W46379   2.787   3.036   4.041 -0.1607  0.2175 -0.0215
30119W        W46380  16.330  13.367  11.017 -0.0306  0.1650  0.2730
30120W        W46381  15.264   8.816  12.681 -0.1749 -0.0370  0.0575
30121W        W46382  13.135   6.269   6.219 -0.4040  0.3329 -0.0532
30122W        W46383   6.534  12.279  15.354  0.4223 -0.2929 -0.3555
30123W        W46384  13.399  13.265  16.105 -0.0466 -0.0567  0.1627
30124W        W46385   5.686  12.585   5.497  0.0918  0.1540 -0.2223
30125W        W46386  17.101   9.608   0.646 -0.0729 -0.0512 -0.1181
30126W        W46387  11.456  17.597   3.494  0.1807 -0.0943 -0.0634
30127W        W46388  10.383  10.540   5.380  0.0335  0.0289  0.1632
30128W        W46389  17.194   6.194   1.522  0.0663  0.1804  0.1190
30129W        W46390  16.832   6.724   4.757  0.0088 -0.2145 -0.0878
30130W        W46391  15.115   9.802  12.760  0.0820  0.2292 -0.0690
30131W        W46392  16.949   7.759   3.361 -0.0768 -0.3326 -0.0430
30132W        W46393   6.899  12.546   0.760  0.0517 -0.0700 -0.2627
30133W        W46394  10.406   7.083   2.314  0.1387 -0.2457 -0.1918
30134W        W46395   8.445   1.199  16.146 -0.0732  0.1336 -0.0228
30135W        W46396  13.527   0.270   5.029  0.1689 -0.1648 -0.1540
30136W        W46397   3.180  10.367   4.146  0.0364  0.2906 -0.2277
30137W        W46398   0.886  14.226   5.658 -0.3389  0.1114 -0.3804
30138W        W46399   4.810   7.013   2.783  0.2902 -0.1042 -0.1082
30139W        W46400  12.357  15.473   4.715 -0.4086 -0.2780  0.1523
30140W        W46401  10.317   8.493   2.385 -0.1451  0.1209 -0.1641
30141W        W46402   0.021  13.507   4.655 -0.0841 -0.3349  0.2417
30142W        W46403   7.728   3.598   1.242 -0.0673  0.1241  0.0135
30143W        W46404   0.264   9.946   0.266  0.4227  0.3577  0.4008
30144W        W46405   3.948   6.880   3.260  0.0642  0.1220 -0.0242
30145W        W46406   0.030   0.744  13.829 -0.1819 -0.1276 -0.3236
30146W        W46407  14.344  17.261  16.469 -0.2473  0.3239  0.3594
30147W        W46408   6.869   4.018   3.105  0.3453  0.2122  0.0866
30148W        W46409   3.718  13.946  16.208 -0.1766  0.0279 -0.1212
30149W        W46410  12.771   6.947   0.262 -0.1096  0.0854  0.0984
30150W        W46411   9.999  17.345  12.552  0.0844 -0.1490  0.0083
30151W        W46412   5.231   7.835   4.310  0.0846 -0.1635 -0.1602
30152W        W46413   5.597   5.709   5.834  0.1535  0.0549 -0.2752
30153W        W46414   7.608  10.957  16.335 -0.3089  0.0980 -0.0834
30154W        W46415   3.071   6.917   5.619 -0.0555  0.1915 -0.3361
30155W        W46416   2.165   4.401   3.756 -0.0952 -0.1293  0.1341
30156W        W46417  16.956   9.883  15.667 -0.1080 -0.2530 -0.0086
30157W        W46418  15.175  15.620  15.346 -0.0266 -0.0040 -0.3112
30158W        W46419  12.334  16.787  14.557  0.4069  0.2352 -0.1029
30159W        W46420  11.640  14.876   0.616 -0.1320 -0.0661  0.0899
30160W        W46421  16.507  16.295   0.544  0.2345 -0.0807  0.0380
30161W        W46422   0.278  16.944   1.997 -0.0149  0.0930  0.0422
30162W        W46423   9.998   3.795   1.611 -0.0873 -0.0596 -0.2173
30163W        W46424  17.645   3.460   4.249  0.0896 -0.1869 -0.1936
30164W        W46425   7.555  16.473   2.014 -0.2710 -0.2958  0.0374
30165W        W46426   4.162  13.108  15.283  0.0320  0.0340 -0.2729
30166W        W46427   2.913   6.028  16.221  0.1416  0.0452  0.0445
30167W        W46428  15.139   0.143   2.256  0.1816  0.1142 -0.1610
30168W        W46429   9.008   2.078   3.665 -0.3222 -0.0836 -0.0847
30169W        W46430   8.084  10.994   0.920 -0.0930 -0.0635 -0.0533
30170W        W46431   3.447   1.469   0.096 -0.1050  0.0879  0.3162
30171W        W46432  12.072  10.999   3.685  0.0224 -0.1725  0.0848
30172W        W46433   5.963  17.085   4.156 -0.1280  0.0602  0.5467
30173W        W46434   5.427  12.644   5.056  0.2627 -0.3729  0.2775
30174W        W46435  14.756   6.057   2.551 -0.0521  0.0855  0.0482
30175W        W46436   9.448  16.568  16.067  0.1587 -0.0100 -0.0262
30176W        W46437   0.488   7.036   4.331  0.1132 -0.0264 -0.0069
30177W        W46438   9.351  17.445   1.960  0.0088 -0.1028 -0.0813
30178W        W46439  16.587   0.900   5.434 -0.1302 -0.1484 -0.3592
30179W        W46440  16.219   8.800   0.025  0.1093  0.0233 -0.1330
30180W        W46441   6.437   0.484  16.160  0.0371 -0.1477  0.0670
30181W        W46442   2.201   5.482   0.821  0.1256 -0.1003 -0.0509
30182W        W46443  16.397  17.266   2.514 -0.0225  0.1417  0.1589
30183W        W46444   4.658  17.349  11.873 -0.2049  0.0429 -0.2933
30184W        W46445  10.120   3.283   4.866 -0.0345  0.1002 -0.0833
30185W        W46446  16.995   2.857   3.326 -0.1717 -0.5574 -0.1060
30186W        W46447   8.650   1.017   2.812 -0.1877  0.1635 -0.0354
30187W        W46448   0.901   5.602  12.729  0.1881 -0.1575 -0.1901
30188W        W46449  15.399   2.326   5.096  0.3613  0.0147  0.0507
30189W        W46450  11.744   3.497  11.815 -0.2151 -0.1020 -0.0133
30190W        W46451  13.871   8.705   3.246  0.3932 -0.3292 -0.4076
30191W        W46452   2.945   7.546   1.172  0.2435 -0.0339 -0.3524
30192W        W46453  12.148   7.163  15.046 -0.1033  0.1712  0.1517
30193W        W46454  11.389  15.840  14.330 -0.2472 -0.2943  0.0027
30194W        W46455   4.200   1.530   5.056  0.1862 -0.0313 -0.3357
30195W        W46456  10.161  10.390   1.767  0.0332 -0.1643 -0.3814
30196W        W46457   4.635   8.095   4.962 -0.1358 -0.0673  0.0350
30197W        W46458   1.529   2.195   4.243  0.0090 -0.0535 -0.2728
30198W        W46459  13.002   5.369  11.462  0.0534  0.0870  0.0453
30199W        W46460   8.516  17.559   4.085  0.0036 -0.0402  0.2036
30200W        W46461   0.233   5.956   0.102 -0.1826 -0.0234 -0.1306
30201W        W46462   8.641  16.372  16.147  0.0732 -0.4411 -0.1116
30202W        W46463   2.704  12.141   5.852 -0.0210  0.0987  0.1040
30203W        W46464   7.347  13.849  12.729  0.3107 -0.3010 -0.0401
30204W        W46465   7.046  17.316  15.451  0.3511  0.0262  0.2286
30205W        W46466   9.680   8.229   3.035 -0.0138 -0.0029  0.1368
30206W        W46467   5.794  12.133   4.286 -0.0646  0.0575  0.1474
30207W        W46468   3.093   8.418   1.689 -0.0433  0.1584  0.3638
30208W        W46469  12.486   7.994   3.511 -0.0646  0.0011  0.1086
30209W        W46470   6.435   0.122   4.523  0.3454  0.3462  0.0813
30210W        W46471   6.538  10.753   4.383 -0.1638  0.1506  0.3503
30211W        W46472  10.224  12.491   1.174  0.2787 -0.1767 -0.0670
30212W        W46473  10.487  13.049  11.580 -0.1530 -0.1922  0.1133
30213W        W46474   7.355   2.085  12.935  0.0115 -0.4543 -0.3721
30214W        W46475   8.154  13.632   4.496 -0.0350 -0.4114  0.2289
30215W        W46476  16.359  13.287   1.104 -0.2838  0.0997 -0.0030
30216W        W46477   3.339   1.366   5.736 -0.0185  0.0960 -0.2202
30217W        W46478  11.780  17.409  13.334 -0.0153 -0.1051 -0.0609
30218W        W46479   1.149  14.238   3.948  0.3984 -0.0520 -0.1822
30219W        W46480   3.438  15.315   3.437 -0.2097  0.3234  0.0482
30220W        W46481  16.791  10.387  13.916  0.0188  0.0303 -0.0839
30221W        W46482  11.230  15.774   4.762  0.4166 -0.0884 -0.0676
30222W        W46483  15.882   9.806   1.180 -0.0933  0.4548 -0.2613
30223W        W46484   7.894   9.377  12.719  0.2340 -0.0519  0.1295
30224W        W46485  12.932  10.624   4.335  0.0327 -0.4077  0.0946
30225W        W46486   4.551  12.473  14.952  0.0603  0.0046 -0.3185
30226W        W46487   5.038   5.621  15.675  0.0103 -0.1176  0.2461
30227W        W46488  14.127   0.475   0.930  0.1122 -0.0965  0.0812
30228W        W46489   0.457  14.668  14.487  0.0001  0.2381 -0.0753
30229W        W46490  10.999   4.367   3.032 -0.1018 -0.1495 -0.2427
30230W        W46491   2.540  17.703   4.809  0.2664 -0.0772  0.1127
30231W        W46492   6.498  10.663   5.167  0.2187 -0.0674  0.1516
30232W        W46493  11.190  11.973  14.656 -0.2207  0.1288 -0.1562
30233W        W46494  16.781   6.911  16.919 -0.1024 -0.0352 -0.1478
30234W        W46495   3.241   5.244   4.770  0.4201  0.1330  0.0386
30235W        W46496  10.399   8.588  16.931 -0.1977  0.0075  0.1103
30236W        W46497   8.432   1.404   0.587  0.1132 -0.3011 -0.2113
30237W        W46498  10.754   1.005   0.904 -0.4005 -0.1378  0.0469
30238W        W46499   9.383   7.197   5.321 -0.0777 -0.0151  0.3543
30239W        W46500  10.770  12.431  12.499 -0.0548  0.0560  0.2038
30240W        W46501   5.311   1.721   4.351 -0.0244 -0.1344  0.0778
30241W        W46502   3.142   4.413  13.624  0.1022  0.1103  0.0737
30242W        W46503   4.236   3.857  16.727  0.1184  0.0840  0.0823
30243W        W46504   2.679  15.709  12.878  0.1204  0.1616 -0.1468
30244W        W46505   3.401  13.385   1.475 -0.1119 -0.0920  0.0260
30245W        W46506  13.952  15.365   0.159  0.0453 -0.0535  0.3755
30246W        W46507   1.100  13.395   3.967  0.0291 -0.2465 -0.0241
30247W        W46508   3.595   4.360  11.651 -0.1049 -0.2130  0.2534
30248W        W46509  10.915  17.170   0.462  0.2371  0.4499  0.0049
30249W        W46510  16.231   7.711  16.572  0.1047 -0.0762 -0.0999
30250W        W46511  10.743   8.415   0.304 -0.2025  0.2395  0.0521
30251W        W46512   5.453   7.356   4.287  0.1333 -0.1762 -0.1358
30252W        W46513   6.142  16.714   4.934 -0.2041  0.2361 -0.0184
30253W        W46514  17.846   3.896  13.278 -0.0535  0.0698  0.0734
30254W        W46515   1.200   6.275   4.635 -0.3360 -0.1606 -0.2278
30255W        W46516  16.246   1.029  16.186 -0.0424  0.0304  0.1489
30256W        W46517   8.446   2.009   3.477 -0.0670  0.0100 -0.0065
30257W        W46518   8.333  10.080   3.069  0.3740 -0.0701 -0.0715
30258W        W46519  12.119   3.744  16.760 -0.2491 -0.3344 -0.0813
30259W        W46520   8.535  17.428  12.479  0.1738 -0.2317  0.1447
30260W        W46521  12.441   8.121  11.956 -0.1044 -0.1156 -0.0989
30261W        W46522  13.706  11.990  15.157 -0.0100 -0.0538  0.2353
30262W        W46523  14.498   9.110  13.994 -0.1961 -0.1469 -0.1887
30263W        W46524   4.778   3.320   1.841 -0.0681 -0.1276 -0.0933
30264W        W46525   1.583   3.590  12.005  0.2516  0.1317 -0.1733
30265W        W46526  10.027   0.022  13.309  0.0234  0.0181 -0.0690
30266W        W46527   7.899  11.740   2.676 -0.1092 -0.3728 -0.3403
30267W        W46528  10.489  16.850   5.739 -0.0345 -0.2982  0.0793
30268W        W46529  17.858   9.041   0.664 -0.0933  0.0796 -0.2322
30269W        W46530   4.816  17.828   1.896 -0.0853 -0.3652  0.0083
30270W        W46531   6.937   6.398   2.896 -0.0777  0.2579  0.0522
30271W        W46532   4.340   4.532   1.211  0.2115  0.0064  0.2147
30272W        W46533  17.555  17.670  14.631 -0.2203  0.0597  0.3470
30273W        W46534   4.875   3.617   0.978 -0.2308 -0.1838 -0.2050
30274W        W46535   6.213  11.666   2.715 -0.0711  0.0554 -0.2853
30275W        W46536   4.644  11.798   1.249  0.0064  0.0174 -0.3188
30276W        W46537   0.867   9.184   0.238 -0.2323  0.2683 -0.1058
30277W        W46538   5.165   5.412   5.096 -0.1655 -0.0701 -0.2028
30278W        W46539   7.768  11.028  16.789  0.1172 -0.3139 -0.0177
30279W        W46540  12.053  12.133   0.706 -0.1002  0.0015  0.0344
30280W        W46541   3.143  13.608  16.850  0.5617 -0.0137  0.3092
30281W        W46542  12.542   2.360  12.867 -0.0425  0.0602 -0.0910
30282W        W46543   1.537  11.015  16.100 -0.3591  0.1609 -0.4484
30283W        W46544   7.340  13.118  15.194 -0.1979 -0.1040  0.0777
30284W        W46545   6.800  11.198   5.312  0.1370 -0.0847  0.1146
30285W        W46546  11.926  14.881   5.174  0.1519 -0.1400  0.2936
30286W        W46547   6.392   5.055   1.682  0.0851 -0.2530 -0.1997
30287W        W46548   1.916   7.468  12.302 -0.1178  0.4633 -0.1556
30288W        W46549  16.932  13.913   4.641 -0.2948  0.0924  0.2710
30289W        W46550  17.711  13.049  14.913  0.0994 -0.1041 -0.3930
30290W        W46551   9.088  17.059  15.546  0.1623 -0.1528 -0.2269
30291W        W46552   2.969   3.453   0.341 -0.3120  0.1390 -0.2232
30292W        W46553   6.246   4.474  13.179  0.1030  0.0766  0.0316
30293W        W46554  15.054   0.605   1.192 -0.0755  0.1755 -0.1574
30294W        W46555  12.116   0.427   3.454  0.0541  0.1019  0.1492
30295W        W46556   3.457   6.088   4.184  0.0392  0.4309 -0.1098
30296W        W46557  10.450  16.227   2.906  0.0424 -0.1230  0.1247
30297W        W46558  15.354  12.765   0.213  0.0356  0.3798 -0.0532
30298W        W46559   2.078   9.721   6.475 -0.0170  0.2637  0.1243
30299W        W46560  13.350   7.922   2.105  0.0815  0.0673 -0.0039
30300W        W46561  10.412   8.068  15.335 -0.2230  0.4312 -0.2378
30301W        W46562  17.292   4.826   5.301  0.0619 -0.0210 -0.2711
30302W        W46563  14.944   6.835   5.683 -0.0563 -0.0034  0.0830
30303W        W46564  10.603   9.170  12.052 -0.0164 -0.0512  0.2632
30304W        W46565  11.197   9.476   0.413  0.0821 -0.3426  0.1135
30305W        W46566  16.940   4.965  11.417  0.0251  0.1118  0.2705
30306W        W46567   1.766   0.341   1.716 -0.2901 -0.1302  0.2536
30307W        W46568   4.466   4.349   3.607  0.3399 -0.0062  0.0045
30308W        W46569   7.018   9.332   0.188 -0.1447  0.1325 -0.1811
30309W        W46570   9.063   0.556   4.468  0.1005 -0.2165  0.1050
30310W        W46571   4.450   4.520  12.912  0.1231  0.0075  0.1578
30311W        W46572   8.648   8.786   2.336 -0.1413 -0.0020  0.2943
30312W        W46573   1.198  15.991   2.276  0.1614  0.1478  0.3791
30313W        W46574   9.668   4.679   0.145 -0.3093  0.2388 -0.1609
30314W        W46575  10.573   6.396  16.583 -0.1567  0.1194 -0.1802
30315W        W46576  12.491  11.773  15.865 -0.0737 -0.1703  0.1385
30316W        W46577  12.111   8.378  11.708 -0.2267  0.0264 -0.4794
30317W        W46578   5.240   6.865   4.983  0.0432  0.0293 -0.1227
30318W        W46579   7.241  15.892   2.169 -0.0543 -0.1646 -0.1307
30319W        W46580   9.500  12.254   3.377 -0.0538 -0.2163  0.0147
30320W        W46581   5.657  14.786  14.599  0.2150 -0.0597  0.1573
30321W        W46582  13.662   0.664  13.494  0.1307 -0.0385  0.0923
30322W        W46583   8.084   5.338  16.194  0.1136 -0.1506 -0.2360
30323W        W46584   4.283  13.283   2.004 -0.0778  0.0624  0.1377
30324W        W46585   7.819   5.145  14.928  0.4555 -0.1820 -0.0154
30325W        W46586   6.853   0.902   3.083  0.6741  0.1459  0.1396
30326W        W46587  11.167   9.359  11.813 -0.2672 -0.0993  0.1734
30327W        W46588  11.407   1.365   4.741  0.1291 -0.0538  0.0844
30328W        W46589   9.710   0.668   3.330 -0.3569 -0.1605  0.1887
30329W        W46590   6.264   7.242  13.022  0.0965  0.1592  0.0002
30330W        W46591  13.374  11.977   2.468  0.2415 -0.1892  0.0339
30331W        W46592   0.958   6.063   1.122 -0.1187 -0.4392 -0.2057
30332W        W46593  16.847   3.312  12.668 -0.1596 -0.2180 -0.0096
30333W        W46594  10.287   8.225   5.131  0.1581  0.2684  0.6117
30334W        W46595  17.328   7.810  15.427 -0.0712 -0.0115 -0.2200
30335W        W46596  15.166   7.363   6.088 -0.1064  0.3079  0.0307
30336W        W46597   0.111  16.062   4.349 -0.2494 -0.2400 -0.0955
30337W        W46598   2.374  15.461   5.244 -0.1301 -0.1713  0.1277
30338W        W46599  14.481  12.201  14.065 -0.4460  0.1832  0.1760
30339W        W46600  13.575  12.659   5.283  0.2029 -0.2913 -0.0011
30340W        W46601  12.766  11.444   3.081  0.0741  0.3975  0.0672
30341W        W46602  13.758   2.627  12.641  0.3680  0.1191  0.1209
30342W        W46603   0.073  14.333   1.734  0.1892  0.0167 -0.1291
30343W        W46604  16.892  13.773  11.865  0.1091 -0.2048 -0.1078
30344W        W46605   7.350   6.833   4.728  0.1864  0.2136  0.1783
30345W        W46606   0.921  12.586  11.752 -0.0410  0.1593  0.2321
30346W        W46607   4.181   2.590  15.101 -0.2115  0.0068 -0.0497
30347W        W46608   3.109   3.538   1.770 -0.0210 -0.0076  0.0374
30348W        W46609   6.539  12.030   3.578  0.1002 -0.0608 -0.0484
30349W        W46610  10.149   1.044  14.609  0.0014  0.2902 -0.3046
30350W        W46611   1.320  17.248   1.794 -0.1413  0.0155  0.0669
30351W        W46612   7.211  16.155  11.251  0.0228 -0.0447  0.0465
30352W        W46613   6.411   0.822  12.286  0.3947 -0.1813  0.0128
30353W        W46614  15.818   2.777   6.461  0.1487  0.3009 -0.2181
30354W        W46615  17.266   9.443   3.095  0.1479  0.0857 -0.3047
30355W        W46616  17.109   3.296   5.092  0.2200 -0.0511  0.0925
30356W        W46617   6.867  14.041  12.829  0.0864 -0.0881  0.1534
30357W        W46618   1.137  15.640   1.838  0.1544  0.3408  0.0766
30358W        W46619   5.059   1.471  13.324  0.1591  0.2440 -0.0455
30359W        W46620   7.472   4.985  14.113  0.1543  0.1713  0.1135
30360W        W46621   5.429   4.351  12.650  0.0490  0.2079  0.0879
30361W        W46622   4.042   6.343   0.144 -0.1802 -0.0570 -0.0042
30362W        W46623   1.813   4.538   2.675  0.3484  0.1498  0.1287
30363W        W46624   5.617   3.374   2.028  0.1055 -0.1009  0.2851
30364W        W46625   4.843   2.228  16.491 -0.0251  0.4030 -0.1928
30365W        W46626   7.192   0.727   4.648  0.1286  0.0906 -0.0062
30366W        W46627   0.704   4.363  13.329  0.0455  0.1138 -0.0373
30367W        W46628   9.217   2.884  16.937  0.0296  0.0038 -0.0506
30368W        W46629  14.445   5.458  14.380  0.0508 -0.3590 -0.0085
30369W        W46630  10.154   6.413  14.633 -0.3847  0.0895  0.3437
30370W        W46631  11.885  11.843   5.930  0.1796  0.2201  0.1944
30371W        W46632  12.919  17.118  12.407  0.3432  0.3151  0.2249
30372W        W46633  12.903  11.853   3.358 -0.2008 -0.0088 -0.1205
30373W        W46634  14.188   5.779  15.544  0.2823 -0.1527 -0.2459
30374W        W46635   5.430  12.937   2.798  0.1840  0.0082 -0.0799
30375W        W46636  11.305   7.516   1.850 -0.0869 -0.1551  0.0528
30376W        W46637  13.866  11.910  10.553  0.1153 -0.1780 -0.1603
30377W        W46638   5.703   9.607   3.628 -0.2370  0.3538  0.1140
30378W        W46639  12.664   5.632  14.818 -0.4124  0.1479  0.0591
30379W        W46640   8.642   3.535   3.344  0.2334  0.1003  0.3838
30380W        W46641   6.177  16.675   4.014 -0.3108  0.0582  0.1740
30381W        W46642   9.971   5.156   6.248  0.1819  0.0387 -0.0446
30382W        W46643   6.299   6.691   5.074  0.0199  0.2321 -0.2884
30383W        W46644  16.743   7.542   0.157  0.1613 -0.2848  0.2795
30384W        W46645   8.442  13.216   1.964 -0.1000  0.1823  0.2511
30385W        W46646   4.094   5.358   1.808  0.0886  0.1931  0.0160
30386W        W46647   7.085  13.189   3.519  0.0979 -0.0866 -0.0061
30387W        W46648   0.067  17.632  12.220 -0.1612 -0.1863  0.2709
30388W        W46649  14.237   1.177  14.035  0.2187  0.0335  0.1279
30389W        W46650  16.840  15.190   1.421 -0.1133  0.0819 -0.2654
30390W        W46651   1.736   5.023   0.745  0.0858  0.0880 -0.1094
30391W        W46652  11.648   9.573   4.766  0.1389 -0.2819  0.0627
30392W        W46653   6.877   0.672  12.265  0.1110 -0.0178 -0.0075
30393W        W46654   8.141  17.098   0.272  0.2208 -0.0039  0.2854
30394W        W46655  14.353   1.703   2.763  0.2682 -0.1069 -0.1749
30395W        W46656   5.261  10.681  15.858 -0.2555 -0.1261 -0.1079
30396W        W46657   4.977  17.032  15.629  0.3844 -0.0445  0.1343
30397W        W46658  13.280  11.653   2.894 -0.1402  0.0029  0.1939
30398W        W46659  15.112   4.136   3.977  0.1218  0.0095  0.1817
30399W        W46660   9.943   3.978  11.921 -0.0466  0.3305  0.2771
30400W        W46661  13.861   1.219   1.272  0.0758  0.2956 -0.2589
30401W        W46662  13.634  17.596   1.387 -0.2857 -0.2542  0.0018
30402W        W46663  11.794   0.449   5.537 -0.0737  0.1034 -0.1932
30403W        W46664  10.690   2.367  16.395 -0.1838 -0.1161  0.2849
30404W        W46665   5.975   2.330   1.617 -0.0135  0.1377 -0.2103
30405W        W46666  11.788  16.886   4.937  0.0756  0.0661  0.1270
30406W        W46667   2.092   1.547  16.690  0.0034 -0.1017 -0.3081
30407W        W46668   0.397   6.090  10.619  0.1922  0.0411  0.0428
30408W        W46669   5.852  12.070  12.456 -0.0969 -0.1042 -0.2322
30409W        W46670  15.861  14.946  15.194  0.0396  0.1810  0.2441
30410W        W46671  10.832   4.525   5.033  0.0675  0.0000 -0.0779
30411W        W46672  12.217  14.668   0.763  0.0101  0.1423 -0.2234
30412W        W46673   3.901   3.322  15.680  0.1806  0.1912  0.2788
30413W        W46674   2.337   2.709  15.335 -0.1297  0.2566  0.0029
30414W        W46675   1.994  12.485   2.868 -0.1487 -0.3661 -0.0352
30415W        W46676   0.025  13.391   5.934 -0.1588  0.1056 -0.1480
30416W        W46677  16.413   9.044   4.065  0.0625 -0.0580 -0.0959
30417W        W46678  16.297   0.808  14.962 -0.0506  0.0473  0.0666
30418W        W46679   2.202   9.432  13.513 -0.1799  0.0881  0.4070
30419W        W46680   3.963   5.662  14.033 -0.3905  0.0201 -0.0418
30420W        W46681  10.844  17.775  13.543 -0.0276  0.2601 -0.1872
30421W        W46682  11.841   4.302  15.016  0.1668  0.0330 -0.0153
30422W        W46683   4.575   8.914   1.681  0.0529  0.0145  0.3361
30423W        W46684  12.498  17.830   1.892  0.0136  0.1929 -0.0416
30424W        W46685   7.328   5.272   0.410  0.3539  0.0056 -0.3729
30425W        W46686   4.979  10.762  16.838  0.3031 -0.1602 -0.0502
30426W        W46687   8.301  11.192  16.867 -0.1795 -0.1204  0.1646
30427W        W46688   9.933  17.403  14.815 -0.2613 -0.0545  0.1321
30428W        W46689  11.301   0.646   3.576 -0.2486 -0.0288  0.1483
30429W        W46690  13.607  11.236   2.863 -0.0090 -0.3718 -0.2119
30430W        W46691   1.180   8.248   0.257 -0.1270 -0.3981 -0.1460
30431W        W46692   4.332   9.947  15.571 -0.0216 -0.1997 -0.0872
30432W        W46693   8.073   9.094  11.922  0.1442 -0.1279  0.0969
30433W        W46694   8.967  13.033   0.770  0.0639  0.0984 -0.1099
30434W        W46695  10.417  17.063  12.437  0.3294 -0.0619 -0.1612
30435W        W46696   1.676   3.033  16.864  0.0130 -0.1459  0.0313
30436W        W46697  12.821  11.936   4.246 -0.0619 -0.3492  0.2847
30437W        W46698  15.213   5.819   2.505 -0.0786  0.0912 -0.0187
30438W        W46699  15.951  14.003  13.202 -0.1588  0.3062 -0.1011
30439W        W46700   3.765   9.056  12.067 -0.1104  0.0658  0.1027
30440W        W46701   1.922  15.570  16.025 -0.0269 -0.2377 -0.4087
30441W        W46702   7.666   5.435   2.158  0.2438  0.0968 -0.0415
30442W        W46703   4.988   5.045  16.022  0.1407  0.0105  0.0651
30443W        W46704  16.397   4.226   5.901  0.0194 -0.0285 -0.1913
30444W        W46705   5.469  15.952  13.347 -0.5192  0.0446  0.1191
30445W        W46706   3.842  15.349  14.619 -0.2029 -0.0623 -0.2085
30446W        W46707  12.059   2.150  16.677 -0.0541  0.3412  0.1340
30447W        W46708   8.293  13.860   1.718 -0.3726 -0.2753 -0.0512
30448W        W46709   1.083   2.025   2.554  0.0481 -0.1402 -0.0355
30449W        W46710  17.235  12.528  13.175  0.1571  0.4038  0.0940
30450W        W46711   8.966   3.698  13.105  0.0158  0.2685 -0.1336
30451W        W46712  10.146   8.664   1.812 -0.0548  0.1348 -0.0771
30452W        W46713  14.106  16.164  14.166 -0.1319  0.0000  0.0552
30453W        W46714   8.672   6.470  15.479 -0.1105 -0.0181 -0.2782
30454W        W46715  13.687  13.986  12.817  0.1074 -0.0454  0.2674
30455W        W46716   4.740   7.060  16.780  0.3370  0.2538 -0.0218
30456W        W46717   3.326  16.846   2.906 -0.0907  0.1082 -0.1337
30457W        W46718   2.830   0.059  15.980  0.1376 -0.0838  0.0912
30458W        W46719  10.112   0.451  12.552 -0.0983 -0.0205 -0.2064
30459W        W46720  14.784   3.407   3.508 -0.1410  0.0425 -0.0186
30460W        W46721   5.414   4.130   2.632 -0.0993 -0.0900 -0.0411
30461W        W46722   2.069   7.741  13.551 -0.1692  0.1272 -0.0035
30462W        W46723  16.709   4.101   0.814  0.3160 -0.0459 -0.1289
30463W        W46724  10.722  16.663   3.958 -0.1491  0.1910  0.0355
30464W        W46725   6.278   2.047   2.980 -0.1282  0.2424  0.0263
30465W        W46726  15.098   0.671  15.291  0.1796  0.1403  0.1160
30466W        W46727   2.504  16.823   5.565 -0.1758  0.2385 -0.0624
30467W        W46728   7.896  13.740   0.844 -0.2122  0.0173  0.0077
30468W        W46729   7.518  17.048   5.051 -0.1932  0.3274 -0.0095
30469W        W46730  10.758   4.870   1.901 -0.1399 -0.2027 -0.1721
30470W        W46731   3.751   2.794   3.353  0.2415 -0.0057  0.1749
30471W        W46732  12.407   6.614  15.186  0.1334  0.1151 -0.0787
30472W        W46733   0.344  11.453  15.056 -0.1697  0.0428 -0.1961
30473W        W46734   4.870   6.729   0.794  0.0362  0.0404 -0.2256
30474W        W46735  17.231   0.923   1.423  0.2794 -0.1966 -0.1220
30475W        W46736  11.464  15.707  15.631  0.2691 -0.1262  0.0230
30476W        W46737   1.851   3.479  16.402  0.1271 -0.1608 -0.0422
30477W        W46738   2.067   0.744  13.772 -0.1302 -0.2263 -0.2307
30478W        W46739   1.796   5.388  16.243 -0.1564  0.1014  0.1060
30479W        W46740  10.975  11.969  12.406 -0.1466 -0.5513 -0.0683
30480W        W46741  11.231  15.089  11.728 -0.1450  0.3496  0.1346
30481W        W46742  14.351   9.278   2.568 -0.3369  0.4607 -0.0510
30482W        W46743   9.661   5.346   5.876  0.1746  0.1318 -0.0421
30483W        W46744  10.250  14.459   4.524  0.0361  0.1105  0.0805
30484W        W46745  10.164  17.369   5.134 -0.3061  0.0665 -0.0005
30485W        W46746  13.991   5.360  13.605 -0.0382  0.3281 -0.0194
30486W        W46747   4.406   7.441   1.585  0.2131  0.3308  0.2838
30487W        W46748  10.636   8.190   2.130  0.0225 -0.1610  0.0055
30488W        W46749   4.256   7.301   6.307  0.0899 -0.0101  0.1751
30489W        W46750   1.820   1.795  12.308  0.1012  0.2218  0.0889
30490W        W46751   2.205   4.996   2.021  0.0913  0.0645 -0.0484
30491W        W46752  15.736   5.449  13.895 -0.2738 -0.0034  0.2002
30492W        W46753  11.874   8.029  11.457 -0.1667  0.0151 -0.1502
30493W        W46754  16.266  15.412  13.921 -0.2669  0.1742 -0.0199
30494W        W46755   6.342   3.811   1.094  0.0216  0.1127 -0.1535
30495W        W46756   3.975   4.856  15.128  0.3171  0.1613  0.1744
30496W        W46757  12.159   1.992   5.707 -0.2387  0.2150 -0.3278
30497W        W46758  11.287   6.534  13.839  0.0653 -0.1175  0.0231
30498W        W46759   6.366  16.818   1.920 -0.3481  0.1214  0.1229
30499W        W46760  14.286  16.515   1.753 -0.0511 -0.2698 -0.0505
30500W        W46761  16.443   2.609  12.615  0.3507 -0.1651 -0.2859
30501W        W46762  10.519  10.352  13.159 -0.1166  0.2319  0.0656
30502W        W46763   2.372  10.714  13.266  0.1068 -0.2908  0.2104
30503W        W46764   4.137  11.069  11.851 -0.0988  0.2037 -0.1421
30504W        W46765   6.593  13.660   1.844  0.1825  0.1807  0.2764
30505W        W46766   9.778   1.844   0.658 -0.0279 -0.1912 -0.4003
30506W        W46767   1.462   6.779   2.732 -0.3827 -0.4147  0.4957
30507W        W46768   5.622   9.253  15.977  0.2483 -0.1952  0.2046
30508W        W46769  15.445  15.505  16.433 -0.3202 -0.3165 -0.1487
30509W        W46770  12.772   8.106   4.054 -0.0391  0.3273  0.0021
30510W        W46771  12.383  14.256   2.199  0.1190  0.0184  0.2310
30511W        W46772   8.350   2.870  14.414 -0.1215  0.0673  0.1051
30512W        W46773   1.612  13.186   2.299 -0.1965  0.1164 -0.1929
30513W        W46774  16.986  14.122  14.980  0.3966  0.1271  0.0794
30514W        W46775  17.738  17.360   6.831 -0.1425 -0.2800 -0.0936
30515W        W46776   8.176   9.307   2.132  0.0580 -0.2292  0.1171
30516W        W46777  12.117   2.327   5.224 -0.3157  0.1308  0.0305
30517W        W46778   2.071  11.650   3.054 -0.1903  0.1164  0.1144
30518W        W46779  10.404   1.970  16.207  0.2353  0.0732 -0.0224
30519W        W46780   6.640   6.859   1.956 -0.3190  0.1684  0.1004
30520W        W46781   2.963   6.005   0.898 -0.0418  0.2587  0.1169
30521W        W46782   4.411  15.654   1.410 -0.1672  0.3892  0.0564
30522W        W46783  16.490  13.832  15.139 -0.2024  0.0133  0.0643
30523W        W46784   3.779   1.629  14.706  0.0410  0.1062  0.0125
30524W        W46785   2.018  15.567  12.953 -0.0366  0.0689  0.2908
30525W        W46786   6.242  15.805   0.051 -0.0694 -0.0664  0.0401
30526W        W46787   9.694   4.385   0.782 -0.0022  0.1834 -0.0394
30527W        W46788  14.135  10.385   1.939 -0.1259  0.1666 -0.0020
30528W        W46789  12.530   3.550  16.357  0.1095  0.1208 -0.3871
30529W        W46790  12.365   6.849   5.351 -0.0489 -0.0483 -0.3224
30530W        W46791  10.559  14.988   3.275  0.0584  0.3015  0.0787
30531W        W46792   9.155  17.480  14.217  0.0787  0.1983  0.0397
30532W        W46793   1.616   6.400  13.436  0.1823 -0.2646  0.0342
30533W        W46794   3.460  12.536  15.735  0.3443  0.2433  0.4748
30534W        W46795   8.028  11.041   1.457  0.1181  0.2571  0.3111
30535W        W46796   9.334  10.346   1.438 -0.0947 -0.0350 -0.1938
30536W        W46797  11.896  11.469  13.227 -0.0814  0.1663 -0.0770
30537W        W46798  10.183   1.396  12.561  0.2086  0.0454  0.0437
30538W        W46799   1.096   7.038  16.664 -0.0579 -0.1459 -0.1158
30539W        W46800  16.611  11.115  15.339 -0.0816  0.1491  0.1493
30540W        W46801   2.250   3.759  12.309 -0.0795  0.0183  0.0106
30541W        W46802   1.179   6.435  15.806 -0.1269 -0.1802  0.1042
30542W        W46803   7.243   4.490   1.861  0.2305 -0.0552 -0.0419
30543W        W46804  15.925   4.824   3.549 -0.0797 -0.0000  0.1482
30544W        W46805  14.403  17.609   5.556 -0.0208 -0.0424  0.0383
30545W        W46806   0.585   6.962  16.039  0.0763  0.2578  0.0202
30546W        W46807   9.685   2.915   2.951  0.1485 -0.2370  0.2054
30547W        W46808   4.858   2.789   4.396 -0.2290 -0.2468  0.1478
30548W        W46809   0.530   4.394   4.743  0.1911  0.0853  0.1400
30549W        W46810  17.015   8.057   5.155 -0.0466  0.0007 -0.4605
30550W        W46811   2.933   2.176  14.873  0.2431  0.1933 -0.0989
30551W        W46812   9.440   2.303   4.261  0.2568 -0.3888 -0.1529
30552W        W46813  12.771   1.246   5.991  0.0589 -0.0368 -0.0988
30553W        W46814   8.109   4.688  15.656 -0.1853 -0.0509  0.1587
30554W        W46815  13.803   6.886  16.121 -0.3044 -0.1347  0.0548
30555W        W46816   5.761   2.253  13.325 -0.3357  0.2681 -0.1589
30556W        W46817  14.385  10.722   4.142 -0.0895  0.0050 -0.0845
30557W        W46818  14.209   3.449  16.206  0.0759 -0.1251 -0.3286
30558W        W46819   3.198   7.284  12.989 -0.2513  0.2145 -0.1969
30559W        W46820  15.251   2.344   0.969  0.3045  0.0162  0.0276
30560W        W46821   4.936  12.788  13.582  0.0385 -0.0437 -0.0441
30561W        W46822   0.669  12.907  14.287 -0.1889 -0.0624 -0.0619
30562W        W46823  13.084  13.553  15.319 -0.1666  0.0345  0.0974
30563W        W46824   1.148   9.695  16.029  0.2462 -0.3975  0.2505
30564W        W46825   2.561  12.528  15.328  0.1092 -0.1808  0.2567
30565W        W46826  12.120  13.415  12.118 -0.0678  0.1369  0.0249
30566W        W46827   0.557   8.933   5.783  0.0222 -0.1269 -0.1932
30567W        W46828  17.161   4.719   1.110  0.0970 -0.2025 -0.0735
30568W        W46829   2.747   5.995   5.397  0.0491 -0.1027 -0.2259
30569W        W46830   6.892  11.870  15.400 -0.4259 -0.1626  0.0880
30570W        W46831   5.311   6.261  16.563  0.0750 -0.0461  0.1916
30571W        W46832  13.441   9.633  14.587  0.4774 -0.2358 -0.0548
30572W        W46833   3.126  12.976  14.561  0.3724  0.1654  0.1038
30573W        W46834  17.273   6.614   2.100 -0.2180 -0.0935  0.0934
30574W        W46835   0.353   8.164  12.739 -0.0293  0.0427  0.0050
30575W        W46836   0.352  13.054   0.594 -0.0238 -0.1124 -0.0698
30576W        W46837   4.946   4.433   2.399 -0.1111 -0.1712  0.1933
30577W        W46838   5.887   1.142   2.914 -0.0010 -0.0159  0.2755
30578W        W46839   4.835  10.411  16.020 -0.1320  0.2664  0.2086
30579W        W46840   2.851  14.771   1.563 -0.0518  0.1231 -0.2266
30580W        W46841   2.737   6.812  16.118  0.0460  0.4058  0.2359
30581W        W46842   8.213  15.194  13.457  0.1897  0.1002 -0.0973
30582W        W46843  17.091   7.211   3.618 -0.0285 -0.3587 -0.0890
30583W        W46844  14.094   8.378   3.538  0.0756 -0.0931  0.1323
30584W        W46845   1.584  15.701   2.264 -0.0082  0.3365  0.1770
30585W        W46846  14.282   0.612   4.564 -0.3427  0.1167  0.0329
30586W        W46847   2.907   1.666   3.482  0.0558 -0.2205 -0.2562
30587W        W46848   6.439  10.147   5.256 -0.1642 -0.0345  0.2692
30588W        W46849  14.818   4.724   2.207 -0.1915 -0.0126  0.2957
30589W        W46850   7.488  10.866  13.585  0.0051  0.1486 -0.0224
30590W        W46851  15.241  10.118  16.173  0.0182  0.1193 -0.1375
30591W        W46852   4.328  15.296  12.053 -0.0274  0.0589 -0.0277
30592W        W46853   3.686  16.237   5.052  0.3738 -0.2836 -0.1002
30593W        W46854  14.699   8.655  11.520  0.1207 -0.0599  0.0417
30594W        W46855  17.023   9.490  15.380 -0.2727  0.1298  0.1222
30595W        W46856  16.345  12.270   1.288  0.2985 -0.1736 -0.0364
30596W        W46857  11.697  10.419   0.366 -0.1682  0.0473 -0.2263
30597W        W46858  15.358   7.273   0.612 -0.4144  0.1078 -0.0383
30598W        W46859  17.190   2.607   3.783  0.2192 -0.1840  0.0602
30599W        W46860   8.852  10.157   2.151  0.2593 -0.0244 -0.2437
30600W        W46861  13.063  10.069  15.319 -0.0329  0.0362  0.1412
30601W        W46862  15.103   7.085  16.203 -0.0593 -0.1420  0.2132
30602W        W46863  17.371   8.889  16.304 -0.0203 -0.1797  0.0414
30603W        W46864  14.178  13.032   1.703  0.1129 -0.2089 -0.1709
30604W        W46865   1.764  16.846   4.294  0.0209  0.0192  0.0294
30605W        W46866   2.858  11.690  11.582 -0.1438  0.1936 -0.1570
30606W        W46867   9.501   9.186  14.360 -0.1230  0.0895 -0.2995
30607W        W46868   9.927   8.805   4.875  0.0643 -0.0848 -0.1022
30608W        W46869  13.841   3.525   4.658  0.0946 -0.0149  0.2799
30609W        W46870  10.634   3.507  13.776 -0.1355 -0.2828 -0.2285
30610W        W46871  15.165   1.922   4.184  0.0400  0.1270 -0.0718
30611W        W46872   8.365   0.309  15.105 -0.0561 -0.1967  0.0419
30612W        W46873   5.054  10.782  14.355 -0.2576  0.0106  0.4713
30613W        W46874  11.115  13.925  15.115  0.0446  0.2035 -0.2578
30614W        W46875  10.147   6.473   1.126 -0.3655 -0.0036 -0.1471
30615W        W46876  11.716  15.583   1.344 -0.0501 -0.0440  0.0529
30616W        W46877  16.999   1.023   4.384  0.0606  0.1321  0.0925
30617W        W46878   7.637   6.364   5.557 -0.0949 -0.0626  0.0971
30618W        W46879  17.728   1.684   0.423  0.0156  0.2785 -0.3043
30619W        W46880  14.922   2.884   3.715 -0.0528 -0.1088  0.2018
30620W        W46881  14.020  12.668   4.948 -0.1770  0.2162  0.2551
30621W        W46882  12.590   0.573   1.664  0.1106 -0.2433 -0.1893
30622W        W46883   7.361   4.415  12.549 -0.1673  0.1110  0.0859
30623W        W46884   1.669   2.934   0.571  0.1473  0.0555 -0.0371
30624W        W46885  11.731  10.064   4.752 -0.0567 -0.7132 -0.2819
30625W        W46886   6.206   1.609   0.661  0.4145 -0.1245 -0.3490
30626W        W46887   3.171   3.564  15.384  0.0664  0.0374 -0.1451
30627W        W46888   9.149   5.454   5.980 -0.0584  0.0276  0.1154
30628W        W46889  10.472   8.573   3.865 -0.4149 -0.3104  0.1875
30629W        W46890   4.331   0.467   3.061  0.1967  0.0345 -0.0753
30630W        W46891  17.597   5.925   3.532  0.0935 -0.0098 -0.1276
30631W        W46892  12.665  13.038  15.421  0.0289  0.2075  0.2153
30632W        W46893  13.825  12.809  13.159 -0.3275 -0.0114  0.3851
30633W        W46894  17.003  12.722   5.232  0.2177  0.0172 -0.1272
30634W        W46895   1.635   5.205  15.271  0.2907  0.2250  0.0534
30635W        W46896  13.755   0.131   5.830 -0.1421  0.1526  0.1674
30636W        W46897  10.454  16.774  15.510 -0.0057 -0.2227 -0.1078
30637W        W46898   1.588  17.593   3.378  0.2132 -0.0204  0.0475
30638W        W46899   6.903  10.663   4.753 -0.0732  0.0511  0.5265
30639W        W46900  17.293  17.765   1.262 -0.2187  0.3305 -0.1228
30640W        W46901   0.444   8.573  16.037 -0.0425 -0.0145  0.2107
30641W        W46902   6.795   8.644   0.021  0.2498  0.2326  0.2257
30642W        W46903  11.285   3.757   1.500  0.0426 -0.2403  0.1420
30643W        W46904   4.659  15.667  14.356 -0.0482 -0.2046 -0.1124
30644W        W46905   8.757   0.868   6.195 -0.1216 -0.0389  0.1610
30645W        W46906   6.292   8.162   5.110 -0.1537 -0.2977  0.0753
30646W        W46907  11.304  13.519  14.874  0.1166  0.1689  0.1904
30647W        W46908  17.006  12.071   3.275  0.1945  0.0124 -0.3322
30648W        W46909   4.860   4.519  12.638 -0.2500 -0.5457 -0.0763
30649W        W46910   7.036   2.685   0.861  0.1074 -0.1489 -0.0627
30650W        W46911   5.842  16.120   1.318  0.3815  0.2050  0.2071
30651W        W46912  16.007   9.276  14.131 -0.0953 -0.1649 -0.2148
30652W        W46913  11.149  11.858  16.763  0.1040 -0.2273  0.0364
30653W        W46914   0.867   4.778   2.473  0.1200 -0.0242 -0.2305
30654W        W46915   6.690   6.276  11.945  0.0499 -0.0782  0.1446
30655W        W46916   7.008   5.809   3.237 -0.1477 -0.1413 -0.3687
30656W        W46917  12.442  10.162   2.110 -0.1025 -0.0027 -0.0737
30657W        W46918   3.755  17.510   0.723  0.1257  0.2353  0.4403
30658W        W46919   9.905   7.824  11.901 -0.0609 -0.1923 -0.1178
30659W        W46920   7.635   7.818   2.527  0.2324 -0.3328 -0.2952
30660W        W46921  13.475   3.402   2.650  0.2667  0.0036 -0.3352
30661W        W46922  12.740   2.156   0.403 -0.5510 -0.0176  0.1575
30662W        W46923   7.380   3.031   1.142  0.0156  0.3098 -0.0557
30663W        W46924  13.232   5.212   3.222  0.1019  0.0444 -0.1377
30664W        W46925   6.136  15.718  11.373  0.0605  0.2038 -0.0060
30665W        W46926  16.761   2.319  13.019  0.1448  0.1428  0.2137
30666W        W46927  10.673  13.287  13.466 -0.1306  0.0003 -0.0943
30667W        W46928  11.046   4.804  13.970  0.0354  0.0400 -0.1421
30668W        W46929   4.985  14.056   1.825  0.0089 -0.0822 -0.0420
30669W        W46930  14.277   6.859   3.491  0.0242 -0.2790 -0.1124
30670W        W46931  13.430   2.423  15.248  0.1974  0.0152  0.1104
30671W        W46932  10.500  15.227  13.767  0.0665  0.3719  0.1158
30672W        W46933  13.534  10.043  13.663  0.0462  0.0187 -0.2420
30673W        W46934   0.211   4.951  16.860 -0.0648  0.1246  0.0402
30674W        W46935   0.042   2.305  11.127 -0.1022  0.2955 -0.0612
30675W        W46936   3.608   5.341  14.826  0.1773  0.0967 -0.2672
30676W        W46937   3.456   9.818   5.551 -0.0571  0.2409 -0.0918
30677W        W46938  11.379  16.642   1.493 -0.1749  0.0671  0.0341
30678W        W46939  13.443  12.342   1.455 -0.2802 -0.1576  0.0035
30679W        W46940  15.325  11.624  15.738 -0.2904 -0.1180  0.0506
30680W        W46941  14.275  12.108  15.287 -0.1238  0.1173 -0.0144
30681W        W46942  13.588  17.502  13.305 -0.2740  0.1110  0.1098
30682W        W46943   9.549   6.774  14.702  0.2534  0.0416  0.0595
30683W        W46944  16.918   2.634  11.847 -0.0642 -0.3364 -0.2090
30684W        W46945   8.982  16.192  11.626  0.0262  0.3632 -0.4377
30685W        W46946   3.139   2.561   2.302  0.1730 -0.0935  0.1089
30686W        W46947  13.118  12.514   4.102  0.1278  0.0382 -0.2432
30687W        W46948  13.564  16.616   4.474  0.1902 -0.1961  0.1190
30688W        W46949  11.502   8.737  13.670 -0.3881  0.0087 -0.0203
30689W        W46950  16.213  10.494  14.599 -0.0297 -0.0633 -0.1236
30690W        W46951   8.587   5.192   4.865  0.0415  0.1388 -0.3283
30691W        W46952  17.565   9.320   1.628 -0.0935  0.0999 -0.0139
30692W        W46953  12.309  12.058   3.639 -0.0857  0.1027 -0.2180
30693W        W46954  10.068   6.582  13.609  0.0713 -0.2277 -0.0720
30694W        W46955   9.131   9.713  11.535 -0.0463  0.1144 -0.1926
30695W        W46956  14.817   4.267   3.132 -0.1751  0.1201 -0.1635
30696W        W46957   0.164   4.301   4.357 -0.1796 -0.0348 -0.0294
30697W        W46958   5.657  14.021  11.704  0.1990 -0.0581 -0.1366
30698W        W46959   9.489  13.005   0.635 -0.0416 -0.2341  0.3082
30699W        W46960   8.418   3.775  15.120  0.2062 -0.0747 -0.0857
30700W        W46961   5.870   4.163  12.294 -0.3552 -0.0422 -0.1429
30701W        W46962  11.896   8.601  12.297  0.0648  0.2092 -0.2852
30702W        W46963  17.504  16.061   3.222  0.0307 -0.2117 -0.1949
30703W        W46964  12.420  12.024   1.633  0.0647  0.2062  0.0312
30704W        W46965  10.692  15.550  16.170 -0.3529 -0.0330 -0.0752
30705W        W46966   8.821   5.425   0.623  0.0399  0.0775 -0.2476
30706W        W46967   2.032   6.419  16.127 -0.0492 -0.2065  0.0546
30707W        W46968   5.020  15.719  13.985 -0.0509 -0.0867 -0.0776
30708W        W46969   3.083  11.779  16.642 -0.2309 -0.0838 -0.1771
30709W        W46970  12.404  12.315  13.278 -0.2310 -0.4688 -0.0741
30710W        W46971  10.027  14.409  12.141  0.0035  0.1132  0.0544
30711W        W46972   2.379  11.224  13.070 -0.2207 -0.0916  0.3313
30712W        W46973   4.118   2.335   4.576 -0.0993 -0.0121 -0.1468
30713W        W46974   8.206   1.029   0.331  0.3434  0.2395 -0.5707
30714W        W46975   8.339   2.895  14.928  0.2443 -0.1809  0.2159
30715W        W46976   3.960  12.362  16.579 -0.1576 -0.2690  0.0360
30716W        W46977  15.438   3.190   1.244 -0.1535  0.1144  0.2052
30717W        W46978   7.623   1.141  11.619  0.1977 -0.2117  0.0010
30718W        W46979   0.991   2.700   2.338 -0.3674  0.0269 -0.0891
30719W        W46980  10.410   4.156   5.038 -0.0310  0.3289 -0.0378
30720W        W46981   7.797   3.446  13.488  0.0960 -0.1080 -0.0650
30721W        W46982  16.674  10.349   6.183 -0.2414  0.3531 -0.3435
30722W        W46983   6.750   0.771   3.693  0.1498  0.2016 -0.0376
30723W        W46984   5.316   9.568  14.757  0.2041 -0.0425  0.1399
30724W        W46985  15.167   1.121   1.286 -0.2211  0.1936 -0.0249
30725W        W46986  17.855   2.802  12.229  0.2777 -0.2344 -0.1080
30726W        W46987  10.370  13.201   2.166 -0.0934 -0.0263  0.0278
30727W        W46988   0.292   0.273   1.493  0.3162  0.1105  0.2154
30728W        W46989  14.557  17.675  16.129  0.2720  0.2968  0.3361
30729W        W46990   4.429   4.593   3.163 -0.0995 -0.1895 -0.0364
30730W        W46991   4.871   4.289  16.519 -0.2313  0.0721  0.0911
30731W        W46992  12.798   3.096   3.111  0.0092 -0.3115  0.0985
30732W        W46993   1.754   0.338   3.809  0.3151 -0.1246 -0.2994
30733W        W46994   3.297   2.688  14.821 -0.2878 -0.0021 -0.1453
30734W        W46995   1.153  14.338  12.961 -0.0216  0.0432  0.2713
30735W        W46996   6.917   6.085  16.559 -0.0103  0.0992  0.1657
30736W        W46997  11.742  17.072   1.994  0.0129 -0.1736 -0.1632
30737W        W46998  17.267  14.551   3.318  0.3993 -0.2288 -0.1024
30738W        W46999  10.266   3.458   0.596 -0.1966 -0.0694 -0.1080
30739W        W47000  15.645   3.341   1.781  0.0611  0.0013  0.0732
30740W        W47001   5.199  16.808   3.596 -0.1357  0.0934  0.1377
30741W        W47002  16.223   5.689  12.368 -0.2647  0.0040  0.0537
30742W        W47003   4.403   4.765  11.904  0.4214 -0.2096  0.1326
30743W        W47004  15.238   8.549  16.569  0.4401 -0.1049 -0.0145
30744W        W47005  15.413   1.706   4.619  0.1459  0.1577 -0.1019
30745W        W47006   7.852  14.140   2.958 -0.0616 -0.0440  0.3643
30746W        W47007   2.510   8.902  14.068 -0.0466  0.0069  0.0861
30747W        W47008   8.434  10.531   2.225  0.2832 -0.1978  0.0050
30748W        W47009  10.718  11.650   5.020 -0.1890  0.1733 -0.3549
30749W        W47010  10.307  14.462  12.781 -0.1716  0.0282  0.0391
30750W        W47011   5.575  13.631   5.450 -0.2832  0.0612  0.0430
30751W        W47012  10.535   0.108   1.282  0.1822  0.1739 -0.0404
30752W        W47013   1.622  13.255  12.088 -0.1711  0.0180 -0.0244
30753W        W47014   9.751  15.270   1.674  0.1037  0.1777 -0.0182
30754W        W47015  13.240  14.291   5.037  0.0004 -0.1792  0.0779
30755W        W47016  10.746   9.256   1.927  0.1515  0.2699 -0.2053
30756W        W47017   9.237  12.232  14.596 -0.3153 -0.4233 -0.0019
30757W        W47018   3.425   1.292   1.708  0.2055  0.1838  0.2003
30758W        W47019   8.769   4.861   3.569 -0.1187  0.0044  0.0229
30759W        W47020   7.611   7.196  11.917  0.0030  0.0580 -0.0153
30760W        W47021   5.761   8.838  14.692 -0.0443  0.1931  0.1087
30761W        W47022   9.166   5.855  13.924 -0.3428 -0.1443  0.0484
30762W        W47023   9.260   3.231   2.743 -0.2756  0.0713  0.0282
30763W        W47024  16.395  14.845   0.407 -0.0829  0.0859  0.0152
30764W        W47025   3.592   6.234   5.551  0.0187  0.0913  0.0487
30765W        W47026  13.921   0.007   0.607  0.0889  0.1621  0.0688
30766W        W47027   3.156   5.511  11.979  0.1012  0.1969 -0.0311
30767W        W47028   8.547  15.398  15.714 -0.0333  0.2666 -0.2185
30768W        W47029   5.660  13.063  13.661 -0.0484 -0.2214 -0.1960
30769W        W47030  13.516   2.179  16.549  0.2332 -0.0140  0.0433
30770W        W47031  12.638  14.582  13.228  0.0929 -0.1511 -0.4958
30771W        W47032   1.478   9.619  12.085 -0.3878  0.0300 -0.1158
30772W        W47033   8.470   7.345  14.309 -0.1485 -0.1758  0.2494
30773W        W47034  14.533  17.102  11.728 -0.0034  0.0279 -0.0802
30774W        W47035   1.062   1.625   1.300 -0.2135 -0.0239 -0.4209
30775W        W47036   5.420   3.028  13.203  0.0734  0.0659  0.0944
30776W        W47037   1.618   0.146   6.380 -0.1504  0.3128  0.1617
30777W        W47038   3.271   3.187  14.570 -0.0251 -0.1767  0.1536
30778W        W47039  11.295  15.571  11.773  0.0777  0.0930 -0.0322
30779W        W47040   1.846  11.056  13.042 -0.4271 -0.2192 -0.4714
30780W        W47041  11.564  16.616   3.647 -0.3350 -0.2322 -0.2726
30781W        W47042  16.634   8.516   3.548  0.3798 -0.0454  0.1495
30782W        W47043  13.488   9.006   3.568 -0.0813 -0.0907  0.0843
30783W        W47044   5.319   6.238  14.887 -0.2860 -0.1622  0.0591
30784W        W47045   7.776  15.031   1.418  0.0229 -0.1067  0.3156
30785W        W47046  17.830   0.313  11.535  0.0211 -0.0131  0.2836
30786W        W47047   1.627   5.958  11.800  0.0954  0.0225  0.3027
30787W        W47048   6.370   1.164   3.025 -0.2035 -0.2086  0.1992
30788W        W47049  14.224  14.780  11.961 -0.0295 -0.0167 -0.0476
30789W        W47050  17.321   1.745  15.096 -0.1907 -0.2442 -0.0075
30790W        W47051   3.204  16.140  14.322  0.0893  0.0525  0.2292
30791W        W47052  17.378  15.441   3.849  0.2276 -0.2174 -0.0525
30792W        W47053   3.853   8.705  13.644  0.0202  0.0929  0.1229
30793W        W47054  16.726   6.184   3.172 -0.0963 -0.2190 -0.3726
30794W        W47055   3.137  14.006  15.379  0.0226  0.1646  0.0967
30795W        W47056   7.813  12.142  12.686  0.1422  0.0811  0.2621
30796W        W47057  17.826  10.542   1.756 -0.1114  0.5086  0.0995
30797W        W47058   4.096   4.168  12.877 -0.0814 -0.0513 -0.0101
30798W        W47059   9.715  12.376   5.163 -0.1070  0.0671 -0.0847
30799W        W47060   0.099  17.648  12.806 -0.4343  0.1431 -0.0339
30800W        W47061   0.656   0.406   4.897 -0.0463 -0.0944 -0.0832
30801W        W47062   9.981  15.794   1.602 -0.2342  0.2647 -0.4871
30802W        W47063  12.679   0.502  14.327 -0.1934  0.1109 -0.2887
30803W        W47064   5.055  17.303  16.046  0.1223  0.2214  0.1713
30804W        W47065  12.856   1.938   5.551 -0.4571 -0.3638 -0.0188
30805W        W47066   6.123  14.777  15.717 -0.2275  0.1057 -0.3762
30806W        W47067  15.647   5.986  11.958 -0.3172  0.0674 -0.0921
30807W        W47068  11.261  16.766  14.808 -0.0815 -0.0427  0.3582
30808W        W47069  10.486   8.677  12.058  0.0021  0.1489  0.0559
30809W        W47070   6.592   9.651   0.896  0.2214 -0.1515 -0.2992
30810W        W47071  13.979   8.904   3.666  0.1335  0.2438 -0.4540
30811W        W47072   5.151  16.130  16.049  0.0440 -0.1095 -0.4627
30812W        W47073  10.911  17.553   1.887 -0.2307 -0.1272 -0.1512
30813W        W47074  10.472  17.362  12.867  0.2424 -0.0825 -0.3357
30814W        W47075  16.874   7.092  12.375  0.0563  0.1054  0.2471
30815W        W47076   5.876  14.935  13.156 -0.2367 -0.1992  0.0112
30816W        W47077  12.455  10.758  15.000 -0.0510  0.3037  0.0566
30817W        W47078   5.580   8.287  14.907 -0.0196  0.3428 -0.0320
30818W        W47079   1.469   0.430   1.307  0.1187  0.1969 -0.0141
30819W        W47080  17.760  12.152   3.637 -0.1188 -0.2981 -0.5195
30820W        W47081  13.245   6.259   1.566  0.1125 -0.3805  0.0041
30821W        W47082  14.656  15.996  16.424  0.0367  0.0232 -0.0331
30822W        W47083   1.724  11.804   5.037  0.1274  0.1873  0.0443
30823W        W47084   6.528   5.059   3.012 -0.0645  0.1594  0.3477
30824W        W47085  16.116   4.881   4.046 -0.4921 -0.3023 -0.2650
30825W        W47086   7.300   7.407  16.410 -0.3040  0.0549 -0.0793
30826W        W47087   7.697  14.501   4.222  0.2113 -0.0112 -0.0420
30827W        W47088  10.958  17.216  12.307 -0.0748  0.1262 -0.3144
30828W        W47089  16.386  12.952   0.699 -0.1516 -0.0221 -0.1691
30829W        W47090   3.084   0.004  14.208  0.1499 -0.1176 -0.1295
30830W        W47091  12.733   5.298  16.737  0.1321  0.0197  0.0284
30831W        W47092   0.267  10.507  16.402  0.2544 -0.1347  0.0667
30832W        W47093   7.530   9.693  16.155 -0.0853 -0.0622 -0.1486
30833W        W47094  13.953  12.881  15.695  0.0425  0.2466  0.0236
30834W        W47095  12.548   9.765  16.199  0.2859  0.1140  0.0801
30835W        W47096   5.474   8.028  16.332  0.1109  0.1034  0.2757
30836W        W47097   3.131  16.347   0.358 -0.2556 -0.0778  0.0849
30837W        W47098   0.535   9.802  13.393 -0.4323 -0.0429  0.2086
30838W        W47099   6.426   6.068  13.795 -0.1407 -0.2298  0.1481
30839W        W47100  11.817   5.566  13.952  0.0441 -0.2798 -0.2963
30840W        W47101  15.106   2.632   4.697  0.4556 -0.0414  0.0337
30841W        W47102   4.090  15.442   4.134  0.0009  0.1081  0.0116
30842W        W47103  12.546   7.712   0.793 -0.2590 -0.0801 -0.0438
30843W        W47104   4.426  15.349  13.208 -0.0756 -0.0163 -0.3427
30844W        W47105   1.010  12.670  12.756 -0.1324 -0.1863  0.0330
30845W        W47106  14.230   2.234   3.642  0.4463  0.0926 -0.1733
30846W        W47107   0.406   0.081  16.202  0.2488  0.0508  0.1199
30847W        W47108   1.678   8.796   0.242  0.0394  0.0230  0.0568
30848W        W47109  11.672   0.539   1.254  0.0832 -0.0215  0.1266
30849W        W47110   2.909   7.698   2.340 -0.0118  0.0101 -0.0391
30850W        W47111  16.156  17.181  13.411  0.2172 -0.0614 -0.3779
30851W        W47112  10.306  12.450  13.843 -0.2791 -0.0487  0.0306
30852W        W47113  11.687   3.269  13.533 -0.1604 -0.3110  0.0563
30853W        W47114   3.098  12.435   0.261  0.1592 -0.0032 -0.2449
30854W        W47115  12.977   5.213  12.632 -0.2743  0.1653  0.0587
30855W        W47116  16.015  10.574   3.309 -0.1231  0.1031 -0.1165
30856W        W47117   4.271   7.988  15.842 -0.1074  0.1477 -0.0727
30857W        W47118   5.815  15.233  14.485 -0.4547 -0.2279  0.1725
30858W        W47119  13.397  15.606   3.103  0.0385  0.0912 -0.1464
30859W        W47120  16.901  12.432   1.326  0.1477  0.0438  0.0826
30860W        W47121   4.198   7.282   1.171  0.2504  0.1189  0.1835
30861W        W47122   2.183  15.057   1.064  0.2558  0.0750 -0.2458
30862W        W47123   9.613   8.180   3.577  0.0971 -0.1792  0.2553
30863W        W47124  15.361  10.708   0.327 -0.0075 -0.0039 -0.4532
30864W        W47125  14.445   0.708  16.517  0.2394  0.1868 -0.1250
30865W        W47126   4.343   0.651   6.250 -0.1940 -0.0143  0.2868
30866W        W47127   0.761  10.236  11.907  0.2928  0.5631  0.1495
30867W        W47128  14.824   5.950   1.489 -0.0592  0.0321 -0.2799
30868W        W47129   4.050   6.541  13.850  0.0600 -0.0716  0.1644
30869W        W47130   1.672   3.657   2.955  0.3377 -0.1851  0.0522
30870W        W47131   3.590   5.774  16.692 -0.1804 -0.3658 -0.3218
30871W        W47132   7.705   9.920   1.747 -0.0491  0.3219 -0.0255
30872W        W47133  16.282   4.492   6.414 -0.0201  0.2500 -0.2016
30873W        W47134   4.593   4.949   5.849 -0.0036 -0.0452 -0.1589
30874W        W47135   6.206   2.250  15.500 -0.2436  0.0519  0.1500
30875W        W47136   7.742  14.451  14.964  0.0401  0.0287 -0.0069
30876W        W47137   8.341  11.862  15.693 -0.1572 -0.1155 -0.0518
30877W        W47138   8.676  13.806  12.239  0.0450 -0.0292 -0.0903
30878W        W47139   1.092   2.138  14.192 -0.0391 -0.1358 -0.2019
30879W        W47140   1.030   0.312   5.340  0.0759  0.1938  0.2280
30880W        W47141   9.795  14.568   5.062  0.2101  0.3758 -0.0392
30881W        W47142  14.909  15.195   3.509  0.0299  0.1863 -0.1406
30882W        W47143   4.201  14.337  15.222  0.0462 -0.1674 -0.2697
30883W        W47144   9.073  15.103  16.296 -0.1686 -0.0358 -0.0825
30884W        W47145  16.875  12.371  13.501  0.0953 -0.2765 -0.0043
30885W        W47146  15.549   8.531   4.859 -0.3407  0.0897 -0.0743
30886W        W47147   5.676   4.093   4.016  0.0575 -0.0048  0.1196
30887W        W47148  14.991   7.860  16.374  0.0368 -0.0728 -0.3471
30888W        W47149   5.228   2.236  15.988 -0.0270  0.1552 -0.0589
30889W        W47150   3.364  13.160   1.940  0.0578 -0.0146 -0.3917
30890W        W47151   5.801   1.763   1.481 -0.1071 -0.0162  0.3049
30891W        W47152  12.062  10.803  14.713 -0.0641  0.0704 -0.0821
30892W        W47153   4.121   4.724   3.652 -0.1134  0.0216 -0.0296
30893W        W47154   7.795  13.805  16.098 -0.1208 -0.3701  0.2196
30894W        W47155   6.048  10.301   4.040  0.0034  0.3252  0.0077
30895W        W47156  12.444  10.717   2.535  0.2241 -0.1106  0.0064
30896W        W47157   4.852   3.965   2.290  0.0117  0.1933  0.1556
30897W        W47158  14.271  14.127   3.260  0.0238  0.1489 -0.0978
30898W        W47159  11.077   0.128  12.319 -0.1441  0.0845  0.2538
30899W        W47160   8.444  14.768  11.957  0.0292  0.3849  0.0867
30900W        W47161   7.431  16.570  14.056  0.0847  0.1354 -0.1350
30901W        W47162  12.851  12.143   2.365  0.0883  0.0893  0.0079
30902W        W47163  12.571   2.167  16.599  0.1969  0.2707  0.2008
30903W        W47164   7.007  13.905   0.842  0.2409 -0.0749 -0.1238
30904W        W47165   1.013   6.901   4.399  0.1734  0.0444 -0.0304
30905W        W47166   8.907   3.769  15.295  0.0080  0.0092  0.3073
30906W        W47167  15.250  11.283   5.234 -0.1074 -0.0671  0.2692
30907W        W47168   8.692   2.155  12.754  0.0933  0.0700 -0.0625
30908W        W47169  17.024   3.816   0.161 -0.2075 -0.2371 -0.3915
30909W        W47170   5.521   8.374  12.775 -0.0644  0.1934  0.2907
30910W        W47171  12.552   9.617   5.643 -0.2715  0.1200  0.2933
30911W        W47172   8.895   1.149   5.020  0.0758 -0.3184  0.0790
30912W        W47173   8.536   9.680   1.128  0.2020  0.2862 -0.1075
30913W        W47174  13.633  14.264   1.906  0.1285 -0.2117  0.2910
30914W        W47175   3.541   0.593  15.568  0.1499  0.2040 -0.3219
30915W        W47176  11.550   9.103   2.529  0.1025 -0.1944 -0.1124
30916W        W47177   0.696  17.465  15.575 -0.1192  0.1022  0.0934
30917W        W47178   2.461  13.376  15.463 -0.1823  0.2098 -0.0978
30918W        W47179  12.342   4.786  16.661 -0.0615  0.1310  0.2230
30919W        W47180  10.307   3.561  13.371  0.0727 -0.2754  0.1151
30920W        W47181   7.969  10.384  13.529  0.0574 -0.0850 -0.0314
30921W        W47182   1.440  12.589   5.427 -0.2407 -0.4146 -0.0946
30922W        W47183   2.375  16.172   3.829 -0.2206  0.1419  0.1829
30923W        W47184   4.982   7.761   6.216 -0.0731  0.1913 -0.0136
30924W        W47185   9.856   1.977   4.215 -0.0938 -0.0194  0.2684
30925W        W47186   3.378   0.970  13.269  0.1224 -0.4906  0.2892
30926W        W47187   7.528  10.102   4.101  0.1691 -0.1801  0.0022
30927W        W47188  10.508   3.733  15.020  0.1207 -0.1991 -0.0462
30928W        W47189  11.643   9.652   2.079  0.0183  0.0159 -0.1349
30929W        W47190   2.634  10.195   2.217 -0.0566 -0.2721 -0.1646
30930W        W47191  15.071   3.231   2.276 -0.0871  0.2104  0.0147
30931W        W47192   8.129   5.203   4.564  0.2737 -0.2800 -0.1602
30932W        W47193   2.080  13.063   5.790 -0.3562 -0.1417 -0.1493
30933W        W47194  13.272  17.319  12.079  0.1483 -0.0256  0.0989
30934W        W47195  11.340   0.734   2.767  0.0855 -0.0950  0.1633
30935W        W47196   7.957   2.375  16.968 -0.0205  0.3350  0.0653
30936W        W47197  13.787   4.107  14.098 -0.0346  0.1284 -0.0880
30937W        W47198   7.391   6.431   3.868 -0.0549 -0.0082 -0.0227
30938W        W47199   8.052   4.743  13.687 -0.1360  0.2118  0.1086
30939W        W47200  12.691   4.705   0.068 -0.2292  0.3168 -0.0113
30940W        W47201   9.087  17.007  11.533  0.0596  0.2298 -0.4263
30941W        W47202  12.624   7.395   2.653 -0.3491  0.0660  0.1416
30942W        W47203  15.775  13.738  15.536 -0.4053  0.1537  0.0853
30943W        W47204   5.742   3.112  14.306  0.4241  0.1077 -0.1032
30944W        W47205   7.106  12.903  12.585  0.1115 -0.0564 -0.0758
30945W        W47206   4.363   9.620  12.783  0.0769  0.6565 -0.1481
30946W        W47207   6.497   0.301   3.575 -0.0932 -0.1235  0.0410
30947W        W47208   1.819   6.220   4.742 -0.2356 -0.1228 -0.2125
30948W        W47209  13.745  17.228  12.146  0.0038 -0.1669  0.3628
30949W        W47210   7.080  15.220   0.287  0.0476  0.1913  0.1658
30950W        W47211   9.228  13.124  16.779  0.1180  0.3799 -0.2373
30951W        W47212   4.497   1.768  14.973 -0.0134 -0.0464  0.2549
30952W        W47213   2.985  14.927  14.482  0.2520  0.2289 -0.0132
30953W        W47214  16.032  16.721  13.865 -0.3132 -0.0298  0.1977
30954W        W47215   8.744   5.182   5.716  0.2335 -0.0589 -0.0284
30955W        W47216  10.964   5.445  11.979 -0.0669 -0.1233  0.2067
30956W        W47217   1.537  12.272  13.428 -0.2987 -0.0289 -0.2387
30957W        W47218  12.701   9.205  14.149 -0.1557  0.2661  0.0571
30958W        W47219   5.844   4.231   2.837 -0.0335 -0.1603 -0.2583
30959W        W47220   7.631  11.476   5.814  0.2696  0.2072 -0.1839
30960W        W47221   8.464  14.721   3.488 -0.0289 -0.0875  0.1455
30961W        W47222   9.415   3.076   3.321 -0.0481 -0.0171 -0.1482
30962W        W47223   2.434  15.946  11.173  0.0629 -0.0082 -0.0172
30963W        W47224  11.348   2.950  16.738 -0.1637  0.2239  0.1994
30964W        W47225  11.699   7.529   3.057  0.3476  0.0825 -0.0219
30965W        W47226  12.855   9.002  16.869 -0.0745 -0.2603  0.2022
30966W        W47227   4.481  16.729   4.009  0.4890 -0.2042 -0.4129
30967W        W47228   0.608  11.299  14.189  0.2188 -0.0675  0.2174
30968W        W47229  11.686  17.583   2.217 -0.2790  0.0507  0.3242
30969W        W47230   7.184   3.718   0.523  0.0030 -0.3110  0.4428
30970W        W47231  13.777  10.838   0.075  0.1171  0.1293  0.0913
30971W        W47232  10.584  11.087  13.149  0.3504  0.0207 -0.0446
30972W        W47233   3.265   6.914   3.947 -0.0654  0.2469 -0.0384
30973W        W47234   6.292   7.740  13.582 -0.2365  0.0794  0.5220
30974W        W47235  12.497  10.936   0.489  0.1336 -0.1663 -0.0834
30975W        W47236  15.285   1.664   1.311 -0.2767  0.0754  0.0118
30976W        W47237  17.219   0.096   2.825 -0.1737 -0.1134 -0.0821
30977W        W47238   4.391  10.205   6.168 -0.2572  0.1116  0.1881
30978W        W47239   7.154  11.182   0.665 -0.0735  0.0733  0.0808
30979W        W47240  13.709  16.165  14.756  0.0258 -0.1742 -0.0499
30980W        W47241  16.680   8.035   0.581  0.1275 -0.1336 -0.0429
30981W        W47242   7.210   9.205   6.077 -0.2317 -0.0661  0.1387
30982W        W47243   8.512   5.266   6.326 -0.0071 -0.1770 -0.1012
30983W        W47244   9.265  17.365   4.871  0.1723 -0.0945  0.0901
30984W        W47245   2.674   5.610  16.250 -0.1656  0.0321 -0.0027
30985W        W47246  11.314  17.349   2.075  0.0224 -0.1364  0.0478
30986W        W47247   2.615   9.937  12.913  0.2539 -0.1159 -0.4220
30987W        W47248   8.822   8.206  11.965 -0.1716 -0.0376  0.0236
30988W        W47249  10.078   6.198  12.594 -0.2911 -0.3745  0.1531
30989W        W47250  17.215  17.259   1.462 -0.3512  0.0153 -0.0906
30990W        W47251   8.092   2.175  16.268  0.0260 -0.1059  0.0793
30991W        W47252   7.995   8.368   4.236  0.2956 -0.1679  0.0400
30992W        W47253   4.575  12.167  12.903  0.1567 -0.1930 -0.2631
30993W        W47254  14.212  10.863   3.169  0.1042  0.1521 -0.0943
30994W        W47255   2.756   1.363   1.202  0.1648  0.0300 -0.1939
30995W        W47256   4.200   4.164   2.829 -0.2247  0.0041  0.0255
30996W        W47257   4.781  10.135  12.584 -0.0655  0.3521 -0.0393
30997W        W47258  14.572   6.595   2.241  0.2625 -0.0130  0.1702
30998W        W47259  17.718  11.044  15.728  0.1646  0.0243  0.0938
30999W        W47260  13.229   4.299   0.771  0.0407  0.1107 -0.2747
31000W        W47261   8.599  14.625   1.906  0.1050 -0.4661 -0.2024
31001W        W47262  16.206   3.838   3.086 -0.0396 -0.1217 -0.1820
31002W        W47263   0.102   2.405   3.369  0.2380  0.1634  0.2105
31003W        W47264   7.778   0.192  13.417  0.0899 -0.0438 -0.1365
31004W        W47265  17.038  15.790  14.568  0.2771 -0.1216 -0.1061
31005W        W47266   4.780  14.398   0.562 -0.1018 -0.1464 -0.1688
31006W        W47267  15.072   3.480  15.392 -0.1643 -0.3429 -0.0105
31007W        W47268  16.281  10.278  15.074 -0.1269 -0.3296  0.0271
31008W        W47269  15.421   1.341  13.636 -0.0730  0.3306  0.1831
31009W        W47270  15.519   7.979   3.984  0.0065  0.2185 -0.0653
31010W        W47271  15.694  13.198  15.368 -0.1360 -0.1216 -0.2507
31011W        W47272   7.198  16.237  14.655  0.0030 -0.1124 -0.0460
31012W        W47273   6.716  10.859  14.084  0.0052  0.0297 -0.0415
31013W        W47274  16.930  12.851  15.419  0.0535  0.2123  0.2081
31014W        W47275  13.213   0.550   2.347 -0.2664 -0.0241 -0.0801
31015W        W47276  14.807   2.486   5.527  0.2692 -0.0320  0.2759
31016W        W47277   0.884   5.291  14.033  0.1250  0.1613 -0.1630
31017W        W47278  12.980   2.119   0.878 -0.0951 -0.0780  0.1160
31018W        W47279  14.346   1.709  15.855  0.1537  0.4405  0.3986
31019W        W47280   2.121  10.817   2.748 -0.1725  0.1123  0.0907
31020W        W47281   7.629  16.154  11.607 -0.1351 -0.0159  0.0293
31021W        W47282   2.105  13.033  12.045  0.3230 -0.0282 -0.0287
31022W        W47283   6.527  16.744   4.610  0.0570  0.1597 -0.0492
31023W        W47284  13.461   3.953  16.862 -0.1018 -0.1898  0.1787
31024W        W47285   8.639   3.041  11.773  0.1906 -0.2129  0.1009
31025W        W47286   5.627   5.850   3.574  0.0848  0.0794 -0.3143
31026W        W47287   7.589   0.896   1.617 -0.0439 -0.1288 -0.1219
31027W        W47288   9.152  12.280  12.401 -0.0506 -0.1235  0.1616
31028W        W47289   0.071  10.171   2.865 -0.1165  0.0654  0.1136
31029W        W47290  16.732   1.486  16.033  0.0164  0.2619  0.2912
31030W        W47291  10.562   5.574   3.586 -0.1254  0.4899 -0.4337
31031W        W47292  15.128  13.178   5.161  0.3067 -0.0282 -0.0662
31032W        W47293  10.930   7.226  16.903 -0.3851  0.1945 -0.0487
31033W        W47294  16.666   1.864  14.309  0.0568 -0.0306  0.2533
31034W        W47295   1.619   2.733  13.515 -0.1621 -0.0124 -0.1322
31035W        W47296   8.265   6.973   1.916 -0.1549  0.0279 -0.0877
31036W        W47297   9.552   5.823  13.419  0.0303 -0.3024  0.2500
31037W        W47298   7.176   0.070   3.017 -0.0971 -0.0024 -0.1911
31038W        W47299  11.616   7.232  14.413  0.0147  0.1719  0.0582
31039W        W47300  14.260  12.505  15.634 -0.1251  0.0642 -0.3492
31040W        W47301  13.711  17.048   0.664 -0.0687  0.0354  0.0122
31041W        W47302  13.291  14.082   0.120 -0.1028  0.1650 -0.0256
31042W        W47303  16.482   0.455   3.137 -0.1284 -0.0111  0.0412
31043W        W47304   4.430   3.230   3.963  0.0838 -0.1166 -0.4425
31044W        W47305   3.632  17.328  15.798 -0.1827  0.2068  0.0444
31045W        W47306   3.172  11.814  12.734 -0.2692  0.2323  0.0226
31046W        W47307  15.233   4.026  12.859 -0.3175 -0.1711 -0.1839
31047W        W47308   9.923  11.362  14.542 -0.1117  0.0136 -0.3186
31048W        W47309  12.377  14.079  15.453 -0.0285  0.1445 -0.0206
31049W        W47310   7.836   3.839  13.114  0.1589 -0.2908 -0.0335
31050W        W47311  11.373  15.145   3.248 -0.1659 -0.1707  0.1658
31051W        W47312   3.717  16.427  14.293  0.1130  0.4259  0.0338
31052W        W47313   1.352   4.071  12.047  0.3263 -0.0253 -0.2789
31053W        W47314   4.952  10.401   3.437  0.0367  0.0328  0.1836
31054W        W47315  15.991  11.997   5.264  0.0660  0.1097 -0.0006
31055W        W47316   0.079  11.967  14.347  0.1485  0.0172 -0.2228
31056W        W47317  12.435  12.803   4.434  0.2175  0.0942  0.2077
31057W        W47318  10.256  14.802  13.611 -0.2292 -0.0405  0.1503
31058W        W47319   5.529  16.496   4.630  0.1433 -0.4662  0.0224
31059W        W47320  13.519  12.388  12.181 -0.0777  0.0244  0.0841
31060W        W47321   7.473  10.596  15.702  0.2381  0.1128 -0.0364
31061W        W47322  12.519   9.886   5.088  0.1840 -0.0464  0.1122
31062W        W47323   6.812   4.991   1.015 -0.0043 -0.2584 -0.1016
31063W        W47324   6.194   0.988   6.143  0.0307  0.1067  0.2415
31064W        W47325   1.466   8.135  13.557  0.0425  0.1398 -0.4428
31065W        W47326   8.981   1.729   5.104 -0.2021  0.2737 -0.3365
31066W        W47327  11.334  15.263   0.650  0.2666  0.0045  0.0146
31067W        W47328  16.915   9.108  16.459  0.2743  0.0010  0.2800
31068W        W47329   1.408   9.055   0.646 -0.1013  0.0529 -0.2351
31069W        W47330   3.887  17.069  11.673  0.0003 -0.2353  0.0680
31070W        W47331  14.188   6.903   2.977 -0.3786  0.0076  0.2711
31071W        W47332  15.219  10.853  12.087 -0.1805 -0.1268 -0.3495
31072W        W47333   4.916   2.001   3.392  0.0406  0.0354 -0.2203
31073W        W47334   2.232  14.229  16.017 -0.2178  0.4000  0.1327
31074W        W47335   2.353  15.481   1.325  0.0484  0.0253  0.3167
31075W        W47336   7.692   7.255   4.961  0.0241 -0.0010 -0.0145
31076W        W47337   4.837  14.421   3.346  0.0104  0.2670  0.3339
31077W        W47338  11.812  10.116  13.271 -0.1119  0.1488  0.0914
31078W        W47339   9.052   2.911   3.653  0.2404 -0.1786  0.0660
31079W        W47340   5.738   8.890  11.847 -0.0842  0.3740 -0.0829
31080W        W47341   1.034   5.543  15.071 -0.0639 -0.0296 -0.0181
31081W        W47342   3.801   9.484   5.649 -0.0392 -0.1456 -0.0045
31082W        W47343  11.904  11.635  12.189  0.0051 -0.2775  0.2184
31083W        W47344  11.033   6.350   2.387 -0.1746  0.2195  0.1435
31084W        W47345  15.465   6.523  11.602 -0.2796 -0.2199  0.0774
31085W        W47346   4.846   6.699  11.662  0.1643 -0.1095  0.0831
31086W        W47347  16.554   8.659  16.651 -0.2943  0.2470 -0.2322
31087W        W47348  13.751   5.324  14.869 -0.2293 -0.0801 -0.0333
31088W        W47349  15.975  14.275   4.845  0.1391 -0.1274  0.0653
31089W        W47350   1.651   9.659   3.146  0.0373  0.0838 -0.0249
31090W        W47351  13.236   6.485   2.836  0.0055  0.4409 -0.0560
31091W        W47352   8.793  11.486   1.431  0.0778 -0.1348  0.1175
31092W        W47353  10.992   0.784  15.705 -0.1381  0.1984 -0.0637
31093W        W47354   8.428  11.931  14.972 -0.1928  0.0712 -0.1266
31094W        W47355   9.112   7.675   0.275 -0.0684  0.3101  0.1945
31095W        W47356   5.546   1.168   0.741 -0.0158 -0.0499  0.2929
31096W        W47357  14.739   9.566   2.772 -0.0574 -0.1626 -0.1288
31097W        W47358  16.486   5.099   1.798  0.0066 -0.2246 -0.1113
31098W        W47359  11.311  14.153  12.921 -0.0919 -0.0951 -0.0121
31099W        W47360   8.442  17.430   2.634  0.1770 -0.2118  0.0520
31100W        W47361  13.642  11.766  14.717  0.0361  0.0735 -0.0947
31101W        W47362   2.565  15.294   4.796  0.1783  0.0304  0.3710
31102W        W47363   3.311   7.331   1.410  0.0201  0.3912 -0.1196
31103W        W47364   2.668   7.355  14.357 -0.2149 -0.0515  0.3287
31104W        W47365  16.594   3.157  16.735 -0.3406 -0.1376  0.1433
31105W        W47366   2.466  16.995   5.121  0.0690 -0.2214  0.1416
31106W        W47367  13.842  16.601   2.324  0.1566 -0.0616  0.1587
31107W        W47368   0.920  14.202  16.336 -0.2323  0.0714 -0.0829
31108W        W47369   8.382   1.248   5.082 -0.0852 -0.2686 -0.0264
31109W        W47370  17.788  12.859  15.926 -0.1856 -0.2693  0.2177
31110W        W47371   3.615  17.383   1.371  0.0192  0.2861  0.0383
31111W        W47372   7.125   0.324   2.476 -0.0481 -0.0973 -0.0020
31112W        W47373   8.239  10.956  12.939  0.1960 -0.0075 -0.0004
31113W        W47374   8.084   2.155   6.118 -0.2155  0.0898 -0.2379
31114W        W47375   7.365   2.840   5.269  0.0722  0.0196  0.0847
31115W        W47376   1.872  14.786   1.915 -0.0624 -0.2947  0.1535
31116W        W47377   8.100   8.144   3.311  0.2292  0.1238  0.0208
31117W        W47378   9.712   9.131   0.363 -0.0802 -0.1571 -0.1743
31118W        W47379   3.035   7.615   4.453  0.0325 -0.0754  0.1987
31119W        W47380  11.049  11.093   2.782 -0.3382  0.1865  0.1445
31120W        W47381  10.598   3.045   3.001  0.1723 -0.1773  0.0886
31121W        W47382   7.739   4.456  12.068  0.0118 -0.2473 -0.2183
31122W        W47383   9.690  10.834   4.430 -0.1239  0.0479  0.1281
31123W        W47384   4.261   9.770  16.961  0.0617 -0.2518  0.0477
31124W        W47385  17.614   2.686   4.680 -0.2959 -0.2048  0.0839
31125W        W47386   8.168   6.244  14.881 -0.3291 -0.0147  0.2709
31126W        W47387   7.410  11.416   4.089  0.3800 -0.3551  0.2680
31127W        W47388   3.943   2.857   1.075  0.1552  0.2251 -0.1022
31128W        W47389  16.043  13.829  12.742 -0.0877  0.0099  0.1683
31129W        W47390  16.372   1.710   1.652 -0.1515  0.3718 -0.0007
31130W        W47391  15.012  17.547   5.934  0.1262 -0.1463  0.1531
31131W        W47392   0.013  16.606   1.625 -0.1589  0.0573  0.3795
31132W        W47393  10.836   1.893   2.535  0.0234  0.0401 -0.1636
31133W        W47394  15.032   7.396  16.638  0.0420 -0.0099 -0.2881
31134W        W47395   6.877   3.472  12.303 -0.1826 -0.0878 -0.0500
31135W        W47396   0.809   5.167   2.121 -0.2706 -0.1710 -0.1722
31136W        W47397   6.847  17.028  14.962  0.0700 -0.1567 -0.3629
31137W        W47398  15.041   4.828  12.940  0.0244  0.3299  0.0036
31138W        W47399  15.646  11.656  16.560 -0.0090  0.2176  0.3519
31139W        W47400  17.486   2.085   0.564  0.0945 -0.0033  0.1271
31140W        W47401   9.714   0.914  13.652 -0.0857  0.0392 -0.0162
31141W        W47402   4.887  12.915   0.988 -0.0928  0.1046  0.0015
31142W        W47403  10.060   3.749  14.831  0.2321 -0.0397  0.2236
31143W        W47404  17.198   4.395   5.503 -0.2003 -0.0712  0.0076
31144W        W47405  14.335  11.994   2.624  0.0474 -0.0174 -0.2716
31145W        W47406  16.150  11.832  16.202  0.2570  0.0090 -0.2765
31146W        W47407   0.269  12.348  14.551 -0.0728 -0.3175  0.0758
31147W        W47408  16.749   1.215  13.878 -0.3294  0.0348 -0.1172
31148W        W47409   0.885  11.840  12.214 -0.2088 -0.2044 -0.2058
31149W        W47410  17.480  11.457   2.665  0.0066  0.2041  0.1522
31150W        W47411  17.497  10.438  13.725  0.1715 -0.2430 -0.0358
31151W        W47412   2.668  11.081  15.395 -0.1654 -0.3102 -0.3999
31152W        W47413   2.361   1.462   1.603 -0.0621  0.2450 -0.1713
31153W        W47414   1.390  13.069   3.257  0.1242 -0.1101 -0.1081
31154W        W47415   4.990  10.884   3.604  0.2368  0.2875  0.2166
31155W        W47416  17.468   3.105  13.068  0.0254 -0.0899 -0.0309
31156W        W47417  14.086   3.046  12.316 -0.3886  0.3148 -0.1169
31157W        W47418   5.703  15.623   4.433 -0.1482  0.0377 -0.1271
31158W        W47419  10.678  11.047   4.076 -0.1475 -0.0843  0.4125
31159W        W47420   8.981   2.252   2.100  0.1292 -0.0192  0.4007
31160W        W47421   3.607  11.355   3.134 -0.2676  0.0509 -0.2457
31161W        W47422   4.041  12.519   4.812 -0.0685  0.0204 -0.3505
31162W        W47423   9.545  16.014   5.574 -0.3058  0.4010 -0.3495
31163W        W47424   4.494   7.472  16.860  0.1590  0.0186 -0.1628
31164W        W47425   0.539   8.173  15.738 -0.0149 -0.0589 -0.0666
31165W        W47426   0.170   0.371  15.266  0.0893  0.0198  0.1498
31166W        W47427   9.148  16.572  15.466 -0.0049  0.1122 -0.1898
31167W        W47428  12.590  17.087  12.836 -0.1148  0.0464 -0.2044
31168W        W47429  12.509   3.087  15.654  0.0211  0.2103  0.0974
31169W        W47430   1.418   6.287  11.519  0.1109  0.0939  0.0122
31170W        W47431  10.644   1.741   2.108  0.2844 -0.1355  0.2569
31171W        W47432   8.431  12.210   4.462  0.4181 -0.0183  0.0344
31172W        W47433   9.670  15.651   2.023 -0.0084 -0.0980  0.1600
31173W        W47434  14.378  14.503   0.163  0.2050  0.1065 -0.1481
31174W        W47435  16.958  16.118   5.306  0.2319 -0.1626  0.0995
31175W        W47436   5.197   1.147   3.538  0.0487  0.1717  0.2357
31176W        W47437  11.917  14.919   4.033  0.0626  0.2015 -0.1555
31177W        W47438  14.930   0.240  15.483 -0.0939 -0.0780 -0.2273
31178W        W47439  16.954   8.201   3.742  0.0699 -0.3738  0.1878
31179W        W47440   7.974  15.729   0.549  0.1649 -0.0737  0.0474
31180W        W47441   4.558  10.277   5.593  0.1930  0.0404 -0.2569
31181W        W47442  12.021  13.592   5.012 -0.0726 -0.1261 -0.2338
31182W        W47443   0.466   9.490   0.049 -0.0529  0.1379  0.2170
31183W        W47444   7.208  10.661  16.155  0.0604 -0.1308 -0.0339
31184W        W47445   8.632   1.015  12.714  0.0446 -0.2740 -0.0231
31185W        W47446   6.484   5.002   3.885  0.1156  0.1679 -0.1135
31186W        W47447   5.172   5.998  15.272 -0.0948  0.0948  0.0077
31187W        W47448  12.329   4.133  14.309  0.1776  0.1685  0.3033
31188W        W47449   9.757   5.587  11.831  0.0832 -0.2185 -0.2784
31189W        W47450  11.836  11.547  13.747 -0.0630  0.0462  0.0884
31190W        W47451  14.204   9.804  11.622  0.1399 -0.0190 -0.2660
31191W        W47452   8.112  12.344   4.929 -0.1487 -0.1236 -0.0539
31192W        W47453  15.228   3.157  15.077 -0.0893 -0.0652  0.0294
31193W        W47454   2.851   7.969  12.042 -0.2163  0.0593 -0.4379
31194W        W47455  10.861  16.520   5.905  0.1411 -0.3285  0.0472
31195W        W47456  13.042  11.540   2.441 -0.1308 -0.0143 -0.0491
31196W        W47457  12.794   6.623  15.533  0.1932  0.3809 -0.2513
31197W        W47458   6.483   8.573   6.632 -0.0077  0.1255 -0.0545
31198W        W47459   3.574  11.669   4.546 -0.4635 -0.0494 -0.0664
31199W        W47460   4.626   5.840  14.903 -0.3202 -0.0941  0.1351
31200W        W47461   1.245  15.524  16.473 -0.1618 -0.0804  0.1015
31201W        W47462   6.624  16.248  12.559 -0.1365 -0.1106  0.2760
31202W        W47463  12.993  13.080   2.450  0.1652 -0.2184 -0.0744
31203W        W47464  13.542  11.442  13.587 -0.1392 -0.1354 -0.1167
31204W        W47465   0.277   2.788  13.213 -0.1841  0.0949 -0.3908
31205W        W47466  10.145  11.795  11.560  0.2198  0.3167 -0.3671
31206W        W47467  16.038  15.853  13.686 -0.0730 -0.3499 -0.3532
31207W        W47468  16.934  12.448   1.877  0.2259  0.3490 -0.0840
31208W        W47469  16.900   3.596  13.457 -0.2335 -0.1284 -0.2963
31209W        W47470   1.886  14.839   0.404 -0.0193  0.1502 -0.3035
31210W        W47471   9.818  17.605   5.617  0.3746  0.3171 -0.1502
31211W        W47472   3.520   3.974   4.727  0.1051 -0.1868  0.0885
31212W        W47473   4.289   6.087  13.853 -0.1173 -0.1173  0.3075
31213W        W47474   2.145   8.273  15.316  0.1894 -0.1054 -0.0303
31214W        W47475  12.445   3.257   1.393  0.0640 -0.0115 -0.1183
31215W        W47476   6.690  14.205   0.083 -0.0342  0.0326 -0.4922
31216W        W47477   9.815   5.530   2.971 -0.0188  0.2716 -0.0688
31217W        W47478   4.012  14.038  13.420 -0.1264 -0.2136 -0.1003
31218W        W47479   3.406  12.990  14.130 -0.0318  0.1529 -0.1507
31219W        W47480  15.027   0.438   0.742 -0.3942 -0.0149  0.0019
31220W        W47481  12.454   4.680   1.925  0.0913  0.2492  0.1168
31221W        W47482  15.548  15.413   4.461 -0.0308 -0.1082  0.0760
31222W        W47483   4.267   6.763   3.608 -0.0732 -0.2030 -0.1991
31223W        W47484   3.108  10.466  15.168 -0.1594  0.0119  0.0135
31224W        W47485   3.051  11.306  15.810  0.1698 -0.2164  0.1788
31225W        W47486  17.726   8.620   1.978 -0.3038  0.1780 -0.3549
31226W        W47487  17.728   5.307   2.912  0.1773 -0.1137 -0.2609
31227W        W47488  15.769   5.500   5.804  0.1180  0.2564  0.2947
31228W        W47489   0.879  11.070   2.316 -0.0893 -0.3477 -0.1783
31229W        W47490  11.243   9.102   0.887 -0.1360  0.1706  0.0183
31230W        W47491  10.784   3.027  13.857  0.0096 -0.0157  0.0954
31231W        W47492   7.999   5.200  13.965  0.1243 -0.2888  0.2528
31232W        W47493   0.177   7.719  16.557  0.2058 -0.2577 -0.2175
31233W        W47494   1.977   7.261  15.035  0.0953  0.1065 -0.0766
31234W        W47495  13.894   4.984   2.580  0.0032  0.1166 -0.2206
31235W        W47496  10.678  14.907   2.140 -0.1417 -0.0062 -0.1394
31236W        W47497   8.163   8.631   3.195  0.2437 -0.0929  0.0200
31237W        W47498   8.411  14.283   1.444 -0.1986 -0.5187 -0.3454
31238W        W47499   3.094  17.730   0.610  0.0550  0.1411  0.0626
31239W        W47500  13.827  14.694  16.496 -0.1666 -0.0138 -0.1185
31240W        W47501   9.842   7.235   4.040 -0.0470 -0.1624 -0.1800
31241W        W47502   0.237  14.522   0.051 -0.5095 -0.2573 -0.1665
31242W        W47503   3.851  14.279   0.147 -0.2422  0.0841 -0.1637
31243W        W47504  14.515   7.672   5.473 -0.1997  0.0588 -0.1263
31244W        W47505  10.514  13.859   1.505  0.0827  0.1492  0.0965
31245W        W47506  17.456  16.905   1.701 -0.0770 -0.2514  0.1442
31246W        W47507  16.694   7.903  13.008  0.0520 -0.0520 -0.0527
31247W        W47508   5.575   7.513   2.514 -0.1088 -0.0397 -0.1046
31248W        W47509   9.809   7.226  16.243 -0.0720  0.2157 -0.0299
31249W        W47510  14.285   0.375   3.635 -0.0698  0.3077  0.0251
31250W        W47511  16.583  13.284   3.290  0.0949  0.1615 -0.0012
31251W        W47512   9.147  11.879  13.327  0.1729  0.2066 -0.2198
31252W        W47513  17.667   5.843   2.877 -0.1145 -0.2234 -0.1590
31253W        W47514   9.586   2.943   0.869 -0.0690  0.1317 -0.0614
31254W        W47515   8.224   0.515   1.232  0.1294  0.1381  0.2784
31255W        W47516   7.423   2.984  12.102  0.0255 -0.2492 -0.0947
31256W        W47517   1.291  10.502   2.139  0.0918 -0.0775 -0.1972
31257W        W47518  13.273  14.930  14.672  0.0522 -0.3328  0.2241
31258W        W47519  14.293   4.996  12.968  0.0368 -0.0197 -0.1015
31259W        W47520  15.291  14.170   5.563 -0.0361  0.0837  0.1174
31260W        W47521   3.540   7.806  16.789  0.0983  0.0941 -0.0213
31261W        W47522  10.379   7.593  15.500  0.1083  0.2418  0.5053
31262W        W47523  13.753  13.579  16.475 -0.1703 -0.0690  0.0082
31263W        W47524  10.469   1.922   1.244 -0.5658 -0.0155  0.1563
31264W        W47525   8.698  15.181   1.166  0.4660 -0.0938 -0.1544
31265W        W47526  16.202   1.343  16.656  0.1023  0.2513 -0.0858
31266W        W47527  14.375  15.672   5.023  0.2189  0.1575 -0.0161
31267W        W47528   2.065  11.298   1.140  0.1427  0.1300 -0.1810
31268W        W47529   1.169   1.814  15.868  0.0128  0.1507 -0.4307
31269W        W47530  13.992   0.636   1.488 -0.0886 -0.0729  0.1991
31270W        W47531   8.161   0.565   4.542 -0.1272  0.0335 -0.3544
31271W        W47532  17.744  17.220  12.880  0.0959 -0.2242  0.1682
31272W        W47533  12.237   7.053  12.402  0.0085 -0.2886  0.2173
31273W        W47534  16.608  11.639  14.406 -0.2491 -0.0967 -0.1978
31274W        W47535   1.892   5.692  13.755 -0.2592 -0.1925  0.2083
31275W        W47536  10.496  13.023  16.260  0.0431  0.0300  0.0573
31276W        W47537   0.447  16.067  14.184  0.0230 -0.1929 -0.0711
31277W        W47538   4.734  16.864  16.091 -0.1942 -0.3280  0.0343
31278W        W47539   1.376   2.867   1.574  0.0832  0.0603 -0.0706
31279W        W47540   4.712   8.200  14.311 -0.3025  0.3519 -0.2089
31280W        W47541   1.756  10.710   3.022  0.1784  0.1605  0.0052
31281W        W47542  11.581  14.660   5.538 -0.3624  0.1008 -0.0952
31282W        W47543  13.851  13.043  14.337 -0.0870 -0.0100 -0.1660
31283W        W47544   6.815   8.098   2.443 -0.0606 -0.3234 -0.1666
31284W        W47545  14.428  17.492   4.541  0.0706  0.0904  0.0079
31285W        W47546  10.689  13.444   2.696 -0.1488 -0.2698  0.1871
31286W        W47547   5.626  12.195   4.945  0.0488 -0.0419  0.0652
31287W        W47548   8.839   5.357   2.550  0.0100  0.0891  0.0263
31288W        W47549   7.980  14.809   5.036  0.4070 -0.1226  0.0946
31289W        W47550   6.154   7.580   4.183 -0.0677 -0.2654 -0.0746
31290W        W47551  12.099   8.570   5.121  0.2543 -0.1289  0.3026
31291W        W47552   3.499   5.429   5.807  0.2622  0.0784  0.1767
31292W        W47553   9.755  11.385  15.475 -0.0427  0.1295 -0.1605
31293W        W47554   6.761  15.464  11.079 -0.1518 -0.0775 -0.0809
31294W        W47555  14.726   5.298   5.768 -0.2643  0.0429  0.0699
31295W        W47556  13.858  14.881  13.839  0.1996  0.0823 -0.0311
31296W        W47557   5.683   5.919   6.267  0.1605  0.0027  0.1919
31297W        W47558  10.851   3.197   5.119  0.1936  0.2445 -0.1620
31298W        W47559   4.146   5.577   0.429  0.0301  0.0201 -0.1720
31299W        W47560  12.597   6.521   5.003  0.2057  0.0244  0.0754
31300W        W47561  10.018  16.121   5.900 -0.4245  0.0197 -0.1986
31301W        W47562  16.655  16.799  13.614 -0.3199 -0.0326  0.1591
31302W        W47563  14.508   9.417  13.546 -0.1168 -0.0354  0.2518
31303W        W47564   9.164   0.437  15.368  0.2141 -0.3208  0.2970
31304W        W47565   1.433  13.805   3.940  0.2633  0.2178 -0.0082
31305W        W47566   6.095  11.058   3.585  0.1293  0.3161 -0.0654
31306W        W47567  13.783   1.466  11.961 -0.0396 -0.4072 -0.0620
31307W        W47568   0.742  15.186  14.120  0.0799  0.0644  0.2476
31308W        W47569   9.844   2.845  11.146  0.2337 -0.0583 -0.0153
31309W        W47570  17.286   1.385  16.451  0.3509  0.0942 -0.1285
31310W        W47571  13.763   3.919   4.344 -0.0548  0.1161 -0.0615
31311W        W47572   2.955  14.900  11.870 -0.2390  0.0617  0.0010
31312W        W47573  13.284  10.255   1.012  0.4773  0.0444 -0.1187
31313W        W47574   2.821   0.358  13.355 -0.1323 -0.2098  0.2302
31314W        W47575   9.088  15.267   1.455 -0.6660 -0.2322  0.1561
31315W        W47576  15.224   5.012  16.298  0.1034 -0.2342  0.2612
31316W        W47577   0.699   0.041   6.318 -0.1708 -0.0214 -0.1052
31317W        W47578  17.039   8.469  15.809  0.1983  0.2120  0.1203
31318W        W47579   9.347   3.925  13.982 -0.0730  0.3458 -0.0799
31319W        W47580   6.612   1.484   2.097  0.1916  0.1590 -0.1943
31320W        W47581  15.003  13.208   2.000  0.0666 -0.1490 -0.1031
31321W        W47582   2.172   0.052   2.951  0.1309 -0.1242  0.0613
31322W        W47583   0.357   1.195  14.928  0.0364  0.0598 -0.1073
31323W        W47584  16.544  13.702  12.777  0.0888 -0.1615  0.0404
31324W        W47585   8.057   7.990  15.728  0.4408 -0.1819 -0.1140
31325W        W47586  11.866   1.406   1.323  0.0767 -0.0703  0.0153
31326W        W47587   9.262  11.023  12.385  0.3695  0.0292  0.1486
31327W        W47588  13.015  16.007  12.633 -0.2553  0.0895  0.0130
31328W        W47589  14.655   9.573   3.904  0.0707  0.0991 -0.0402
31329W        W47590   3.189   2.075   2.265 -0.1957 -0.1078 -0.0090
31330W        W47591  11.258   3.952   3.894  0.3234 -0.1493 -0.3043
31331W        W47592   4.271   2.937  11.917 -0.2292 -0.3010 -0.1664
31332W        W47593   7.322  14.648  15.685  0.0980  0.2513 -0.2588
31333W        W47594   8.275   0.526  12.042 -0.1066  0.2225  0.0904
31334W        W47595  11.860   8.299   6.614 -0.1593  0.0994  0.1573
31335W        W47596  17.217  15.762  12.496  0.1292 -0.1965 -0.2901
31336W        W47597   4.057  14.101  14.002  0.0036 -0.4758  0.0279
31337W        W47598   5.714   4.544  13.114 -0.0745  0.1652  0.0099
31338W        W47599   5.468  12.745  14.885 -0.3991  0.2390 -0.2016
31339W        W47600  12.676  10.810   1.087 -0.2052 -0.2043  0.1476
31340W        W47601  16.756  15.612   3.143 -0.0228  0.1434 -0.0535
31341W        W47602   3.251  12.565   3.823 -0.0026  0.2184  0.3873
31342W        W47603  12.156  10.695   2.112  0.1606 -0.0961 -0.4852
31343W        W47604   6.253   1.639  11.708  0.1262  0.0229 -0.3044
31344W        W47605   5.340  14.817   0.036  0.0752  0.2438  0.2765
31345W        W47606  15.634   5.024  14.156 -0.0723  0.2506 -0.0460
31346W        W47607  16.462   3.192   4.085  0.1462  0.2129  0.0837
31347W        W47608   5.708   5.556   3.220 -0.0181 -0.2884  0.0802
31348W        W47609  14.002   9.631  12.530 -0.0234 -0.2468  0.0013
31349W        W47610  11.927   0.047   1.144  0.0553 -0.3221 -0.0064
31350W        W47611   9.857   9.759  16.758 -0.0765  0.1607  0.0900
31351W        W47612  11.738  11.222  14.748 -0.0273 -0.0090 -0.0411
31352W        W47613  16.914  16.904   0.203  0.0666 -0.0073  0.1247
31353W        W47614   4.782  10.435   0.208  0.2798  0.0032 -0.2376
31354W        W47615   6.719   8.003  12.133 -0.0481  0.3446 -0.3777
31355W        W47616  14.706   6.703   0.502 -0.1208  0.1335  0.0228
31356W        W47617  13.830   0.090   3.046  0.1546  0.1307  0.3199
31357W        W47618  17.059  12.285   4.840  0.0348 -0.0504 -0.0888
31358W        W47619   4.616   9.269   3.733 -0.0201 -0.0180  0.0721
31359W        W47620   9.542   7.530  15.029  0.0409  0.0470 -0.1545
31360W        W47621  14.995  13.346   3.534  0.2077 -0.1419  0.0754
31361W        W47622   0.705   9.400   5.087  0.4762 -0.3002  0.2800
31362W        W47623  15.620  13.538   4.526 -0.1181  0.2121  0.1842
31363W        W47624  10.739  17.190  16.124 -0.3169  0.1579  0.0622
31364W        W47625  14.083  14.281  15.075 -0.0765  0.0625  0.0806
31365W        W47626  14.518   9.293  12.290  0.1087  0.1195  0.0625
31366W        W47627   5.520   7.920  11.909  0.1665  0.1601 -0.2385
31367W        W47628   8.265  11.163   4.587 -0.0794 -0.0134 -0.0494
31368W        W47629  16.665   6.573  13.833 -0.0354 -0.2290  0.1115
31369W        W47630   0.637   3.716   0.192 -0.2479 -0.0039 -0.0086
31370W        W47631   0.362   1.603   0.269  0.2791  0.1073 -0.1173
31371W        W47632  11.141   6.320   3.791  0.1693  0.1323  0.1319
31372W        W47633   5.567   3.358   5.492 -0.0559  0.1320  0.2989
31373W        W47634   7.565   0.896  14.678  0.2269 -0.2934  0.1056
31374W        W47635   4.999   3.165  13.638  0.0962  0.1866  0.0716
31375W        W47636   1.205  11.996  12.537 -0.0340 -0.1358 -0.0311
31376W        W47637  14.056  10.508  15.109  0.1854  0.0513  0.0807
31377W        W47638  17.404   3.316   1.970  0.1438 -0.0157 -0.3019
31378W        W47639   3.206  16.666  13.054 -0.4688  0.2306  0.0727
31379W        W47640  14.336   3.554  13.120 -0.1812  0.1442  0.1803
31380W        W47641   2.793   2.969  12.208  0.1397 -0.0363 -0.3539
31381W        W47642  17.107   1.791  16.120 -0.3497 -0.2109 -0.1065
31382W        W47643   1.298  10.672   1.285 -0.0057  0.1455 -0.2238
31383W        W47644  15.316  10.332   1.682 -0.4561 -0.2201 -0.0596
31384W        W47645   0.670   1.250   1.423 -0.2971  0.3299  0.2434
31385W        W47646  15.903   4.554  13.428  0.0122 -0.1044 -0.2698
31386W        W47647   4.698   6.334  14.469 -0.2427  0.2133  0.3692
31387W        W47648  14.006  17.494   2.993 -0.1891 -0.1062 -0.0217
31388W        W47649   8.150  15.432  14.528 -0.1751 -0.0489  0.0094
31389W        W47650   2.703   9.734  13.819  0.2856 -0.0127 -0.1701
31390W        W47651  15.452   2.601  12.953 -0.2318  0.0481 -0.3733
31391W        W47652   6.529   5.860   4.125  0.2519 -0.0250 -0.0173
31392W        W47653   7.704   8.895   4.943 -0.4922  0.1602  0.3180
31393W        W47654   3.019   2.508  13.137 -0.1676 -0.2244 -0.0479
31394W        W47655   1.264   7.649   4.857  0.4518 -0.3717  0.0586
31395W        W47656  16.292  17.418  16.211 -0.0193 -0.2714 -0.1929
31396W        W47657  10.888   3.899  16.888 -0.0675 -0.1681  0.0726
31397W        W47658   6.504  16.722   1.320  0.0461 -0.1012 -0.1708
31398W        W47659  14.697   2.765   5.985 -0.1561 -0.1684  0.1775
31399W        W47660   5.442  16.050   0.547 -0.1931  0.0247 -0.1645
31400W        W47661   0.344   3.184   0.684  0.0087 -0.0679  0.2008
31401W        W47662   5.174   4.832  12.994 -0.1935 -0.2301 -0.1217
31402W        W47663   6.655  14.374   3.634 -0.0870  0.3314 -0.2396
31403W        W47664   7.022  16.587   0.586 -0.0238  0.0537  0.0677
31404W        W47665  14.062  11.053   5.243  0.3353 -0.3948  0.3199
31405W        W47666   0.667   4.289   2.636 -0.1344 -0.0370  0.1421
31406W        W47667   1.781  10.004   6.042  0.0964  0.0554  0.2220
31407W        W47668   0.110   1.007  12.353 -0.0320 -0.0593  0.1325
31408W        W47669   9.113  15.593   4.424 -0.0469 -0.0701  0.1459
31409W        W47670   5.854   1.461  14.338 -0.2986  0.4384 -0.2318
31410W        W47671   2.429   8.413   1.676 -0.1355 -0.1272  0.1558
31411W        W47672  13.230  10.620  11.520 -0.2066 -0.1309 -0.1002
31412W        W47673   9.016   6.262   5.329 -0.1317 -0.1454 -0.3508
31413W        W47674   2.809   0.899  12.460  0.1682 -0.0910 -0.1533
31414W        W47675   6.003  11.488  15.664  0.0223  0.3763 -0.0159
31415W        W47676   5.241  15.064   2.189 -0.2469 -0.2500 -0.2223
31416W        W47677   3.613   1.369  13.193  0.0874 -0.0026 -0.1665
31417W        W47678   3.907  12.005   4.740  0.0171  0.1917  0.1706
31418W        W47679   3.154  13.491  15.448 -0.0888  0.1988  0.0245
31419W        W47680   8.013   8.540  13.088 -0.2509 -0.4992 -0.0703
31420W        W47681  13.149  14.938   0.169 -0.0699 -0.2656  0.1619
31421W        W47682  16.063  13.340   2.386  0.1255 -0.2166 -0.0480
31422W        W47683  17.543  17.607   2.942  0.1151  0.2768  0.1329
31423W        W47684   3.048   2.168  13.521 -0.0404  0.4049  0.2318
31424W        W47685  14.334  11.749   1.480 -0.3007  0.2422 -0.1529
31425W        W47686   9.397  16.928  14.225 -0.1788  0.1324  0.1669
31426W        W47687   5.481   9.606   2.727 -0.2324 -0.2018  0.0645
31427W        W47688  16.359  15.314   2.689 -0.0375 -0.1703  0.1273
31428W        W47689  11.128   4.054  15.432 -0.3443  0.1287 -0.2031
31429W        W47690   6.911   4.518   0.939 -0.2280 -0.0793  0.1752
31430W        W47691  15.221   4.712   5.193  0.0783  0.4767 -0.0416
31431W        W47692  15.665  15.945   0.168  0.4498 -0.0803 -0.0470
31432W        W47693   1.730  12.273   4.754  0.0064  0.0644  0.1368
31433W        W47694   0.005  13.813   1.007 -0.1358  0.3377 -0.0573
31434W        W47695   0.085  10.272   4.163 -0.0428 -0.3211  0.4135
31435W        W47696   2.294   8.141  14.225  0.2655 -0.0996 -0.0430
31436W        W47697   2.659   5.731   1.277 -0.0509 -0.1505 -0.2880
31437W        W47698  11.254   7.259   5.635 -0.1798  0.1567 -0.2300
31438W        W47699   1.294  13.040   1.470 -0.1521 -0.0365  0.0766
31439W        W47700  10.098   8.222   2.070  0.1555  0.0326 -0.1880
31440W        W47701  13.287   8.486   2.150  0.5046 -0.2165  0.2067
31441W        W47702  15.296   6.885  11.910 -0.0308  0.1743 -0.0470
31442W        W47703   1.404  17.502  16.121  0.1721  0.2909  0.2443
31443W        W47704   6.148  17.051  15.098  0.0662 -0.0805  0.0611
31444W        W47705   6.607  15.375   4.184  0.3060 -0.0791  0.0995
31445W        W47706   3.788   0.729   2.816 -0.0140  0.1037  0.0262
31446W        W47707  15.220   0.518   4.469  0.1209 -0.3281 -0.1399
31447W        W47708   5.917  11.689   1.802 -0.1520  0.1961 -0.1127
31448W        W47709  11.587  11.097  16.220  0.1288 -0.0684 -0.2078
31449W        W47710  17.307   7.547  11.521  0.0879 -0.2624 -0.1297
31450W        W47711   0.467   3.091  15.968 -0.0108 -0.1480 -0.2552
31451W        W47712   6.350   3.707   3.111  0.2138  0.1468  0.0246
31452W        W47713   1.398  14.433   1.304  0.0852 -0.0824  0.1084
31453W        W47714   1.829  14.651   5.216  0.3377  0.1439  0.3705
31454W        W47715   6.199  12.407   4.112  0.2708  0.1657  0.1547
31455W        W47716  14.335   6.078   2.183  0.3149 -0.2420 -0.0911
31456W        W47717  15.721  11.172   5.272  0.1088  0.2418 -0.1648
31457W        W47718  16.246  16.641  13.353 -0.0407  0.0045  0.2032
31458W        W47719  14.994   8.977  14.080  0.1433 -0.0921 -0.1265
31459W        W47720   6.533  14.664   0.802 -0.0184 -0.5615 -0.0756
31460W        W47721   9.429   9.625  16.550 -0.1359 -0.0560 -0.1161
31461W        W47722  10.826  13.524   4.237  0.0549  0.1036 -0.2312
31462W        W47723  12.627   5.342  14.384 -0.0206  0.2870  0.2458
31463W        W47724   9.583   3.020   4.960 -0.0329  0.2421  0.1846
31464W        W47725   1.496   8.851   5.128 -0.1670 -0.0506 -0.0609
31465W        W47726  12.814  11.341  15.768 -0.0930  0.2242 -0.2901
31466W        W47727   4.380   8.279   4.578 -0.0460  0.2783  0.2099
31467W        W47728   4.911   1.600  15.566  0.1619  0.0242 -0.1409
31468W        W47729  10.509   0.272   4.509 -0.0848 -0.2190 -0.2644
31469W        W47730   7.200  11.866  14.477 -0.1052  0.1491 -0.1635
31470W        W47731   8.254  14.379  13.635  0.1549  0.2726  0.1760
31471W        W47732  13.774   2.368  14.735 -0.1054  0.0442  0.0111
31472W        W47733  14.085   4.011  13.173  0.0547  0.0015  0.1043
31473W        W47734  17.339  12.857  11.902  0.1917 -0.0108 -0.2476
31474W        W47735  13.173  16.701  13.333  0.2050 -0.2086 -0.0912
31475W        W47736   8.147   4.307   3.648  0.0424  0.1093  0.2685
31476W        W47737  14.159  11.335   4.306 -0.2066  0.1308  0.2343
31477W        W47738   6.798   8.496  15.720  0.1811 -0.2892  0.0562
31478W        W47739  11.768  10.904  12.962 -0.1081  0.0288  0.0352
31479W        W47740   1.657  17.071   0.968  0.1347 -0.0606  0.1491
31480W        W47741   9.452  11.760  15.292 -0.2061  0.0824  0.0089
31481W        W47742   6.382  10.623  16.302  0.1181  0.1303  0.2509
31482W        W47743  16.432  16.468  13.876 -0.2636  0.0645 -0.0318
31483W        W47744  12.239   5.978  13.147 -0.0481 -0.2334 -0.0297
31484W        W47745   9.008  14.534   4.524  0.2347  0.1014  0.1594
31485W        W47746  13.104   4.156   4.605 -0.0830  0.0865  0.1933
31486W        W47747   7.575  12.653  15.234 -0.0296  0.1751  0.0347
31487W        W47748  13.810   3.018   4.836  0.2308  0.1031 -0.0223
31488W        W47749  10.479   9.433   2.592  0.0403 -0.1876 -0.3873
31489W        W47750   8.196  12.701   2.428 -0.0054  0.0001 -0.0333
31490W        W47751   2.278  11.512   5.103  0.0531 -0.2640  0.0408
31491W        W47752   8.037   7.915  12.012 -0.1541  0.4280  0.0829
31492W        W47753   7.362   4.439   0.646 -0.1564 -0.0743  0.0113
31493W        W47754  12.557   5.938   0.756 -0.0330  0.0553  0.0611
31494W        W47755   7.770  17.717   0.690 -0.1065 -0.0286  0.3090
31495W        W47756   0.451   7.326   2.337  0.0322  0.1463  0.0167
31496W        W47757   1.143   9.577   1.308  0.3681 -0.0818  0.1519
31497W        W47758  15.582   2.686  15.736 -0.3148 -0.2317  0.1264
31498W        W47759   3.717   8.858   1.916  0.3876  0.1948 -0.0167
31499W        W47760   4.434   1.423   4.248 -0.2016  0.1154 -0.1293
31500W        W47761  11.023   8.022   1.150  0.1046  0.2050  0.1231
31501W        W47762   8.849  17.099   0.813  0.0015 -0.0225  0.2420
31502W        W47763   4.646  14.997   5.381 -0.2573  0.1063 -0.1679
31503W        W47764  15.948   9.218   5.880 -0.0204 -0.2866 -0.0636
31504W        W47765  11.763   5.989   1.823 -0.1398 -0.1081  0.0072
31505W        W47766   7.319  12.263  14.181  0.0401  0.0810 -0.0655
31506W        W47767  15.400  17.487  15.592 -0.1089  0.1682 -0.1530
31507W        W47768  16.210   6.772   0.938 -0.2036  0.1141  0.4625
31508W        W47769  17.495  15.444  15.866 -0.0921 -0.0536  0.3150
31509W        W47770   4.622  15.076  13.561  0.2516  0.1416  0.3314
31510W        W47771  13.845  14.462  13.015 -0.1368  0.0603 -0.1875
31511W        W47772   3.035   8.183  14.759  0.2058 -0.1972 -0.5044
31512W        W47773   2.962  15.867   0.141 -0.3034  0.0317 -0.1927
31513W        W47774  16.887   5.916   4.184 -0.1719 -0.0784  0.0510
31514W        W47775   4.011   3.607   5.850 -0.2293 -0.2511 -0.0287
31515W        W47776   9.583   2.598  16.845 -0.0840 -0.1030  0.2361
31516W        W47777  14.756   9.566  11.968  0.1212 -0.1596  0.2748
31517W        W47778   6.679   3.629   0.733  0.1933 -0.1695  0.1369
31518W        W47779   2.662  17.667   0.334  0.1491 -0.1005  0.1447
31519W        W47780   7.600  15.774   5.325  0.2317  0.0422  0.3036
31520W        W47781  14.862   6.548   3.935 -0.2730  0.0820  0.1393
31521W        W47782   7.774  13.831  10.819 -0.3185 -0.0759 -0.2735
31522W        W47783  10.654  17.469  16.520  0.0172  0.1494 -0.3462
31523W        W47784   3.032  15.471  13.192  0.1531  0.0484 -0.1559
31524W        W47785  17.671   0.180   5.783 -0.0944  0.0029 -0.1930
31525W        W47786   4.100  11.199  15.212 -0.0523  0.1902 -0.2504
31526W        W47787   7.058   9.315  15.046  0.2501 -0.0934  0.0840
31527W        W47788   8.106  15.938   1.660 -0.0998  0.0555  0.1391
31528W        W47789   4.905   4.333   4.382 -0.1800 -0.2091 -0.0303
31529W        W47790   0.728   5.859   0.320  0.1753 -0.1948  0.1562
31530W        W47791  10.676   2.669  14.384 -0.3590 -0.1182 -0.1313
31531W        W47792  11.478   4.635   3.274  0.0818 -0.0541 -0.0592
31532W        W47793   5.135  12.559  14.017  0.2074  0.2406  0.3141
31533W        W47794   4.506   7.347  12.719 -0.0421  0.1596 -0.0643
31534W        W47795   3.719   0.903   1.783  0.0340  0.1233 -0.0069
31535W        W47796  11.424   2.027   3.305 -0.1955 -0.1690  0.2085
31536W        W47797   2.245   7.968   4.641  0.1357  0.0374 -0.0562
31537W        W47798   2.094  17.725  15.670  0.1001  0.1507 -0.1309
31538W        W47799   6.523   3.307   2.185 -0.1062 -0.0258  0.0657
31539W        W47800   4.699   2.786  12.520 -0.0585 -0.2964 -0.1109
31540W        W47801  12.407  14.992   2.440 -0.0272  0.2247  0.3244
31541W        W47802   4.908  16.353   1.877  0.1804 -0.1042 -0.0971
31542W        W47803   6.771  14.803  13.226 -0.1656  0.1618 -0.0631
31543W        W47804  10.473   9.028   5.508 -0.1782  0.0021  0.1423
31544W        W47805   9.604   4.573   3.106 -0.0384  0.0700  0.1939
31545W        W47806   3.116  11.868   5.998 -0.0319 -0.0802 -0.2120
31546W        W47807   9.323  12.058   4.811 -0.3461 -0.3115  0.0101
31547W        W47808   6.119  15.705   3.443 -0.1323  0.3208 -0.1629
31548W        W47809  12.931   2.922  16.041  0.1293  0.1306  0.6343
31549W        W47810   5.367   4.986  12.096 -0.2853  0.1253  0.1589
31550W        W47811  10.047   2.920  16.445 -0.3318  0.2061 -0.3282
31551W        W47812  11.247  15.636  14.913 -0.0805  0.1473  0.0495
31552W        W47813   8.024   3.444   1.719 -0.1457 -0.1707  0.3538
31553W        W47814  15.082  15.087   2.093  0.0853 -0.3010 -0.1959
31554W        W47815   3.564  17.153   1.848 -0.3627  0.0946 -0.1503
31555W        W47816  15.478   6.228   4.510  0.1237 -0.0350 -0.4557
31556W        W47817  13.963  11.160   2.518 -0.2186  0.1860 -0.1328
31557W        W47818  11.660   9.224  14.573 -0.0766 -0.0795 -0.5615
31558W        W47819   6.673   1.337   0.450  0.1855 -0.0663  0.2020
31559W        W47820  13.581  15.700  11.791  0.2125  0.1500  0.0093
31560W        W47821   8.664  16.030   5.911  0.4497 -0.0070 -0.0843
31561W        W47822  15.428  14.549   0.475  0.3989  0.1133  0.0084
31562W        W47823   2.389  17.359   1.578  0.0257  0.1652  0.4721
31563W        W47824   3.078   9.800   3.120 -0.0879 -0.0963 -0.0020
31564W        W47825   4.106  12.928  16.060  0.0059 -0.0173 -0.1814
31565W        W47826   7.659  15.568  11.205 -0.3006 -0.0979  0.4579
31566W        W47827  17.254   4.711   3.306  0.4355  0.1270 -0.0820
31567W        W47828   7.606  12.137  15.462 -0.1437  0.2684  0.1669
31568W        W47829  14.451   3.005  16.205  0.0381 -0.0341  0.2576
31569W        W47830   1.991   0.036   0.737  0.0678 -0.1314 -0.0128
31570W        W47831   2.380  17.654   5.780  0.2058  0.2069  0.1363
31571W        W47832   2.803  17.415  15.765 -0.1539  0.1620 -0.0993
31572W        W47833   8.506   6.441  14.225  0.2854 -0.1736  0.1177
31573W        W47834   4.110   3.931  15.049 -0.0687  0.3648 -0.0048
31574W        W47835   2.421  17.663   5.263  0.0418 -0.1130 -0.0927
31575W        W47836  12.498   8.575  11.022  0.1075  0.1898  0.4509
31576W        W47837  10.373   7.644  11.686 -0.3131  0.2825 -0.0455
31577W        W47838  11.813   9.039  12.524 -0.0842  0.1124 -0.1038
31578W        W47839  16.594   7.391   3.240  0.1583 -0.0227 -0.1663
31579W        W47840  11.702  11.329   3.602  0.1073 -0.0914  0.3906
31580W        W47841   4.395   2.332  13.519  0.0852 -0.1892 -0.2232
31581W        W47842   9.226  15.472   1.878 -0.0305  0.1937 -0.1184
31582W        W47843  10.068  13.638   1.570  0.2808 -0.0097  0.0735
31583W        W47844   3.507   9.628   2.455 -0.3330 -0.1672  0.0982
31584W        W47845   1.460   8.662  13.063  0.0384  0.0522 -0.3083
31585W        W47846  13.191   8.897  15.288  0.0118 -0.0745 -0.2171
31586W        W47847  10.271   5.207   3.820  0.0005  0.0742 -0.1724
31587W        W47848  14.620  16.299   1.396  0.0372  0.0380 -0.0190
31588W        W47849  10.547   3.402   1.922  0.0942 -0.0647 -0.1120
31589W        W47850   7.971  10.670   4.511  0.1817 -0.2103  0.1457
31590W        W47851  11.332  17.648   2.589  0.0649  0.0055  0.2854
31591W        W47852   8.820  14.729   3.116 -0.0121 -0.3101  0.0226
31592W        W47853  15.419   8.993  11.769 -0.2593  0.0023  0.2579
31593W        W47854  11.240   6.717   1.272  0.2355 -0.2579  0.3333
31594W        W47855  17.003   0.202   3.846 -0.2814 -0.1163 -0.0369
31595W        W47856   1.452  13.468   3.592 -0.0831  0.0163 -0.1376
31596W        W47857  12.490   0.983   2.664  0.3128  0.2276  0.0350
31597W        W47858  11.750  10.206   2.122 -0.0608  0.1188  0.0806
31598W        W47859   7.373  12.517  15.689  0.0155 -0.5090  0.0367
31599W        W47860  12.068   9.680   4.978 -0.2659 -0.0052 -0.0968
31600W        W47861   9.533   6.141  12.492  0.0485 -0.1386  0.0783
31601W        W47862  13.881  11.059  11.933  0.0485  0.3925 -0.1261
31602W        W47863   2.750  16.314  14.641  0.2580  0.1076  0.1035
31603W        W47864   6.414   3.426  13.876  0.0335 -0.0145  0.0815
31604W        W47865   9.235   6.347  13.742  0.0219  0.2440 -0.1099
31605W        W47866  17.848   3.636  12.516  0.2398  0.3450  0.0586
31606W        W47867   3.885   8.359   4.500  0.2304 -0.2614 -0.1902
31607W        W47868   1.422  16.976  15.314 -0.0409  0.0330  0.1689
31608W        W47869  10.761   8.709   2.072  0.1237 -0.0998  0.0433
31609W        W47870  10.654  15.954   4.798  0.1531  0.2690  0.1398
31610W        W47871   8.181   8.398  11.816 -0.2161 -0.0256 -0.1174
31611W        W47872  13.739   3.049   3.037  0.1707  0.0491  0.0511
31612W        W47873   5.981   0.508   4.175 -0.1314 -0.2952 -0.0430
31613W        W47874   1.254   2.993   0.289 -0.1812  0.0902  0.0525
31614W        W47875   6.943  16.530   5.698  0.1019 -0.2278 -0.2961
31615W        W47876   9.900   3.626   0.123 -0.2044 -0.0781  0.1492
31616W        W47877  17.640  17.112   4.789 -0.4040 -0.0095  0.4587
31617W        W47878   4.510  12.569   4.602 -0.1171 -0.3905 -0.3813
31618W        W47879  11.968   3.169  12.142  0.1385 -0.2212 -0.3327
31619W        W47880   1.278  14.669  15.545  0.1563  0.1527 -0.1547
31620W        W47881  10.232   6.869  14.868 -0.0003  0.1862  0.1920
31621W        W47882  17.283  13.563   4.393 -0.0685  0.1029  0.0461
31622W        W47883   7.794   2.215  11.738  0.0930  0.0638 -0.1841
31623W        W47884  12.822  16.382  15.068 -0.0335 -0.1161  0.0697
31624W        W47885   2.672  17.771  14.602  0.1868  0.0892  0.0546
31625W        W47886   8.598   8.969   4.814  0.0836 -0.1802 -0.1471
31626W        W47887   4.930  10.008  11.860  0.3349  0.0721 -0.1046
31627W        W47888   1.791   1.509  15.315  0.1366 -0.0592 -0.1059
31628W        W47889  15.602  15.123  14.341  0.1283 -0.1513  0.4349
31629W        W47890  16.046   7.828   4.210 -0.0141 -0.0579  0.0283
31630W        W47891   4.735  11.726  13.558 -0.3048  0.0088 -0.2063
31631W        W47892   3.804   6.578   2.564  0.0118  0.0841  0.0095
31632W        W47893   6.666   9.392  14.612 -0.1690  0.1080  0.2659
31633W        W47894   4.304  14.422   4.387  0.1159 -0.3497 -0.0510
31634W        W47895   1.042  14.005  16.833  0.1719 -0.0609 -0.0089
31635W        W47896   1.157  15.096   1.098  0.2093 -0.1325 -0.0284
31636W        W47897   6.602   1.618   3.728  0.0575  0.2474 -0.2278
31637W        W47898   1.386   6.101   1.428 -0.2408 -0.0673  0.0041
31638W        W47899  16.643  10.384   2.650  0.0772 -0.3148  0.3375
31639W        W47900  14.698   8.540   2.458  0.0582 -0.2161 -0.0198
31640W        W47901   4.775   3.580   3.097  0.0461 -0.0564 -0.1576
31641W        W47902  17.478   0.983   2.365 -0.0193 -0.2109  0.0668
31642W        W47903   4.077  10.962   3.297  0.1892  0.0257 -0.1247
31643W        W47904   0.359  10.856  15.849 -0.2292 -0.0067  0.2405
31644W        W47905   6.307   8.777  15.497 -0.0364  0.1075 -0.0046
31645W        W47906   2.914   3.984   4.916  0.0778 -0.2272  0.0034
31646W        W47907   5.123   0.997   0.108 -0.1691  0.1663 -0.0070
31647W        W47908   4.656   0.372  15.828  0.0584  0.2134 -0.2915
31648W        W47909  14.763   5.069  16.535  0.1908  0.0441 -0.0829
31649W        W47910   7.656  12.425   4.795 -0.1706  0.1216 -0.1868
31650W        W47911   3.518   2.626   1.930  0.2276 -0.1929  0.1601
31651W        W47912   8.395   1.470   0.063 -0.3822 -0.2638  0.3271
31652W        W47913   9.650   2.586   1.203  0.1366  0.0698  0.0788
31653W        W47914   3.690  15.149   4.422 -0.0421 -0.0943  0.0585
31654W        W47915   7.540  11.919  11.841 -0.0497  0.2243  0.0018
31655W        W47916  16.903   0.011   2.252  0.2836  0.1465 -0.3173
31656W        W47917   9.599   2.374   5.109  0.0097  0.0340 -0.0102
31657W        W47918   0.984   6.422   0.479 -0.1632  0.1482  0.0600
31658W        W47919  11.977   9.322   5.363 -0.0463  0.2087  0.0854
31659W        W47920   3.734   5.815  15.912 -0.4461 -0.3358 -0.2247
31660W        W47921  16.105   9.192  13.216  0.3411  0.2694 -0.2926
31661W        W47922   3.632  15.304  11.522  0.2301 -0.2521  0.4381
31662W        W47923  16.173  13.641  12.286 -0.4455  0.1730 -0.0685
31663W        W47924   6.268  14.237   2.043 -0.0149  0.0537 -0.0329
31664W        W47925   1.980   7.000  12.636 -0.2563 -0.2574 -0.0441
31665W        W47926  17.219   2.063  12.914  0.0877  0.1204  0.0381
31666W        W47927  12.728   2.093   1.686  0.1695  0.0491  0.4636
31667W        W47928  11.732   6.651  10.536  0.1016  0.0711  0.0208
31668W        W47929   1.758   0.429  15.069 -0.0469 -0.1897  0.0603
31669W        W47930  12.164   2.860  14.804 -0.2838  0.0954 -0.0251
31670W        W47931  12.594  15.722   2.529 -0.0804 -0.2242 -0.1839
31671W        W47932  17.834  15.354   0.253  0.2698 -0.0009  0.1127
31672W        W47933   0.509   0.624  16.142 -0.2614 -0.2323  0.4097
31673W        W47934   0.108  15.822  15.844  0.0928  0.1706  0.0460
31674W        W47935   4.461  14.395   2.525  0.0193 -0.1517 -0.1755
31675W        W47936  11.275   8.544  16.065 -0.0491  0.0701  0.3577
31676W        W47937   2.954   1.126  13.042 -0.0603 -0.0052 -0.1795
31677W        W47938   4.582   3.336   5.035  0.0855  0.2330  0.2060
31678W        W47939   8.849   7.577  12.744  0.0603 -0.0165  0.0028
31679W        W47940  14.279  15.941   0.466  0.2360 -0.3599  0.0220
31680W        W47941   4.682   8.889   3.023  0.0573 -0.1339  0.3637
31681W        W47942   8.179   2.922  13.927  0.0659 -0.1048 -0.0446
31682W        W47943   0.087  13.596  16.021 -0.3241 -0.0493 -0.0012
31683W        W47944  10.757   7.673  12.001 -0.0924 -0.0730 -0.0626
31684W        W47945   6.885   3.411   0.302 -0.1844 -0.3917  0.1412
31685W        W47946  12.915   8.224  12.004 -0.0280  0.2238 -0.1064
31686W        W47947  14.111   9.535   4.419  0.0487  0.0375 -0.2514
31687W        W47948   4.155  16.532   3.117  0.1660  0.0513 -0.1346
31688W        W47949   2.449   6.307  12.767  0.1562  0.0777  0.0647
31689W        W47950   6.029   4.734  12.675 -0.0800 -0.1411 -0.1521
31690W        W47951  14.317   3.884  12.663 -0.1666  0.1248 -0.0361
31691W        W47952   6.681   6.875  15.419 -0.0432  0.1773 -0.0999
31692W        W47953  12.431  10.330   1.153  0.1283 -0.0935  0.2031
31693W        W47954  17.185  13.602  14.182 -0.0088  0.0515  0.1146
31694W        W47955  15.234  16.738  13.399  0.0598 -0.1402  0.0150
31695W        W47956  15.550   0.794   2.045 -0.3320 -0.1443 -0.0641
31696W        W47957  16.585   7.733   0.995 -0.2383 -0.1579  0.1601
31697W        W47958   1.271  15.159  11.355  0.0849 -0.1511  0.1673
31698W        W47959  14.593   8.241   3.323  0.3021 -0.0897 -0.0364
31699W        W47960  17.661  13.875   1.518 -0.1579 -0.1345 -0.1411
31700W        W47961  14.666   8.818   1.110 -0.0862 -0.1048 -0.1486
31701W        W47962   4.797   1.044   2.393 -0.1524  0.3705 -0.1369
31702W        W47963   2.898   0.297   5.095 -0.1484  0.2708  0.2731
31703W        W47964   4.270   0.082  15.601 -0.0125 -0.0424 -0.0389
31704W        W47965   7.441  12.377   3.561  0.0906  0.0461 -0.3397
31705W        W47966   5.059  17.336  15.137  0.0614 -0.0792 -0.1478
31706W        W47967  11.774   4.823  13.186  0.0818 -0.0555  0.1278
31707W        W47968  16.804   1.881   0.730 -0.0570 -0.1778  0.2966
31708W        W47969  10.340   4.015  16.725  0.0088 -0.1259  0.0518
31709W        W47970  10.765  16.822  12.811  0.2017 -0.0207  0.3079
31710W        W47971  13.073  16.903  12.844 -0.1344 -0.0557  0.0101
31711W        W47972   9.068   2.224   3.155 -0.0386  0.0720 -0.2513
31712W        W47973   6.800  12.064  12.776  0.0057  0.3357  0.0257
31713W        W47974   3.637   2.061  12.674  0.2237  0.0221  0.0367
31714W        W47975   0.304  12.880   1.582 -0.1905 -0.0400 -0.3888
31715W        W47976   9.135  15.297   5.751  0.0098 -0.0886  0.3326
31716W        W47977   6.108  13.343  13.798 -0.2242 -0.0177 -0.0418
31717W        W47978   3.287  11.465   1.202  0.1637  0.3728 -0.1886
31718W        W47979  12.086   1.637   2.206  0.0411 -0.1342 -0.1403
31719W        W47980   2.796   4.347  15.578 -0.1015 -0.0878  0.1057
31720W        W47981  12.817  17.010   2.012  0.1002  0.1068 -0.0146
31721W        W47982   5.893  15.403  13.967 -0.0350 -0.0763  0.1769
31722W        W47983  12.604   2.649   4.432 -0.0084  0.0295  0.1969
31723W        W47984   8.299   1.986   4.802 -0.0638  0.0095 -0.1256
31724W        W47985   0.117   4.958  14.176  0.1624  0.2613  0.0142
31725W        W47986   1.849  16.589   0.659  0.2609 -0.1076  0.0531
31726W        W47987   6.963  13.439   3.061  0.2231  0.3068 -0.2004
31727W        W47988   7.181   9.464   3.476 -0.0184 -0.4185  0.1353
31728W        W47989   5.315  15.557   0.765 -0.0258  0.0970 -0.0473
31729W        W47990   0.206  12.863   0.114  0.1147 -0.0480 -0.1821
31730W        W47991  11.309  17.430  15.802 -0.0076  0.0616 -0.2032
31731W        W47992   5.000  10.690   5.611 -0.0159 -0.4212 -0.1553
31732W        W47993   1.400   7.351  12.036  0.0688 -0.0049 -0.1013
31733W        W47994   8.580   0.035  12.203  0.1961  0.0195 -0.6390
31734W        W47995   2.562  16.788   4.632 -0.3628 -0.2305  0.1370
31735W        W47996  13.148   7.761  13.060  0.2379 -0.0809 -0.3151
31736W        W47997  17.189  13.418   5.734  0.1062 -0.1521  0.2277
31737W        W47998  17.177   3.360  15.553  0.2620  0.0138 -0.0176
31738W        W47999  12.327   1.815  14.727 -0.0994  0.2122 -0.0129
31739W        W48000  10.836   7.506  11.479 -0.0318 -0.0392 -0.1458
31740W        W48001   5.744  17.576  12.755 -0.0109  0.1138  0.0802
31741W        W48002   1.034  14.439   4.411 -0.0758  0.0427  0.2684
31742W        W48003   9.771  15.097   5.304 -0.1550 -0.4253 -0.1789
31743W        W48004   4.941  15.564  13.296  0.0019 -0.1234 -0.2343
31744W        W48005  12.282   3.165   0.275 -0.1476 -0.1352 -0.0611
31745W        W48006   7.210   8.846  15.768 -0.0858  0.4614  0.1526
31746W        W48007  14.747  14.954   1.049  0.0990  0.0278  0.1943
31747W        W48008  15.368   4.161   5.814  0.2980  0.1957  0.0260
31748W        W48009   9.251  16.616  16.929  0.0301  0.2808 -0.1030
31749W        W48010  16.229  12.046   0.788  0.0508 -0.0416 -0.1460
31750W        W48011   5.783   0.124   2.176 -0.1471 -0.2995 -0.0671
31751W        W48012   9.516   3.483  16.345 -0.1100  0.0778 -0.0465
31752W        W48013   4.942   4.059   6.500  0.1245 -0.1300 -0.0582
31753W        W48014   8.068   1.467   2.112 -0.1188 -0.0848 -0.0618
31754W        W48015   2.564  11.023   3.751  0.2700  0.2536 -0.4752
31755W        W48016  15.042  15.527   0.794 -0.1774  0.0185  0.1207
31756W        W48017   0.262   3.587   2.618 -0.1832  0.1060 -0.1961
31757W        W48018  10.222  16.967   3.178  0.1382 -0.4247 -0.3209
31758W        W48019   1.583   2.152  13.372 -0.0821  0.1279 -0.1358
31759W        W48020   4.302   7.950   2.901  0.2205 -0.1966  0.0943
31760W        W48021   7.303  15.406   1.481 -0.1378  0.1678  0.3287
31761W        W48022   9.079  13.167   5.148 -0.2144 -0.3573  0.1201
31762W        W48023   9.170  13.753  11.332 -0.1975 -0.1225 -0.1128
31763W        W48024  15.201   8.575   1.746 -0.0858 -0.1160 -0.1881
31764W        W48025  11.593   8.026  15.300 -0.3629 -0.2199  0.1250
31765W        W48026  13.786   4.063   3.852  0.2286  0.0327  0.2074
31766W        W48027   4.202  11.578   1.217  0.0302 -0.1076  0.2663
31767W        W48028   8.812  17.608   2.376  0.1231 -0.0930  0.0350
31768W        W48029   6.724   5.948  11.529  0.0553 -0.0638  0.0700
31769W        W48030  13.003   8.064  15.595  0.2066  0.1115 -0.1050
31770W        W48031  11.850   1.970  14.507 -0.0335  0.0421 -0.0973
31771W        W48032   3.317   6.315  13.168 -0.0586 -0.1463  0.0541
31772W        W48033   9.173   7.886  15.318 -0.0796  0.0681 -0.2029
31773W        W48034  14.859  14.266   4.518 -0.1068 -0.2954  0.3475
31774W        W48035   2.851  13.539  12.085  0.3393  0.0128 -0.0538
31775W        W48036   9.609  15.061   1.247  0.0075  0.0809 -0.0453
31776W        W48037  13.667  16.165   1.709 -0.1583  0.0904 -0.0120
31777W        W48038   6.871   8.812   1.323 -0.0836 -0.1724 -0.0219
31778W        W48039   6.167  10.294  16.725 -0.0546 -0.0827 -0.0844
31779W        W48040   4.919   0.193   4.228  0.1951  0.2768  0.3102
31780W        W48041  10.494   5.562   2.059  0.0081 -0.2623  0.2385
31781W        W48042   8.972  15.832   1.614 -0.1386  0.0671 -0.1577
31782W        W48043  15.131   5.976   4.752  0.1133  0.0641  0.1579
31783W        W48044  10.315  11.273  14.120 -0.0900  0.0201  0.0648
31784W        W48045  14.270  13.405  14.489  0.0348  0.0944 -0.2721
31785W        W48046   6.690   0.268  15.249 -0.0598 -0.1047  0.2821
31786W        W48047   4.195   9.315  14.970  0.1579 -0.1206 -0.2078
31787W        W48048  16.459   9.219  16.115 -0.0564  0.0169  0.0301
31788W        W48049   5.796  11.338  10.886 -0.0106 -0.0185 -0.1330
31789W        W48050  11.787   7.456   2.002 -0.1812  0.2323  0.3777
31790W        W48051  15.950   1.765   1.340  0.0377 -0.0321 -0.4657
31791W        W48052  11.082   3.428  13.629 -0.1679  0.1965 -0.0420
31792W        W48053  17.584   0.720   1.079 -0.2617 -0.1352 -0.0459
31793W        W48054   8.231   0.683  13.889 -0.1661 -0.1787 -0.0600
31794W        W48055  11.606   7.911   5.401  0.0488  0.0147  0.1327
31795W        W48056  15.688   9.545  14.384 -0.2483  0.1998 -0.1240
31796W        W48057  16.271  17.352   5.667 -0.2867 -0.3836  0.0260
31797W        W48058   3.533  12.496  11.570 -0.0554  0.2323 -0.0754
31798W        W48059   0.843   1.795   0.318  0.1882 -0.1984 -0.1588
31799W        W48060   5.467  11.223   2.337 -0.1646  0.0475 -0.1380
31800W        W48061  10.809   9.449  12.455 -0.0654 -0.0762  0.1276
31801W        W48062   7.236  10.576  12.474  0.1833 -0.1705 -0.2377
31802W        W48063  10.849  15.431  14.675 -0.3966 -0.0070 -0.0209
31803W        W48064  16.892   1.350  13.177  0.0372  0.0156  0.0276
31804W        W48065   7.679  15.458   2.942 -0.0864 -0.2644 -0.1807
31805W        W48066  13.210  10.812   1.205  0.1878  0.1502  0.1572
31806W        W48067   7.280   2.867  12.906 -0.0800 -0.2077 -0.1361
31807W        W48068  11.615  12.914  13.722 -0.0903 -0.0668  0.2520
31808W        W48069  15.879  15.982   1.140 -0.5230 -0.0739  0.3909
31809W        W48070  10.986  16.385  12.881 -0.1649 -0.0857 -0.2770
31810W        W48071  13.027   5.042   5.167  0.0330  0.1199 -0.1723
31811W        W48072  12.781   3.104   4.004 -0.2592  0.1474  0.0403
31812W        W48073  11.192  14.383  12.434 -0.1583 -0.2036  0.0731
31813W        W48074  13.103   3.282   2.106 -0.3300 -0.0146  0.1382
31814W        W48075   3.494  13.338   4.559  0.0099 -0.0117  0.1776
31815W        W48076  16.273  14.899   2.367  0.2178  0.1716 -0.3947
31816W        W48077   0.895   4.776   0.009  0.3180 -0.1349 -0.0134
31817W        W48078   7.074  12.724  16.128 -0.1338  0.2452 -0.4814
31818W        W48079  14.638   1.948   1.896  0.0685  0.0350 -0.1356
31819W        W48080   9.453   5.299   3.503 -0.0434 -0.2688  0.1650
31820W        W48081   4.038  12.639  14.796 -0.1964 -0.2476 -0.1567
31821W        W48082  11.746   3.568   5.930  0.0763  0.1573  0.0376
31822W        W48083  12.359  14.070   5.046  0.0646  0.0776 -0.1870
31823W        W48084  17.048   7.529   5.043 -0.0701  0.0247 -0.1337
31824W        W48085  10.712  14.405  16.915  0.2306 -0.0092  0.0816
31825W        W48086  15.426   8.034   3.029  0.0030 -0.1537  0.0053
31826W        W48087   9.805   2.519   0.690  0.0456  0.0067  0.1173
31827W        W48088  14.590  14.232  14.038 -0.0927  0.0506  0.0245
31828W        W48089   3.929   0.593  12.670 -0.4578  0.0274  0.2999
31829W        W48090  15.370   4.025  14.508 -0.1979 -0.0288  0.1600
31830W        W48091  13.806   5.738  15.216 -0.0553 -0.1282  0.1459
31831W        W48092   5.116   0.143   3.711 -0.1179 -0.0369  0.3606
31832W        W48093  11.193   6.982   2.569  0.0154 -0.0270 -0.0088
31833W        W48094   1.731   5.563  15.716 -0.0645  0.2311  0.1435
31834W        W48095  12.609  16.899   3.032 -0.1237 -0.1624 -0.0688
31835W        W48096   3.479   7.439   4.203 -0.1025  0.2085  0.0440
31836W        W48097  13.493  13.551   0.675 -0.0006 -0.1444  0.1886
31837W        W48098   0.196   3.782   4.266  0.4587 -0.2903 -0.0252
31838W        W48099  12.455  10.387   4.340 -0.1783 -0.0537 -0.1550
31839W        W48100  16.248   3.107  12.098 -0.0485 -0.1652 -0.0622
31840W        W48101  13.798  13.867   0.515  0.4864  0.0008 -0.2600
31841W        W48102   4.139  17.229   0.634 -0.2725  0.0877 -0.1665
31842W        W48103   1.575   2.591  14.169 -0.0420  0.1199  0.1521
31843W        W48104   7.504   5.683   5.794 -0.2150  0.1947 -0.1848
31844W        W48105  10.662   9.733   4.571  0.0053 -0.4012 -0.0607
31845W        W48106   7.849  14.293  16.204  0.1926 -0.0706  0.2636
31846W        W48107  12.164  10.556  12.200  0.0616  0.4272 -0.1753
31847W        W48108   3.290   4.821   5.055  0.2684  0.1371 -0.0014
31848W        W48109   1.418  12.283   0.345  0.1455  0.1897 -0.2067
31849W        W48110   7.775   0.345  12.265 -0.0932  0.0677  0.1663
31850W        W48111   1.882   4.541  13.218 -0.0372 -0.1407  0.0250
31851W        W48112  10.643   9.714  16.494 -0.0539 -0.3005 -0.1099
31852W        W48113  12.103   0.181  15.050 -0.3230  0.0525 -0.1002
31853W        W48114  10.343  11.247   3.292 -0.0307 -0.1852  0.1764
31854W        W48115  15.298  15.517   3.406  0.1080  0.0389 -0.2290
31855W        W48116   7.863   5.003   1.828  0.0335 -0.2450  0.1285
31856W        W48117   3.066  16.281  16.357  0.0443 -0.2339 -0.0209
31857W        W48118  15.745  13.424  13.837 -0.0569 -0.1554 -0.1556
31858W        W48119   5.210   4.972   0.162  0.0162 -0.0586 -0.0547
31859W        W48120  16.088   1.807   6.486 -0.1155  0.1960 -0.0594
31860W        W48121  13.638  15.296  14.578  0.0100 -0.0580  0.0577
31861W        W48122  15.818  17.763   0.996 -0.1428  0.4529  0.1778
31862W        W48123   7.449  17.127  14.071 -0.1873  0.4010  0.1814
31863W        W48124   1.826  11.890   0.295 -0.2265  0.1220 -0.2059
31864W        W48125  11.886   8.833  11.734  0.0305  0.3730 -0.1232
31865W        W48126  10.314   1.976   1.748 -0.2032  0.0514  0.0374
31866W        W48127  14.691   6.265   1.919 -0.2967  0.1508  0.3348
31867W        W48128   1.504   5.837  15.304 -0.5397  0.0336 -0.0857
31868W        W48129  11.411   9.498  16.286 -0.2289 -0.0201 -0.2633
31869W        W48130  10.065   7.573   5.622 -0.0012  0.2899  0.0621
31870W        W48131   8.235   1.288  13.232  0.0469 -0.0433 -0.2753
31871W        W48132   5.549   2.195  14.398 -0.2637  0.2481  0.0920
31872W        W48133  16.209   3.690  14.003 -0.1933 -0.0142  0.0025
31873W        W48134  17.411  15.307   4.352  0.1945 -0.1856 -0.3421
31874W        W48135   3.715  13.025   3.223 -0.1125  0.0041 -0.0075
31875W        W48136  17.069   9.799   1.840  0.0815  0.5453  0.0922
31876W        W48137   2.296   8.834  15.881  0.1395 -0.3442  0.0303
31877W        W48138   1.619  13.803   0.697 -0.2806  0.2847 -0.0818
31878W        W48139   4.620  14.634   4.013 -0.0202  0.2408 -0.0315
31879W        W48140  13.728   5.374   4.976 -0.0934  0.0617 -0.2129
31880W        W48141   4.464   6.833  12.614 -0.0951  0.0658 -0.0666
31881W        W48142   5.327   1.953   0.170  0.2729 -0.0550 -0.0262
31882W        W48143   9.109   9.325   6.026 -0.4921  0.2955 -0.0210
31883W        W48144   6.881   0.503  16.917 -0.2177 -0.1856  0.0462
31884W        W48145  13.330  16.157  15.076  0.0219  0.1832  0.0302
31885W        W48146  17.725   2.451   3.779 -0.0952  0.1678  0.1812
31886W        W48147   7.619  15.890  16.616  0.3955  0.0181 -0.0559
31887W        W48148   4.887   8.185   1.336 -0.1475  0.0027  0.2411
31888W        W48149  13.580   5.444  12.782  0.1885  0.1310  0.2756
31889W        W48150  16.369   1.999  13.407 -0.2296  0.1703  0.0068
31890W        W48151  16.276  14.273  12.947  0.0828 -0.2664 -0.0974
31891W        W48152  12.428  11.986   4.568 -0.2762 -0.2171 -0.0199
31892W        W48153   0.141   8.041   0.401  0.2248  0.3560 -0.2425
31893W        W48154   2.072   0.725  16.326 -0.0909 -0.1353 -0.1729
31894W        W48155   5.571   7.236   0.325 -0.0966  0.1186  0.1841
31895W        W48156   9.909  15.819  14.830  0.2074 -0.0844  0.3293
31896W        W48157   8.425  12.105  14.077 -0.3408  0.0163  0.0805
31897W        W48158  10.492   3.190  14.244 -0.1272  0.0250  0.2848
31898W        W48159   4.202  11.786   1.667  0.1254 -0.4121  0.5466
31899W        W48160   2.880   9.480   3.526  0.1196  0.1783  0.1861
31900W        W48161   4.983   0.692  11.821 -0.1305 -0.0368 -0.1129
31901W        W48162   5.132   9.343  16.020 -0.0329 -0.2288  0.0188
31902W        W48163  11.916   2.040   3.539 -0.0450 -0.3434  0.2388
31903W        W48164   1.730  14.160   5.233 -0.0796 -0.1921  0.0593
31904W        W48165   9.934  14.323   2.204 -0.2794 -0.2146 -0.1675
31905W        W48166   0.180   4.330   2.465  0.1849 -0.0062  0.0808
31906W        W48167   7.246  15.987   2.805  0.1447 -0.0603  0.1385
31907W        W48168   1.020  10.288   2.763 -0.3036  0.2942  0.0823
31908W        W48169   3.208  14.468  15.179  0.2912 -0.1102 -0.0173
31909W        W48170   9.340   5.002  13.758 -0.2257  0.1787 -0.0838
31910W        W48171  14.749   3.605   2.035 -0.2338 -0.1394  0.1919
31911W        W48172  15.067  11.211   0.279  0.1489 -0.1342 -0.1704
31912W        W48173  12.846  15.188   5.001 -0.0711  0.0908  0.1368
31913W        W48174  12.290  12.603  12.141 -0.1523 -0.0252  0.1388
31914W        W48175   6.608  10.648  11.552  0.1810  0.2317 -0.3237
31915W        W48176   9.280  10.379   2.150 -0.2313  0.1062  0.0858
31916W        W48177  12.983   2.545   1.635  0.2612  0.1560 -0.0660
31917W        W48178  11.809   4.724   2.270  0.0116 -0.0716 -0.0149
31918W        W48179  11.277  11.551   4.938  0.1403  0.2334  0.1492
31919W        W48180   1.612   2.382  14.645  0.3089  0.0727  0.1470
31920W        W48181  12.581  14.446   1.053 -0.3994  0.0904  0.0258
31921W        W48182   1.371   4.693   3.431 -0.0727  0.1268  0.0442
31922W        W48183  12.964   2.768  12.110 -0.1257 -0.0906 -0.1307
31923W        W48184   9.739   0.333  10.383  0.1016 -0.1771 -0.2155
31924W        W48185  13.732  17.749  12.295 -0.0437  0.3496 -0.2236
31925W        W48186  13.370   6.665  12.116  0.2016 -0.4471  0.0861
31926W        W48187  11.631   3.385   3.264  0.2630 -0.1415 -0.2283
31927W        W48188  11.764   0.511  15.709  0.2067  0.0187  0.4063
31928W        W48189   9.226  11.980  15.722 -0.2159  0.1248 -0.5964
31929W        W48190  15.981  15.254  12.131 -0.2441  0.0584  0.0151
31930W        W48191   6.325  17.505  16.516 -0.0812 -0.3247  0.0815
31931W        W48192  12.790   8.021  13.308 -0.2812 -0.0595  0.0225
31932W        W48193  11.854   5.439   0.200  0.0101  0.1568  0.0035
31933W        W48194   2.078  13.574   5.560  0.0858 -0.0328  0.0347
31934W        W48195   6.162   8.055   3.270  0.2072 -0.3283  0.2263
31935W        W48196  17.738  17.295  15.947  0.0014 -0.0717  0.3580
31936W        W48197  11.111   0.553   4.026 -0.0531  0.0299  0.1533
31937W        W48198  17.586   1.601   0.965  0.1481 -0.1937  0.2048
31938W        W48199   8.519  13.969  13.392 -0.0830 -0.1103 -0.0101
31939W        W48200  17.460   2.679   6.257  0.0572 -0.3372 -0.0792
31940W        W48201   2.122   0.663  15.721  0.2507  0.2547  0.0112
31941W        W48202   0.001   1.631   5.670 -0.0925 -0.1940  0.1686
31942W        W48203   4.112   8.258   1.443  0.0523 -0.1557 -0.4059
31943W        W48204  10.027  10.057  12.486  0.3461  0.2757  0.1835
31944W        W48205   2.260  14.251  11.503  0.1250  0.0112  0.2779
31945W        W48206   8.547  10.467  13.257 -0.1040  0.2059  0.2223
31946W        W48207   0.984  11.889  16.133 -0.2938  0.3377  0.2166
31947W        W48208   6.608  10.654   1.311 -0.0437  0.0217 -0.0517
31948W        W48209   4.918   3.208  12.694  0.0280  0.0356  0.0797
31949W        W48210  15.723  11.484   2.355  0.1791  0.3503  0.1303
31950W        W48211  14.287   2.263   5.021  0.0070 -0.0063  0.2514
31951W        W48212  16.195   6.653  13.724 -0.1508 -0.1431 -0.0683
31952W        W48213   0.078   4.017  12.781 -0.1017 -0.1261 -0.1848
31953W        W48214   8.482   9.189   1.363  0.1085  0.1450 -0.1000
31954W        W48215  13.038   3.569  14.118 -0.1840  0.2991  0.0714
31955W        W48216  14.786   9.790  14.362 -0.0753  0.1339 -0.1488
31956W        W48217   9.486   8.636   5.008 -0.0934 -0.0611 -0.1616
31957W        W48218   8.535  15.952   1.415 -0.1611 -0.0129  0.1490
31958W        W48219  10.193   0.824  13.870  0.1488  0.0199 -0.2829
31959W        W48220   1.625  14.373   5.656 -0.0238 -0.2505 -0.0914
31960W        W48221   7.993   8.689  12.214 -0.0877 -0.2822 -0.3244
31961W        W48222  11.629  10.003  15.140 -0.0111 -0.2593  0.1819
31962W        W48223  10.255   1.477  16.129  0.2668 -0.0620  0.1313
31963W        W48224   6.164  11.430   0.000  0.1881  0.1676 -0.0275
31964W        W48225  15.684  14.838   1.334  0.2430 -0.0990  0.0780
31965W        W48226   3.466  14.208   2.792  0.0512 -0.0972 -0.3023
31966W        W48227  10.215  14.771   1.332 -0.0969 -0.0406 -0.0440
31967W        W48228  17.729   6.399  14.353 -0.1222  0.0884  0.0280
31968W        W48229   3.455   5.941   2.221  0.0226 -0.0069 -0.0958
31969W        W48230   3.638   5.257   1.040 -0.0733  0.0185  0.0679
31970W        W48231  15.982   4.507   5.705 -0.0135 -0.1981  0.3131
31971W        W48232  12.989   3.812   2.635 -0.3766 -0.1318 -0.0798
31972W        W48233   2.398  14.625  13.032 -0.0043 -0.0278  0.0582
31973W        W48234  11.503   2.192  14.827 -0.1622 -0.1771 -0.1173
31974W        W48235  12.968   2.796   0.302  0.0315 -0.0705  0.1095
31975W        W48236  17.640  12.239  12.867  0.1348  0.1287  0.0522
31976W        W48237  12.663   0.518   0.873  0.0378 -0.2338 -0.1148
31977W        W48238  15.633   0.586  15.407  0.2833  0.0579  0.0270
31978W        W48239   7.873  14.328   2.318 -0.2076  0.0788  0.2181
31979W        W48240  13.114   0.050  15.082  0.0899 -0.0027  0.0819
31980W        W48241   2.007  17.745   3.704  0.1431  0.1817  0.1231
31981W        W48242   1.731   4.719   2.188 -0.3243  0.0047  0.2020
31982W        W48243   8.112   6.474  13.132 -0.5236 -0.1106 -0.1298
31983W        W48244  15.149   3.771   5.990 -0.0102 -0.2131 -0.3158
31984W        W48245  11.249  13.662   2.078 -0.0222 -0.2981 -0.0821
31985W        W48246  14.581  12.019   5.138  0.0302  0.0762  0.0218
31986W        W48247   1.408   2.072  10.947  0.0403  0.3405 -0.0157
31987W        W48248   5.949  17.631  15.024  0.2165  0.1520  0.0860
31988W        W48249   4.083  13.428  12.733 -0.1672  0.3559  0.1170
31989W        W48250  16.786  17.043   1.232 -0.1033  0.1477 -0.0209
31990W        W48251   4.521  10.908  14.272  0.1016  0.0074 -0.0653
31991W        W48252   5.000  12.343  12.700 -0.3853 -0.2025  0.0570
31992W        W48253  13.449  17.531   5.793  0.0358  0.1802  0.0156
31993W        W48254  12.179  16.101   0.586 -0.1578 -0.0581 -0.0583
31994W        W48255   3.073   6.164   0.379 -0.1388 -0.0111 -0.0289
31995W        W48256  17.366   7.621   0.379  0.1406 -0.1013 -0.0339
31996W        W48257   7.487   8.731   3.445  0.3391 -0.3591 -0.2880
31997W        W48258  12.549  13.405   5.054 -0.2136 -0.0697  0.0531
31998W        W48259  17.559   3.999   1.434  0.3507  0.0790  0.0968
31999W        W48260  17.259   9.875   4.975  0.0179  0.1936 -0.2086
32000W        W48261   6.483   8.514   4.199 -0.0026  0.2937  0.0575
32001W        W48262   8.045   4.699   1.382  0.0533  0.0059  0.1585
32002W        W48263   6.261   9.980  11.976 -0.0938  0.0313 -0.2200
32003W        W48264  16.660   1.286  12.162 -0.0848  0.1953 -0.0393
32004W        W48265   2.325  17.815  14.119 -0.0222 -0.0354 -0.2067
32005W        W48266   7.864  12.416  13.119  0.1547  0.1418  0.1793
32006W        W48267   3.778   9.825  11.796  0.2768 -0.2960  0.1054
32007W        W48268   5.053   3.764   2.720 -0.0291  0.1079  0.1136
32008W        W48269  13.059   5.354  14.135 -0.2157 -0.1181  0.2391
32009W        W48270   9.088   1.214   5.983 -0.1533 -0.0516 -0.3284
32010W        W48271   4.524  12.489   3.248 -0.0623 -0.0250 -0.3761
32011W        W48272   1.861   7.842   1.250 -0.2856  0.2560  0.0319
32012W        W48273   7.786  13.355  16.360  0.1906  0.2114  0.1514
32013W        W48274   2.017  15.251  11.746 -0.1905  0.0114  0.1476
32014W        W48275  11.361   2.590   0.829  0.0702 -0.0479 -0.0582
32015W        W48276   4.727   2.836  14.593  0.1562 -0.1025 -0.1222
32016W        W48277   8.228   9.086  12.462 -0.0700  0.0330  0.0868
32017W        W48278   8.650  10.495  16.257  0.0623  0.0554  0.1032
32018W        W48279  14.250   6.515   0.328 -0.2771 -0.1716 -0.0122
32019W        W48280  14.130   3.991  16.076  0.0350 -0.2188  0.3077
32020W        W48281  11.101  16.222   0.349 -0.0153 -0.3726 -0.1975
32021W        W48282   1.911   0.199   3.332  0.0064 -0.2170 -0.2030
32022W        W48283   5.721   4.620   4.378 -0.1779  0.0039 -0.1198
32023W        W48284  12.856  10.251  14.403  0.2266  0.3014 -0.3089
32024W        W48285   6.596  12.995   3.434  0.1568 -0.3545  0.0753
32025W        W48286   9.471  13.583  14.686 -0.0374  0.2910  0.2073
32026W        W48287  10.754   5.833   2.863  0.1877 -0.2804  0.0584
32027W        W48288  13.310  13.829  16.216 -0.2559  0.5814 -0.1726
32028W        W48289   1.542   6.987  16.949 -0.1724  0.0169 -0.1196
32029W        W48290  12.564   9.469  13.263 -0.0192 -0.2504 -0.1644
32030W        W48291  12.617  13.599  15.480  0.2374  0.2928 -0.0195
32031W        W48292   6.942   3.493   2.310  0.0572  0.4107 -0.2717
32032W        W48293  11.978  10.161  12.696  0.0692  0.0831 -0.3822
32033W        W48294   5.937  17.009  12.828  0.3870 -0.2812 -0.1773
32034W        W48295   4.836   9.860   3.378 -0.1967  0.2933  0.1140
32035W        W48296   6.668   3.882  14.139  0.2119 -0.2298 -0.0408
32036W        W48297  15.284   3.406  11.720 -0.0348 -0.1497  0.1537
32037W        W48298   6.055  16.096  13.244 -0.1871 -0.1201 -0.0737
32038W        W48299  17.677   1.351  11.812  0.0558 -0.2131 -0.0013
32039W        W48300   0.067  14.263  12.296  0.1353  0.0031 -0.2820
32040W        W48301  16.723   3.594  16.437 -0.0409  0.0552 -0.2934
32041W        W48302   4.110  16.268  13.130 -0.1556  0.2325  0.0502
32042W        W48303   2.245   1.681  13.512 -0.0864 -0.3168  0.1732
32043W        W48304  12.168   9.612  16.760  0.0377 -0.3682 -0.0798
32044W        W48305  12.385   7.646   1.669 -0.1509  0.2133  0.0976
32045W        W48306   4.038  16.101  16.378 -0.0502 -0.1709  0.0065
32046W        W48307   6.486   7.508  11.648 -0.0260  0.0364  0.1384
32047W        W48308   4.117  17.425  11.909 -0.1197  0.0751  0.3287
32048W        W48309   3.351   4.816  13.862 -0.1355  0.1827 -0.0638
32049W        W48310   7.810   3.440   2.177 -0.1211 -0.1621 -0.2219
32050W        W48311  17.408  14.787  13.813  0.1622 -0.3546  0.1624
32051W        W48312  12.031   9.315   3.096 -0.0157 -0.3276 -0.0885
32052W        W48313   5.415   2.980   2.249  0.1946 -0.4442  0.0706
32053W        W48314   8.840  12.420  15.581  0.1332  0.0445  0.0422
32054W        W48315   0.997   0.265  14.444  0.0824  0.2899 -0.1599
32055W        W48316   7.586   5.838  16.803  0.0360 -0.1608  0.0123
32056W        W48317   3.874  13.794  14.760 -0.0093  0.0512 -0.1175
32057W        W48318  13.901   6.364   5.984  0.1505 -0.2875  0.3728
32058W        W48319   8.951  17.389   4.399  0.1149  0.4498  0.0256
32059W        W48320  15.054   5.496   1.656  0.0486 -0.1498 -0.1306
32060W        W48321  15.437   5.872   1.695  0.4103 -0.0126 -0.0169
32061W        W48322  16.793  11.292  16.729  0.3403 -0.0841  0.1382
32062W        W48323  12.879  15.368  14.488 -0.1855  0.2034 -0.0635
32063W        W48324  10.444  12.565  14.881 -0.0785 -0.0515 -0.2618
32064W        W48325   0.320   2.474   0.821 -0.0298  0.0638 -0.3045
32065W        W48326   3.673   0.739   2.303 -0.1094 -0.0775  0.3556
32066W        W48327   9.349  16.005  12.622  0.1710  0.2534  0.2091
32067W        W48328   5.745   3.348  15.433  0.0191  0.2286 -0.0652
32068W        W48329  11.949   4.890  14.368  0.0041 -0.1552  0.0030
32069W        W48330  15.310  14.557   3.965  0.0230  0.1918 -0.1733
32070W        W48331   8.837  14.790  14.954 -0.0115 -0.0783  0.2132
32071W        W48332  13.181   9.525   1.861 -0.0758  0.1558  0.2643
32072W        W48333   7.587  16.177   2.408 -0.0907 -0.1074  0.3750
32073W        W48334  14.007   7.893  12.271 -0.0563  0.0409  0.0319
32074W        W48335   7.501  12.532  12.734  0.1055 -0.1436 -0.4970
32075W        W48336   0.603   2.286  12.499  0.0475  0.2292 -0.2180
32076W        W48337   3.696  11.533  14.396  0.3741 -0.1757 -0.0860
32077W        W48338  10.151  16.646   4.086 -0.4196 -0.0179  0.1267
32078W        W48339   3.861   9.985   2.335  0.4311 -0.2481 -0.4014
32079W        W48340   1.004  13.734  11.466 -0.3392 -0.3350  0.1669
32080W        W48341   1.665   8.607  14.067  0.0470  0.0534  0.0532
32081W        W48342   5.126  15.212  16.726  0.0162 -0.1386 -0.3066
32082W        W48343  13.999   0.555   3.194 -0.0972 -0.2515  0.2925
32083W        W48344  15.968   3.151  14.376  0.0877 -0.2057 -0.2446
32084W        W48345   0.722   7.751  10.841  0.0216  0.0837  0.1105
32085W        W48346   9.643   3.596   1.194 -0.1332  0.0576  0.0154
32086W        W48347  11.855   5.238   2.156 -0.0384  0.0371 -0.0795
32087W        W48348  12.654  14.766   4.534 -0.2950 -0.0671  0.0623
32088W        W48349  14.936  13.697   2.914 -0.0418 -0.0066  0.0753
32089W        W48350  14.262   2.454  12.939  0.1509 -0.0167  0.1107
32090W        W48351  13.307  13.644   6.425 -0.1527 -0.0743 -0.2343
32091W        W48352  14.491   2.414   2.688 -0.0067  0.3657 -0.2206
32092W        W48353  17.044   0.802  13.937 -0.1579 -0.0280  0.1030
32093W        W48354  13.529   3.836   5.936  0.2570  0.2183  0.0284
32094W        W48355   0.851   3.656  14.318 -0.1328 -0.1238 -0.2212
32095W        W48356   8.054  16.736   4.356  0.2597  0.1032 -0.0159
32096W        W48357  10.380   4.116  14.711  0.1807 -0.0731  0.2507
32097W        W48358   2.754   7.539   6.202  0.3441 -0.2869 -0.0271
32098W        W48359   7.243  16.804   5.379  0.0008 -0.1842  0.3190
32099W        W48360   2.166   8.592  13.922  0.0549  0.1108 -0.1998
32100W        W48361   1.928  12.663   5.493  0.0107  0.3705 -0.2715
32101W        W48362  15.027   6.404  13.171 -0.0091 -0.0004 -0.2283
32102W        W48363   1.682   6.374  12.576 -0.0250 -0.0280  0.2927
32103W        W48364   4.212   1.072   1.977  0.1810  0.1693  0.0861
32104W        W48365  14.866   3.582   6.372  0.0368  0.0579  0.2697
32105W        W48366  14.707   7.479   2.716  0.2039 -0.3061  0.0856
32106W        W48367  14.848   5.568   3.775 -0.1305 -0.1491  0.1053
32107W        W48368  12.104   3.477  14.843 -0.0231 -0.0040  0.1878
32108W        W48369  10.946  15.420  12.144 -0.0197 -0.0533 -0.2805
32109W        W48370  11.978  16.006   1.350  0.0596 -0.0603  0.1429
32110W        W48371   1.333   0.530   4.959  0.0394  0.3534 -0.1228
32111W        W48372  16.011  12.972   6.717 -0.0669  0.1197 -0.3338
32112W        W48373   4.489   0.748   3.955 -0.0067 -0.3148 -0.0012
32113W        W48374   0.782  12.984   1.521 -0.2438 -0.0327 -0.2036
32114W        W48375   6.096  10.714  14.980 -0.2923 -0.2710 -0.0083
32115W        W48376   3.953   3.248   3.342  0.0452 -0.2022  0.1000
32116W        W48377  15.071  14.845  12.524  0.0561 -0.0201  0.0101
32117W        W48378   5.289  15.421  11.962 -0.2380 -0.0428 -0.0395
32118W        W48379  15.834  16.845   3.222 -0.1716 -0.2571  0.1665
32119W        W48380   4.405  10.844   1.319  0.5717  0.0228  0.1477
32120W        W48381   8.964  14.954  12.644 -0.0495  0.2568 -0.1503
32121W        W48382   8.658  10.435  14.037 -0.0784 -0.0057  0.2894
32122W        W48383  13.057   1.611  14.248 -0.1294  0.0429 -0.2073
32123W        W48384   4.029   3.280   4.752  0.2171  0.2489 -0.1375
32124W        W48385  14.146   7.429   3.285  0.0528  0.2303 -0.1972
32125W        W48386   5.271  14.494   0.979 -0.0477  0.1343 -0.2076
32126W        W48387   2.545   1.003   0.291 -0.1831 -0.0978  0.0858
32127W        W48388  13.979   9.048  14.923  0.1101 -0.0491  0.1547
32128W        W48389   4.000   2.667  16.516 -0.2462 -0.5670  0.0777
32129W        W48390  10.674  11.157  12.221 -0.1574  0.2464 -0.0073
32130W        W48391   3.555   3.649  14.375 -0.0477  0.0025 -0.1709
32131W        W48392  14.222   9.443  15.322  0.1207  0.1767 -0.1466
32132W        W48393  11.810   9.665   1.578 -0.0083  0.3424  0.1026
32133W        W48394  17.797  15.624  16.258 -0.0700  0.0698  0.1537
32134W        W48395  10.984   0.181   4.977 -0.0687 -0.0941 -0.1499
32135W        W48396   3.795   7.905   3.100  0.0960 -0.0668 -0.0809
32136W        W48397   3.407   6.409   3.814 -0.2371  0.1118  0.1937
32137W        W48398   0.541  10.333   2.735  0.1884  0.3932  0.0325
32138W        W48399   7.414  14.565   2.204 -0.1614 -0.2091  0.0163
32139W        W48400   6.575   8.232  14.588  0.0725  0.0243 -0.0612
32140W        W48401   9.396   2.149  14.241 -0.0584 -0.3487 -0.0283
32141W        W48402  12.852  17.702  15.461 -0.1520 -0.1600  0.0339
32142W        W48403   9.049   0.995  16.717  0.1995  0.0649 -0.0943
32143W        W48404   0.375  10.324   1.910 -0.2590 -0.1514 -0.3378
32144W        W48405  11.804   2.682  12.116 -0.1228 -0.0684 -0.2746
32145W        W48406  11.299  10.289  11.547 -0.2070  0.1237  0.0816
32146W        W48407  14.919   0.440   3.169  0.2647  0.1411  0.1265
32147W        W48408  13.978   2.959   0.577  0.0853  0.0494 -0.0989
32148W        W48409  11.965  14.007  16.865  0.2081 -0.0573 -0.3658
32149W        W48410   3.139   9.698   0.790 -0.3583 -0.1576 -0.2938
32150W        W48411  15.562  10.924  16.483  0.2830  0.1135  0.3008
32151W        W48412   5.409   4.645  14.571  0.0432  0.1430 -0.1472
32152W        W48413   8.625   4.211  12.748  0.1623 -0.0357  0.2449
32153W        W48414   2.738   8.212  16.411 -0.3994  0.0724  0.1467
32154W        W48415   0.329   2.305  13.080 -0.0315  0.2412  0.0383
32155W        W48416  17.264  16.302   4.547 -0.3863  0.0917  0.2182
32156W        W48417   6.691   1.634  14.416  0.1504 -0.1179  0.1986
32157W        W48418   2.317  12.797   2.543 -0.1871 -0.1545 -0.1431
32158W        W48419   3.771  17.158   4.806  0.2080  0.1120 -0.0948
32159W        W48420   4.932   2.248   0.070  0.3403  0.1644  0.0590
32160W        W48421  14.476   4.532   4.403  0.1436 -0.1617  0.3131
32161W        W48422  10.852  15.269   0.526 -0.0523 -0.0093  0.0119
32162W        W48423   8.619  10.887   0.744 -0.0746  0.2578  0.0011
32163W        W48424  14.460   0.047  15.403 -0.0379  0.3845 -0.2330
32164W        W48425   2.353   1.791  12.196 -0.4550 -0.2778  0.2834
32165W        W48426  10.075  13.529  15.894 -0.0000  0.0835  0.0291
32166W        W48427  17.142   3.042   1.598 -0.5488  0.0810 -0.2824
32167W        W48428   8.341   7.370   4.360  0.4369  0.3752  0.0890
32168W        W48429   2.250   9.772   5.745 -0.1438 -0.0403  0.2077
32169W        W48430   5.011   9.927   4.313 -0.1312 -0.2958  0.0126
32170W        W48431  11.420  14.361   0.621  0.0695  0.1394  0.0052
32171W        W48432   1.647  12.161  16.909 -0.0005  0.1909 -0.2188
32172W        W48433  14.022   1.321   0.104 -0.2795 -0.0640 -0.3321
32173W        W48434   8.851  10.396  12.854  0.0401 -0.3508  0.1917
32174W        W48435  17.049   6.744   3.808 -0.0198  0.0251  0.0298
32175W        W48436   6.970   6.839   0.706 -0.1807  0.0190  0.0673
32176W        W48437  17.283  13.398   1.530 -0.0348  0.1957 -0.2736
32177W        W48438  14.100  13.659   2.407 -0.0526 -0.1480  0.0216
32178W        W48439  11.644   2.185   5.585  0.2463  0.0950 -0.0593
32179W        W48440   7.483  12.456   1.805 -0.0791 -0.2042  0.2279
32180W        W48441  14.434   3.895   0.151  0.1213 -0.2164  0.3849
32181W        W48442  14.092  15.172  16.702 -0.1963  0.2139  0.1794
32182W        W48443   8.557   0.730  16.329 -0.1296 -0.0125  0.0626
32183W        W48444   3.334  10.352   1.180  0.0988  0.0734  0.1020
32184W        W48445  14.210   7.036  16.448  0.3166 -0.1499 -0.0811
32185W        W48446  15.943   2.439   3.431 -0.1737 -0.1511  0.1008
32186W        W48447   4.859  10.958   2.096  0.0084  0.3294 -0.0598
32187W        W48448   5.754   6.653   5.018  0.1926 -0.2078  0.3007
32188W        W48449  13.811   8.503   0.957 -0.4739 -0.2560 -0.1119
32189W        W48450  17.835   8.785  10.282  0.0736  0.0397 -0.1785
32190W        W48451  12.832   1.125  12.030  0.1265 -0.1521 -0.2839
32191W        W48452  12.195  11.799  11.772 -0.3658  0.1753  0.1582
32192W        W48453  11.962  13.441  16.089  0.1829  0.1002 -0.3002
32193W        W48454  13.692   7.586   3.032  0.0391  0.0240 -0.2465
32194W        W48455   5.891  10.429  16.294  0.4576  0.0303  0.0086
32195W        W48456   8.279  16.990   4.975  0.1846 -0.1140 -0.1592
32196W        W48457   3.519   5.059  15.370 -0.1299  0.0512  0.1804
32197W        W48458  11.277   9.858   4.684 -0.1949 -0.1206 -0.0312
32198W        W48459   9.852   4.394  13.178 -0.1486 -0.1314  0.2016
32199W        W48460  16.321   9.613   4.632 -0.2394  0.2423 -0.1013
32200W        W48461  10.110  15.506  14.481  0.2658  0.2171 -0.1167
32201W        W48462   0.116   1.808   4.638 -0.1369  0.0737 -0.2404
32202W        W48463   7.050  14.268   2.404 -0.0297  0.0551 -0.0380
32203W        W48464  15.737  10.516  13.358 -0.1158 -0.0952 -0.0540
32204W        W48465  11.988  12.106  12.420  0.1039 -0.2823  0.0162
32205W        W48466   0.996   5.246   3.469  0.1022  0.0369 -0.1851
32206W        W48467  16.154   8.705   4.302  0.2014  0.1806 -0.4477
32207W        W48468  17.790   7.591  15.486  0.1405 -0.0168  0.0862
32208W        W48469   4.826   5.483   3.391  0.0977  0.3347 -0.2394
32209W        W48470   4.528   1.568  11.675 -0.2383  0.0047 -0.0638
32210W        W48471   0.931  17.420   0.960  0.1598 -0.1447 -0.0388
32211W        W48472  14.415  14.672   5.246  0.1108  0.2094 -0.0432
32212W        W48473  14.631   5.995   0.866 -0.3498 -0.2248  0.0693
32213W        W48474   5.773   3.470   2.480 -0.1965 -0.2436  0.2355
32214W        W48475  17.645  12.388   5.642 -0.1045 -0.1705 -0.2958
32215W        W48476  13.480   5.189   5.437 -0.3939  0.1559 -0.0397
32216W        W48477  15.675   9.325   2.901 -0.1475 -0.0831  0.0825
32217W        W48478  11.952   6.331  12.461  0.0792 -0.0060 -0.1639
32218W        W48479   5.347  16.659  12.839  0.1162 -0.0255  0.3472
32219W        W48480   6.949   0.312   1.196 -0.1112 -0.0320  0.1377
32220W        W48481   9.263  14.054  12.760 -0.0611  0.0144  0.0742
32221W        W48482   7.607   9.116   3.797 -0.1212  0.0163  0.0299
32222W        W48483   6.071  16.891   1.487  0.1323  0.1517 -0.0996
32223W        W48484   3.818  13.091   2.223  0.3260  0.4418 -0.1650
32224W        W48485  13.657   7.002  12.306 -0.0799 -0.0093 -0.0936
32225W        W48486   0.186   9.601   5.169  0.1308  0.2201 -0.2067
32226W        W48487  14.757   3.970  14.467  0.2658 -0.1586  0.1012
32227W        W48488   9.394   3.063  13.469 -0.3625 -0.1640 -0.2712
32228W        W48489   2.533   3.252   1.946  0.1476 -0.3634  0.0448
32229W        W48490   4.370   1.922  16.424  0.2270 -0.1011 -0.3583
32230W        W48491   2.635   3.920   6.522  0.0099 -0.2811 -0.0577
32231W        W48492   9.515  14.909  12.631  0.2651 -0.4610  0.0127
32232W        W48493   2.824   7.515   3.452 -0.0676  0.0578  0.0154
32233W        W48494   2.482  10.278   4.490  0.1899  0.0086  0.0121
32234W        W48495  12.325   8.207   0.430  0.0469  0.1724  0.1340
32235W        W48496   1.832   1.342  14.035  0.1649 -0.3097  0.2800
32236W        W48497   1.541   9.970   4.156  0.0955  0.0005  0.1133
32237W        W48498   5.859  16.802   1.933  0.1999 -0.1214 -0.1182
32238W        W48499  14.042   1.111  12.263 -0.3851 -0.0844  0.1346
32239W        W48500  11.711  15.749   2.174  0.1123 -0.0453  0.0471
32240W        W48501   3.456   1.856  13.536 -0.0530  0.0052  0.0449
32241W        W48502  16.032  17.298   0.743  0.1983  0.1405 -0.0581
32242W        W48503   8.073   8.366  15.424 -0.2254  0.1680 -0.0318
32243W        W48504  12.372  12.570   3.593 -0.2090 -0.1091 -0.4528
32244W        W48505  10.023   5.953  14.366 -0.1019 -0.4344 -0.1162
32245W        W48506   5.086  12.651  16.379 -0.0647 -0.0395 -0.3182
32246W        W48507  15.633   4.369   2.663  0.1635  0.0541 -0.3267
32247W        W48508   5.376  14.294   3.539 -0.1975  0.1736 -0.1385
32248W        W48509  16.625   8.260  13.849 -0.0048 -0.0239 -0.0504
32249W        W48510   5.860   9.571  15.646 -0.6077 -0.2240  0.0017
32250W        W48511  16.562  13.419  16.033 -0.0107  0.1154 -0.1091
32251W        W48512   1.966   1.395   5.088  0.4059 -0.0909 -0.1898
32252W        W48513   3.340  15.229   1.956 -0.1254  0.1330  0.4816
32253W        W48514  12.027   3.141  14.391 -0.2168 -0.3181 -0.0777
32254W        W48515   1.197   4.690   5.523  0.0461 -0.2357 -0.0530
32255W        W48516  12.513   5.210  11.881 -0.2053 -0.0846 -0.1956
32256W        W48517   6.641   4.574   1.359  0.0116  0.0284  0.1908
32257W        W48518   1.399  17.195  11.778  0.0528 -0.2180  0.1860
32258W        W48519  13.626   7.712  16.586  0.0454 -0.2262 -0.2750
32259W        W48520   2.984   5.659   5.991  0.0454  0.4678 -0.1667
32260W        W48521  15.850  12.569  12.871 -0.0657 -0.0784  0.1174
32261W        W48522   3.670  13.280   1.082  0.2322  0.0247  0.1057
32262W        W48523   6.978   8.644  15.216 -0.2918 -0.0956 -0.0153
32263W        W48524   5.126  12.178   3.356  0.0458 -0.0839  0.2113
32264W        W48525  17.544   1.231   4.508 -0.0162 -0.1202  0.0111
32265W        W48526   3.942   3.685   4.508 -0.2366  0.0060 -0.1418
32266W        W48527   4.011   4.085  11.510  0.1686  0.1471  0.0394
32267W        W48528  15.508  11.212  12.261 -0.0073 -0.0582  0.0314
32268W        W48529  15.851   6.957   5.762 -0.0393 -0.2334  0.1679
32269W        W48530   5.972   6.187   2.766 -0.0958  0.0352  0.0155
32270W        W48531  16.361   8.207   4.523 -0.2989  0.0927  0.0492
32271W        W48532  15.835   4.324   4.842 -0.3758  0.2458  0.0637
32272W        W48533  14.291   6.611  13.673 -0.3039  0.1936  0.0045
32273W        W48534   4.017   8.256  12.320  0.1706 -0.1424 -0.0156
32274W        W48535   7.483  17.280  15.840  0.1120 -0.2001 -0.0401
32275W        W48536  12.895  13.296  13.920 -0.1253  0.0519 -0.0653
32276W        W48537   5.759   6.744   0.478  0.0626  0.4050 -0.0664
32277W        W48538  15.311   2.595  13.437  0.2015 -0.1793  0.3785
32278W        W48539   1.773  14.046  11.577 -0.0117 -0.2597 -0.0956
32279W        W48540   9.072   3.979  14.408 -0.0690  0.0376  0.1632
32280W        W48541   5.263   3.699   5.686  0.2908 -0.1242 -0.0345
32281W        W48542  11.140  15.305   3.987 -0.2833  0.2154  0.0059
32282W        W48543   3.867   6.798   4.810  0.0650 -0.2358 -0.0751
32283W        W48544  15.125  11.056   3.117 -0.3307  0.0535 -0.2756
32284W        W48545  15.989   3.691  16.116  0.2068 -0.1085 -0.1847
32285W        W48546   5.599   8.817   0.673  0.2180  0.2007 -0.0070
32286W        W48547   4.316  11.550  14.885 -0.1222  0.0220  0.0128
32287W        W48548  12.426   2.713  14.373  0.1111 -0.1727  0.2078
32288W        W48549  16.212   3.119  15.425  0.0622  0.1885 -0.0564
32289W        W48550   5.841  17.662  16.748  0.1802  0.0601 -0.4373
32290W        W48551   1.081   8.324  14.309  0.1257  0.0500 -0.3399
32291W        W48552  17.432  12.252  15.236  0.1609  0.1868 -0.0507
32292W        W48553   5.839   8.505  13.276  0.0817 -0.1787 -0.0673
32293W        W48554   7.389  10.333  13.469 -0.0050 -0.0824 -0.0611
32294W        W48555   4.425  10.353  13.115  0.0073  0.2148  0.1251
32295W        W48556  14.120  15.463   4.657  0.3100 -0.0203 -0.1052
32296W        W48557   8.163   5.584  14.804  0.0629  0.0255 -0.1690
32297W        W48558   0.589   7.755   3.381 -0.0066  0.1365 -0.0968
32298W        W48559  12.706  16.855   4.426  0.1587 -0.0744  0.2099
32299W        W48560  10.560   7.249  13.335 -0.3308  0.0936  0.3144
32300W        W48561  17.199   0.848  16.651  0.0598 -0.2364 -0.1043
32301W        W48562   5.851   7.624   4.725  0.0906  0.0091 -0.2951
32302W        W48563  12.531  15.275  11.678  0.0889  0.0082  0.2693
32303W        W48564  10.793   7.549   1.726  0.0472  0.1810  0.0624
32304W        W48565  13.883  15.305   5.188 -0.0148  0.1753 -0.1389
32305W        W48566  12.392  16.132  12.333  0.0631 -0.1575 -0.3014
32306W        W48567   9.373  12.991   4.273  0.0782  0.2945 -0.0211
32307W        W48568  10.265  16.650  16.523 -0.3750  0.2851 -0.0722
32308W        W48569   6.132  16.772  12.399 -0.1351 -0.1258  0.0172
32309W        W48570   7.571  10.194  11.711  0.1910  0.1733  0.1081
32310W        W48571  17.756   9.204  16.912  0.0366  0.1403  0.0103
32311W        W48572  10.540   6.442  13.273  0.2591 -0.3997 -0.1936
32312W        W48573   6.624   2.171  14.317  0.0649 -0.1383 -0.1885
32313W        W48574  17.063  15.457   5.552  0.2007  0.1269  0.1541
32314W        W48575  10.558  16.444   4.723 -0.2084  0.0911 -0.0068
32315W        W48576   3.263  15.834  12.880  0.1869 -0.3291 -0.5126
32316W        W48577   9.035  16.425  16.448 -0.4174 -0.0478 -0.1674
32317W        W48578   4.099   4.806   6.580  0.0200 -0.1252  0.1881
32318W        W48579  13.120  10.524  16.271 -0.0302  0.0527 -0.1213
32319W        W48580  15.573  16.075  14.176  0.0713  0.4628  0.2359
32320W        W48581   8.730   2.829   5.238  0.1169 -0.0257  0.0956
32321W        W48582  17.084   4.347   4.269 -0.2546  0.3158 -0.1827
32322W        W48583   3.980  11.912   4.227  0.0161  0.2209 -0.1112
32323W        W48584   9.090   4.565   5.588 -0.0656 -0.0237 -0.1005
32324W        W48585  17.172  17.226  12.985 -0.0782 -0.0678 -0.3229
32325W        W48586  10.078   0.443  14.274  0.1449 -0.0703 -0.1515
32326W        W48587  14.105  16.692  12.916 -0.1002  0.0550 -0.3500
32327W        W48588  16.458  12.329   2.651  0.2470 -0.1169 -0.0277
32328W        W48589  11.285   8.994  14.159  0.1400 -0.1839 -0.0318
32329W        W48590   8.119   7.679   4.794  0.1080 -0.2622 -0.5394
32330W        W48591  16.203   3.819   2.558  0.2284 -0.0606  0.2524
32331W        W48592  11.804  16.806  14.705 -0.0279  0.1435  0.1782
32332W        W48593   3.271  13.169   5.512  0.2953  0.1861  0.1672
32333W        W48594   6.940   0.768   5.142 -0.0724 -0.1790 -0.3697
32334W        W48595   3.887  14.805  16.492 -0.0804 -0.0359  0.3644
32335W        W48596  13.825   2.412  16.217 -0.1640 -0.1930  0.0255
32336W        W48597  15.053  16.416   5.116 -0.0133 -0.0373  0.0828
32337W        W48598   4.086   8.961  15.238 -0.1129  0.2865 -0.0362
32338W        W48599  17.341   8.181   3.391  0.1434  0.1014  0.2029
32339W        W48600   9.660  14.120   5.224 -0.0436  0.1493  0.0085
32340W        W48601  10.422   9.287   5.915  0.2563 -0.2188  0.0621
32341W        W48602   9.267  13.876  16.812  0.1223 -0.2974  0.1732
32342W        W48603   3.969  13.268  11.505  0.2164 -0.1082  0.1654
32343W        W48604   3.041  17.344  12.539  0.1168 -0.5264 -0.0570
32344W        W48605   5.092  16.423  13.847  0.1611 -0.0209  0.2662
32345W        W48606  16.521   1.367   6.312  0.0730  0.3770  0.1847
32346W        W48607  12.663  16.763  15.339  0.0275  0.1626 -0.0462
32347W        W48608  12.461   5.288   5.763  0.0167 -0.0098 -0.1236
32348W        W48609  13.949  11.563   0.682 -0.2271 -0.1676  0.0383
32349W        W48610   7.832   5.506   3.121 -0.1515  0.1977 -0.1251
32350W        W48611  14.777  12.105  15.277 -0.0680 -0.0041  0.2993
32351W        W48612   8.084   7.017   3.458  0.0881  0.0024 -0.2544
32352W        W48613  17.460   5.357   1.899  0.0245  0.1843 -0.2007
32353W        W48614   8.505  14.783  13.666 -0.0168 -0.1047  0.4719
32354W        W48615   2.948   8.392   5.467  0.3433  0.1187  0.0315
32355W        W48616   0.765  13.990   6.051 -0.0302 -0.1359 -0.1673
32356W        W48617  12.218   4.530   0.669 -0.1894  0.3356  0.0121
32357W        W48618  10.657   8.004   3.102 -0.0513  0.1179 -0.1918
32358W        W48619   4.463   6.083   0.319 -0.3045  0.0093  0.0857
32359W        W48620  12.808   1.268  15.472  0.1636  0.2790 -0.0568
32360W        W48621   6.227  11.733  16.082  0.2868  0.2750  0.3889
32361W        W48622  10.371   7.622   2.732  0.0167  0.0718 -0.0138
32362W        W48623   6.109  12.501   0.345  0.0105  0.3651  0.2294
32363W        W48624  13.523   6.691   0.587  0.2007  0.3066 -0.3460
32364W        W48625   0.271   4.406   1.977 -0.2715  0.1122 -0.2085
32365W        W48626   5.988   3.813  11.980 -0.1351  0.1343 -0.1539
32366W        W48627  13.922   8.565  16.490  0.0533 -0.4423 -0.0305
32367ION     NA48628  15.717   9.681  10.746 -0.1681 -0.0632 -0.2237
32368ION     NA48629   8.672   7.213  10.710 -0.0784 -0.2566 -0.0156
32369ION     NA48630  16.844   1.353  10.872  0.0875  0.0274  0.0206
32370ION     NA48631  14.922   8.449  12.882  0.0777 -0.0526 -0.0154
32371ION     NA48632   2.247   2.852  11.002 -0.0693  0.1356 -0.1217
32372ION     NA48633  16.209   5.751   5.978 -0.0643  0.2992 -0.1502
32373ION     NA48634  14.443   3.699  11.062  0.1634  0.1873  0.2414
32374ION     NA48635   6.236  11.723  10.867 -0.1843 -0.1304 -0.0243
32375ION     NA48636   3.650   6.526  14.114 -0.1012 -0.1739  0.1148
32376ION     NA48637   8.720   6.274  10.895  0.0325  0.0393  0.4370
32377ION     NA48638   8.997   5.221  10.751  0.3534  0.0979  0.1263
32378ION     NA48639   1.400   5.779  16.150  0.2297 -0.0853  0.1112
32379ION     NA48640  12.414  14.178  11.027 -0.0560  0.2350 -0.0168
32380ION     NA48641  14.174  15.043  14.507  0.2190 -0.0594 -0.3452
32381ION     NA48642  12.410   3.760  15.105  0.2298  0.0542  0.0252
32382ION     NA48643  14.185  13.632   3.523  0.1642  0.1333  0.2354
32383ION     NA48644   9.798   0.964   6.119  0.0044  0.3398 -0.1926
32384ION     NA48645   3.648   3.407   6.356  0.1556 -0.2173 -0.1522
32385ION     NA48646   5.772  13.890  10.491 -0.2766  0.3018 -0.1683
32386ION     NA48647  13.348  14.252  11.039 -0.2809 -0.0420 -0.4165
32387ION     NA48648   3.430  16.203   6.171 -0.0455 -0.2044  0.0519
32388ION     NA48649  12.122   6.684  10.825  0.0088  0.2872  0.2211
32389ION     NA48650  10.020  11.528  10.562  0.0429 -0.1141  0.1610
32390ION     NA48651   7.853   3.275   6.014  0.1584  0.0037  0.2306
32391ION     NA48652  17.832   0.432  11.023 -0.0850  0.3615 -0.2508
32392ION     NA48653   5.690   4.417   6.405  0.2859  0.0373  0.0609
32393ION     NA48654  12.424   8.934  10.639  0.0653 -0.2973  0.1354
32394ION     NA48655  13.131  15.949  10.837  0.4167 -0.1624 -0.0349
32395ION     NA48656   5.942  10.835  10.914 -0.0775 -0.0002  0.1800
32396ION     NA48657   7.210  15.263   5.322  0.2913  0.2809  0.0573
32397ION     NA48658   3.156  16.177  10.730  0.1254 -0.0132 -0.3430
32398ION     NA48659  13.462   6.024  10.960 -0.1921  0.0776  0.0161
32399ION     NA48660   2.440   3.560   6.112 -0.0560 -0.0052  0.4465
32400ION     NA48661  11.115   8.892   1.754 -0.2532  0.0505  0.0576
32401ION     NA48662   3.516  17.108  10.768  0.0967  0.3192 -0.1461
32402ION     NA48663  15.663   2.360  11.040 -0.0053  0.0689  0.1041
32403ION     NA48664   1.384  10.702  10.942  0.3873 -0.1895  0.0946
32404ION     NA48665   0.581  12.517  10.844  0.1642  0.0730 -0.0631
32405ION     NA48666   0.899  17.804  12.195  0.0520 -0.0160 -0.2118
32406ION     NA48667  16.048  11.626  10.977  0.0850  0.0660 -0.0972
32407ION     NA48668  17.393  14.757  11.788  0.4509  0.1421  0.1691
32408ION     NA48669   8.405   7.753   6.379  0.3740 -0.2259  0.2399
32409ION     NA48670   1.699  11.999   6.079  0.0782 -0.0979  0.0831
32410ION     NA48671   8.165  17.829   1.000  0.1461  0.0099 -0.0346
32411ION     NA48672   8.529  11.524  15.241  0.1945  0.0569  0.1326
32412ION     NA48673   7.280   5.459  10.955 -0.2386  0.2829 -0.0362
32413ION     NA48674   1.870  11.298  10.785 -0.1890  0.0849 -0.2040
32414ION     NA48675   6.453   9.418  11.291 -0.0639  0.0032  0.0144
32415ION     NA48676  11.884   1.471  10.952 -0.0415  0.1253 -0.1980
32416ION     NA48677   1.663  16.831  10.839 -0.0630 -0.0323  0.3690
32417ION     NA48678   3.134   9.218  10.857  0.0170 -0.1667  0.0978
32418ION     NA48679  11.246   5.349  11.097  0.0382 -0.3010  0.1040
32419ION     NA48680   3.784  16.420  10.803  0.1852  0.0791 -0.0541
32420ION     NA48681   7.513  16.222  12.124 -0.0174 -0.1066  0.0579
32421ION     NA48682   4.679   4.294  11.006 -0.0623  0.0541  0.1647
32422ION     NA48683  10.757  14.980  10.654 -0.2771 -0.1963 -0.2151
32423ION     NA48684  17.563   4.429  10.929 -0.2053 -0.1895  0.1196
32424ION     NA48685   0.897  14.717  10.677 -0.0510  0.2602 -0.0157
32425ION     NA48686   5.969   7.359  10.909 -0.1435 -0.1692 -0.0664
32426ION     NA48687   0.316  15.861  10.810  0.2256  0.3655  0.1498
32427ION     NA48688   7.510   9.598   6.194  0.2452 -0.0937 -0.0353
32428ION     NA48689   7.567   8.248  11.034  0.0563 -0.1230  0.0190
32429ION     NA48690  14.870  10.522  10.720  0.2962  0.1289 -0.2325
32430ION     NA48691   3.824   3.673  10.872 -0.0437  0.2570  0.0224
32431ION     NA48692  10.349   5.508  10.914  0.2151  0.0202  0.2037
32432ION     NA48693   5.561   8.369   6.124  0.1560  0.1006  0.2209
32433ION     NA48694   5.179  17.598  10.634 -0.0706  0.0820 -0.1521
32434ION     NA48695  14.912   7.186   0.526 -0.2112  0.0415  0.0022
32435ION     NA48696   2.949   3.243  11.008 -0.0380  0.1976  0.2478
32436ION     NA48697  13.727   1.095   5.514 -0.3013  0.2606  0.1462
32437ION     NA48698  14.037  16.004  10.921  0.3246  0.2545  0.0976
32438ION     NA48699  17.424  13.468  12.507  0.1304  0.2050  0.0540
32439ION     NA48700  10.075  14.259  10.555  0.2532 -0.0538 -0.0254
32440ION     NA48701   2.509   7.057   5.045  0.1584 -0.0756  0.0550
32441ION     NA48702   9.458  16.003  14.822  0.3333 -0.2848  0.0804
32442ION     NA48703  16.878   7.999  11.444 -0.0639  0.0606  0.0794
32443ION     NA48704   8.083  14.344  10.196  0.3172  0.0041  0.0241
32444ION     NA48705  12.007   2.800  10.737  0.0146  0.2914  0.2245
32445ION     NA48706  16.395  10.129  13.679  0.0461 -0.0968  0.1193
32446ION     NA48707  16.316   9.187   6.166 -0.3535  0.2286 -0.0952
32447ION     NA48708   8.717   9.017   5.974  0.2558 -0.0365 -0.5074
32448ION     NA48709   7.643   9.832   0.866  0.0423  0.0374 -0.0140
32449ION     NA48710  14.259   0.394   6.193  0.1794 -0.0059 -0.3348
32450ION     NA48711   4.925   1.526  10.834  0.0467  0.1069 -0.2413
32451ION     NA48712   4.602   1.348  13.097 -0.3687 -0.2680  0.0970
32452ION     NA48713   6.049   1.370  10.762  0.1620  0.3205  0.0928
32453ION     NA48714  14.416   0.096  11.108  0.0275  0.0343  0.4997
32454ION     NA48715   8.480   6.906  11.536  0.0217  0.0683  0.3513
32455ION     NA48716   2.746   4.320  11.042  0.1595 -0.0568 -0.0636
32456ION     NA48717   7.120   3.701  10.998  0.1263  0.2724  0.1760
32457ION     NA48718   9.137   6.712   6.380  0.1365  0.3194 -0.0284
32458ION     NA48719  12.932   6.818  10.848 -0.1738  0.1423  0.0743
32459ION     NA48720   1.877  12.200  10.758  0.0348  0.0950  0.1240
32460ION     NA48721   6.915   5.504  11.337  0.2837 -0.0482  0.3425
32461ION     NA48722   5.755  10.126  10.551 -0.2105 -0.1230  0.1109
32462ION     NA48723   5.682  12.229  10.605 -0.2217 -0.0508 -0.2783
32463ION     NA48724  17.525  15.694  11.104 -0.0569 -0.4726  0.1046
32464ION     NA48725  11.542   9.206  10.849  0.1452 -0.0173  0.0335
32465ION     NA48726  12.335   8.245  10.654  0.2111 -0.1438 -0.1142
32466ION     NA48727   7.803   0.790  11.317 -0.1829 -0.2693  0.4188
32467ION     NA48728   8.227  17.860  10.537 -0.1112  0.5459 -0.1068
32468ION     NA48729  10.074  10.123   5.363  0.4305  0.2229  0.1773
32469ION     NA48730   6.487  15.723   3.806 -0.0870  0.0190 -0.0354
32470ION     NA48731   4.953  13.701  10.723 -0.1573  0.1344 -0.1881
32471ION     NA48732   5.250   2.580  11.005  0.1522  0.5280 -0.2928
32472ION     NA48733  14.527  17.415   5.977  0.0945  0.0940 -0.0144
32473ION     NA48734  15.323   4.297   4.857 -0.2224  0.0448 -0.2814
32474ION     NA48735  17.128  13.837   2.740 -0.0772 -0.0861 -0.1230
32475ION     NA48736   5.638   8.191  11.223 -0.0534  0.2974  0.1517
32476ION     NA48737  15.989   4.682  10.974  0.1150 -0.1229  0.0918
32477ION     NA48738  17.257  17.151  11.143  0.1469  0.0444 -0.0065
32478ION     NA48739   3.665  15.857  15.126  0.0725  0.1104 -0.0757
32479ION     NA48740  14.129  14.308  10.850  0.0816  0.1859 -0.0535
32480ION     NA48741   7.321   0.477  10.446 -0.0452 -0.0766  0.1189
32481ION     NA48742  13.468   3.589  11.040 -0.0881  0.0793  0.1857
32482ION     NA48743   3.030   1.881  11.046 -0.0769  0.3338 -0.0198
32483ION     NA48744   1.108  16.769  11.594  0.0542 -0.0094  0.1384
32484ION     NA48745  11.602  14.299  10.778  0.0004  0.1026 -0.3065
32485ION     NA48746  10.849   0.470   2.686 -0.1426  0.1524 -0.0660
32486ION     NA48747  14.927   2.301  11.608 -0.0583 -0.2345  0.1543
32487ION     NA48748  14.180   5.419  10.914 -0.0947 -0.1573 -0.1734
32488ION     NA48749   7.139   2.012  11.079 -0.0131  0.1893  0.1504
32489ION     NA48750   0.627   8.645  10.976 -0.0382 -0.1549  0.2968
32490ION     NA48751  14.913   4.574   6.526 -0.3738  0.0768 -0.1149
32491ION     NA48752  11.198   2.801  10.823 -0.0932  0.0441 -0.2153
32492ION     NA48753   0.440   1.408   2.274 -0.0783 -0.3875 -0.1532
32493ION     NA48754  14.735  12.170  10.873  0.2145 -0.0823 -0.0386
32494ION     NA48755   7.790   6.607  13.901  0.0397 -0.0664 -0.0847
32495ION     NA48756   4.704   2.072  13.808 -0.1231 -0.3732  0.1863
32496ION     NA48757  12.354   6.650   6.253  0.2762  0.1704  0.1229
32497ION     NA48758  16.509   4.520  15.120 -0.4344 -0.0492 -0.2236
32498ION     NA48759  12.907   2.115   6.349  0.1235 -0.1970 -0.0923
32499ION     NA48760   9.113  16.698  10.519 -0.0513 -0.0409 -0.1874
32500ION     NA48761  14.093   9.318  10.601  0.1115  0.0480  0.1189
32501ION     NA48762  15.102   1.655  11.229 -0.1232  0.1352  0.3213
32502ION     NA48763   1.390   2.680  10.946  0.0592 -0.0030 -0.1576
32503ION     NA48764   9.397  13.018  10.502 -0.3790  0.1737 -0.2006
32504ION     NA48765  11.979  11.214  10.750  0.1868  0.0668  0.3387
32505ION     NA48766  13.346   4.599   6.332 -0.1150  0.2786 -0.1970
32506ION     NA48767   6.804  17.594  10.512  0.0795 -0.0999  0.1007
32507ION     NA48768   4.977  12.943  12.570 -0.1282  0.0984 -0.0200
32508ION     NA48769   1.802   2.062   5.783 -0.2265 -0.0885 -0.2080
32509ION     NA48770   0.251  17.455  10.926 -0.1371 -0.1365  0.1037
32510ION     NA48771  16.607   0.077  11.016  0.3444 -0.0469 -0.0509
32511ION     NA48772  11.008   1.140  10.824 -0.1505 -0.3816 -0.3230
32512ION     NA48773   1.232  11.741  10.847 -0.1467 -0.0854  0.0540
32513ION     NA48774   0.454   3.672  11.384  0.0478  0.1206 -0.1378
32514ION     NA48775   6.894  15.333  10.631  0.2658  0.5416 -0.1739
32515ION     NA48776   7.544   5.995   4.347 -0.1854  0.0283  0.1240
32516ION     NA48777  14.340  12.241   1.541  0.6370 -0.0018 -0.1163
32517ION     NA48778   6.920  11.891  10.686 -0.0436 -0.0749  0.0989
32518ION     NA48779  10.719   3.924  10.869  0.0376 -0.1328 -0.0772
32519ION     NA48780  10.272  11.289   6.052 -0.1072  0.1182  0.2760
32520ION     NA48781  14.742   0.961   3.259 -0.0004  0.0627  0.0842
32521ION     NA48782   9.331   2.818   4.244  0.0960 -0.1741 -0.0067
32522ION     NA48783   7.397  16.177  15.131 -0.0918  0.0156  0.1564
32523ION     NA48784  11.413   8.284  11.429  0.0009  0.1541 -0.0530
32524ION     NA48785   9.232  11.853  10.520  0.2678  0.0220 -0.1808
32525ION     NA48786  16.092   0.864  14.435 -0.1449  0.0163 -0.2962
32526ION     NA48787  10.803  10.192   4.786  0.1746 -0.3199 -0.1808
32527ION     NA48788   0.497   4.957  11.895  0.1075 -0.1738 -0.2766
32528ION     NA48789  17.712   7.968  10.893  0.0720 -0.0659 -0.0512
32529ION     NA48790   2.342  15.994  14.506 -0.1104  0.2044 -0.2093
32530ION     NA48791  16.638   8.782  10.671 -0.2797  0.0951  0.0586
32531ION     NA48792   3.609   8.029   6.185  0.2319  0.1335  0.1515
32532ION     NA48793   0.818   7.446   6.022 -0.3887  0.3114 -0.0752
32533ION     NA48794   1.335  14.180   0.838  0.2768 -0.0978  0.0150
32534ION     NA48795   3.330  14.869  16.459  0.2477 -0.4078  0.0871
32535ION     NA48796   4.951  14.730  10.822  0.1004  0.1406  0.2698
32536ION     NA48797   9.525  16.283  10.561 -0.1497  0.3575 -0.1326
32537ION     NA48798   1.266  16.107  10.655 -0.0951  0.0920  0.0624
32538ION     NA48799  15.918  15.067  11.252  0.0216  0.0373  0.0447
32539ION     NA48800   9.818   3.691  10.722  0.1050 -0.4566 -0.0129
32540ION     NA48801   8.269  16.618  13.352  0.3473 -0.1981  0.0913
32541ION     NA48802   6.688   8.876   5.826 -0.3297 -0.2718  0.1722
32542ION     NA48803  14.223   7.374   5.135 -0.0079  0.2626 -0.2448
32543ION     NA48804  14.453   3.689   6.031  0.1259 -0.1139  0.1884
32544ION     NA48805   6.289   5.305   6.320 -0.0158 -0.0813 -0.0575
32545ION     NA48806  11.123   8.744   6.119  0.0272 -0.0680  0.1962
32546ION     NA48807   7.419  16.887  10.580  0.1142 -0.4815  0.0739
32547ION     NA48808  16.981   3.934   3.370 -0.1642 -0.0960 -0.0436
32548ION     NA48809   4.604   3.374   0.582 -0.1060 -0.0475 -0.5061
32549ION     NA48810  13.982  13.114  10.914 -0.2477 -0.2910  0.1000
32550ION     NA48811   8.564  17.710   6.068  0.1791  0.0624  0.2246
32551ION     NA48812   0.622   5.428   0.567  0.3133 -0.2187  0.0826
32552ION     NA48813   7.540   5.382   4.537 -0.0711 -0.2572 -0.1063
32553ION     NA48814   9.218   2.652  11.000 -0.1160  0.0488  0.3099
32554ION     NA48815   7.597   0.097   6.026  0.0396 -0.0080 -0.0416
32555ION     NA48816   2.700  13.937   5.913  0.1422 -0.0458 -0.1254
32556ION     NA48817   6.993   1.288  10.601 -0.0660  0.1479 -0.0551
32557ION     NA48818  17.349   7.131  11.101  0.1493  0.1424  0.0457
32558ION     NA48819   6.640  13.556  10.558  0.1192  0.2751 -0.2528
32559ION     NA48820  13.465  16.724  10.893 -0.1137 -0.0710  0.2388
32560ION     NA48821  16.589   5.240   0.756  0.0115  0.1273 -0.1834
32561ION     NA48822   6.940   1.877   1.171  0.0747 -0.2308  0.2327
32562ION     NA48823   9.865  14.971  10.469  0.1517 -0.0574 -0.0213
32563ION     NA48824  12.440   1.281   6.405  0.0026  0.1192  0.0420
32564ION     NA48825   8.964   4.333   6.070 -0.3160  0.1364  0.2175
32565ION     NA48826  15.285  14.693   6.179  0.0360 -0.4529  0.1267
32566ION     NA48827  15.606   3.940  11.175  0.0446 -0.3391  0.1104
32567ION     NA48828   5.811  13.017  10.757  0.3449  0.0504  0.0040
32568ION     NA48829   3.103  12.998  10.384 -0.0947 -0.0592 -0.0702
32569ION     NA48830   9.799  15.519   4.932 -0.3308 -0.0273 -0.0322
32570ION     NA48831   6.510   0.677   0.444  0.3455 -0.2152  0.1924
32571ION     NA48832  16.542  14.395  11.205  0.1739  0.3079  0.1177
32572ION     NA48833   7.321   4.708   6.097 -0.1294 -0.1948  0.2188
32573ION     NA48834   7.982   4.967  10.739  0.2758 -0.1570 -0.2083
32574ION     NA48835   6.921  11.000  10.625 -0.0163  0.0699 -0.0844
32575ION     NA48836   7.599  10.503   5.504 -0.2400  0.1764  0.1409
32576ION     NA48837   7.941   6.798  10.598  0.2055  0.0614 -0.2423
32577ION     NA48838  15.594  14.615  14.664  0.2825 -0.2792 -0.3060
32578ION     NA48839  12.203   0.517  10.922  0.0843  0.0416 -0.2764
32579ION     NA48840   7.406   9.026  11.483 -0.2743 -0.0186  0.0979
32580ION     NA48841   2.575   3.095   0.097 -0.2142 -0.0900 -0.0514
32581ION     NA48842   6.085   0.296  10.774 -0.5682 -0.0072  0.0528
32582ION     NA48843  14.416   8.629  16.302  0.1083  0.1957 -0.0539
32583ION     NA48844   9.566   7.433   5.762  0.4034  0.1772  0.0078
32584ION     NA48845   2.131  13.900   0.957 -0.0668 -0.0880 -0.0897
32585ION     NA48846  15.750   0.017  11.236 -0.1225  0.1671  0.0614
32586ION     NA48847   4.262  12.181  10.505 -0.1336  0.0922  0.1403
32587ION     NA48848   0.666   1.850  11.006  0.0982  0.2510  0.3257
32588ION     NA48849  17.339   8.830   1.695 -0.0727 -0.1567 -0.2489
32589ION     NA48850   7.292   6.350  10.975  0.1713  0.1407 -0.1162
32590ION     NA48851   5.355   2.158   6.055  0.2181  0.2222 -0.0433
32591ION     NA48852   7.846   8.893  15.636 -0.4650 -0.2221 -0.0669
32592ION     NA48853  12.665   1.082   1.713 -0.0642 -0.1422  0.1136
32593ION     NA48854  13.066   7.718  10.724 -0.0260 -0.3777 -0.2037
32594ION     NA48855   9.517   8.226   6.244  0.2109 -0.1322 -0.3217
32595ION     NA48856   1.559   7.382  11.012 -0.4379 -0.0296  0.0409
32596ION     NA48857  10.104   0.963  10.871  0.0894  0.0827 -0.0794
32597ION     NA48858   6.774   6.016   6.116 -0.3753  0.3677 -0.1694
32598ION     NA48859   3.146   9.916  10.632 -0.0914 -0.5141 -0.1378
32599ION     NA48860   6.817  16.877  16.314 -0.0987  0.1615 -0.0252
32600ION     NA48861   2.033   7.323  11.061 -0.2391 -0.0744 -0.0616
32601ION     NA48862  15.765   3.878   3.294 -0.4547  0.0301  0.1858
32602ION     NA48863  12.227   6.110  11.038  0.0139 -0.3257 -0.0025
32603ION     NA48864   2.852   6.772  11.244 -0.2026  0.0649  0.2042
32604ION     NA48865   7.089   3.523  11.467 -0.0969  0.2669  0.1895
32605ION     NA48866   1.891   9.860  10.664  0.0859 -0.1527  0.4409
32606ION     NA48867   6.556   5.097  11.134  0.1008  0.1808  0.0036
32607ION     NA48868  14.018  15.033  10.979  0.1997  0.0332 -0.1637
32608ION     NA48869  14.554   6.815   6.434  0.0472 -0.0670  0.2539
32609ION     NA48870  17.727   9.703  12.702  0.1598 -0.0635 -0.0563
32610ION     NA48871  10.024   1.966  10.971  0.1054  0.0462  0.1289
32611ION     NA48872  16.018   5.614  10.943  0.3117 -0.1106 -0.0481
32612ION     NA48873  14.632   5.049  11.035 -0.0392 -0.0412 -0.3235
32613ION     NA48874   0.437  11.692  10.718  0.0575  0.3047 -0.1544
32614ION     NA48875  13.470   6.641   6.246  0.0146 -0.1051 -0.1571
32615ION     NA48876   2.527   8.050  11.068  0.1894  0.0045 -0.0936
32616ION     NA48877   3.668  10.103  13.917  0.4080 -0.1463 -0.1980
32617ION     NA48878   8.256   5.700  10.845  0.2493  0.0588  0.1207
32618ION     NA48879   6.514  15.739  14.435  0.2000 -0.1375 -0.1122
32619ION     NA48880   5.137  13.480  11.234 -0.0113 -0.1331 -0.0351
32620ION     NA48881  12.113  17.727   4.772  0.0671  0.2114  0.3166
32621ION     NA48882  17.135  13.564  11.281  0.3537  0.6110 -0.0158
32622ION     NA48883   1.548   3.540  11.034  0.0292  0.0308  0.2220
32623ION     NA48884  12.106  16.854   2.776 -0.3508 -0.3337 -0.0621
32624ION     NA48885  15.832  16.139  11.380  0.0260  0.0504 -0.3373
32625ION     NA48886   8.149  16.271  10.264  0.0208  0.0422 -0.1489
32626ION     NA48887   7.027  14.470   6.123  0.3679  0.1762  0.0395
32627ION     NA48888   9.908   3.169   5.375  0.3133 -0.0678  0.1665
32628ION     NA48889   3.816   7.630  11.076 -0.2972  0.2301  0.0731
32629ION     NA48890  11.693  16.027  10.581 -0.0122  0.2250  0.0621
32630ION     NA48891   6.726  13.118   6.003  0.1046  0.1276  0.0467
32631ION     NA48892   7.508  10.222  10.750 -0.2046  0.0069  0.0643
32632ION     NA48893   0.961  11.011  11.028  0.3253 -0.0579 -0.1654
32633ION     NA48894   1.382  10.746  15.221 -0.0048  0.0979 -0.2100
32634ION     NA48895  15.147   4.119  11.109  0.2971  0.1680  0.1982
32635ION     NA48896   6.663  17.764   5.527  0.0392 -0.2866 -0.0296
32636ION     NA48897   4.289   6.222  10.988 -0.2114 -0.0764 -0.0165
32637ION     NA48898   9.261   5.769  10.721  0.0617 -0.1457 -0.2683
32638ION     NA48899   0.422   5.169  10.939 -0.2674  0.1462  0.1284
32639ION     NA48900  11.282  15.682  10.623 -0.0267  0.1304  0.1823
32640ION     NA48901   1.304  15.948   3.206  0.2031 -0.0154  0.2867
32641ION     NA48902   0.049  13.991  10.754 -0.1403 -0.1588 -0.1801
32642ION     NA48903   7.137   6.594  15.598 -0.1976 -0.0551 -0.0178
32643ION     NA48904  17.626   8.602  10.712 -0.0750  0.0872 -0.0065
32644ION     NA48905  15.245   6.129   6.289  0.1373 -0.0326 -0.0883
32645ION     NA48906  12.815  13.859   5.046 -0.1400 -0.3637  0.1861
32646ION     NA48907   1.334  13.795  10.816 -0.1583 -0.0548 -0.0959
32647ION     NA48908  17.821   3.504  12.959  0.0345  0.2661  0.0658
32648ION     NA48909   8.128   8.838  10.976 -0.0376 -0.1770 -0.2355
32649ION     NA48910  16.873   5.108   5.289  0.1871 -0.1904 -0.0137
32650ION     NA48911  14.097   7.852  10.899 -0.0468 -0.1368  0.0453
32651ION     NA48912  12.407  10.008   0.695 -0.0854  0.1061  0.0812
32652ION     NA48913   5.956  11.606   4.165  0.2380 -0.0516  0.1568
32653ION     NA48914  13.632   2.472   6.000  0.0037  0.2308  0.1271
32654ION     NA48915  16.443  16.080   1.011  0.1214  0.1882  0.2817
32655ION     NA48916  13.465   8.469  10.666  0.1145 -0.1024 -0.0993
32656ION     NA48917   8.359   5.395   2.549  0.3772 -0.0317 -0.1010
32657ION     NA48918   6.439   6.729  10.687 -0.0408  0.1607  0.1537
32658ION     NA48919  15.468  16.114  13.608  0.0929  0.2714  0.0416
32659ION     NA48920   4.908  15.224  11.067  0.0236 -0.1888  0.0083
32660ION     NA48921  13.778  13.424  11.882  0.1533  0.3619 -0.1316
32661ION     NA48922   8.967   1.618  13.516 -0.1153  0.1776  0.0183
32662ION     NA48923   0.806   0.403   3.305 -0.2773  0.2910  0.1443
32663ION     NA48924   9.885  16.082  14.097  0.0948  0.2296 -0.3127
32664ION     NA48925   7.690  17.562  10.538 -0.1092  0.1873  0.1375
32665ION     NA48926  11.758  13.995   0.705  0.0780  0.0567 -0.3432
32666ION     NA48927   8.912   2.843  11.343  0.0605  0.2971 -0.1028
32667ION     NA48928  14.238   2.557  12.323  0.0338  0.3495 -0.1530
32668ION     NA48929   8.117   7.733  10.622  0.1515  0.3728 -0.1643
32669ION     NA48930  13.769  15.469   6.218  0.0255  0.0782  0.0761
32670ION     NA48931  10.464  16.703   2.223 -0.0790  0.2435  0.2462
32671ION     NA48932   6.070   9.260  10.655  0.2015 -0.2126 -0.1601
32672ION     NA48933   1.509  10.109   2.875 -0.1533  0.4016 -0.1072
32673ION     NA48934   9.198  10.381  10.736  0.0904  0.1836  0.1032
32674ION     NA48935   0.205   2.528  16.031 -0.0304 -0.0863 -0.0330
32675ION     NA48936   0.912   5.375   1.584 -0.1806  0.2056 -0.0754
32676ION     NA48937   8.405  17.415   5.426  0.0398  0.0393 -0.0385
32677ION     NA48938   4.492   2.363  10.941  0.0998 -0.1275 -0.1140
32678ION     NA48939   4.167  16.615  11.580 -0.3744 -0.3344 -0.5141
32679ION     NA48940   2.506  12.928  15.733  0.2531 -0.0109  0.1388
32680ION     NA48941   5.485   5.745  11.613  0.0190 -0.0369 -0.2412
32681ION     NA48942  11.458   0.212  10.859  0.2651 -0.0310  0.1725
32682ION     NA48943   5.430   8.105  10.702  0.0250  0.2856 -0.0291
32683ION     NA48944  15.541   9.323   6.144 -0.2555  0.1821  0.1299
32684ION     NA48945  14.316   2.805  11.093  0.0376  0.0168  0.0298
32685ION     NA48946  16.408  11.852   6.191 -0.4157  0.3895 -0.1769
32686ION     NA48947   0.326  14.665   0.974  0.0920 -0.0595  0.2142
32687ION     NA48948  16.971  16.350  11.062 -0.2015 -0.0501  0.0060
32688ION     NA48949   2.690  13.883  10.604  0.0144  0.1480  0.2137
32689ION     NA48950  14.919   9.159   2.558 -0.1611 -0.1194  0.1756
32690ION     NA48951  15.915   7.774  10.748  0.0808  0.0605  0.2706
32691ION     NA48952  17.525  14.728   6.283 -0.2286 -0.2267  0.0630
32692ION     NA48953  14.829  15.767  11.178  0.1004 -0.1505 -0.0732
32693ION     NA48954  10.151   5.825   3.493 -0.0810  0.0093  0.1337
32694ION     NA48955  16.979  12.717  11.083 -0.0785  0.0252 -0.0705
32695ION     NA48956  10.252   2.920  10.898  0.0531 -0.4175 -0.0680
32696ION     NA48957  10.203  10.530  10.658 -0.0791  0.4139 -0.0073
32697ION     NA48958   5.304   5.112  10.990 -0.2512 -0.1417 -0.0593
32698ION     NA48959  11.694  13.548  10.793 -0.2748 -0.1674  0.0327
32699ION     NA48960   2.333   2.372  11.135  0.4872 -0.0891  0.1072
32700ION     NA48961  16.445   9.188  10.856 -0.4443  0.0677 -0.2726
32701ION     NA48962   3.167  10.100  11.066 -0.0995  0.2813 -0.3241
32702ION     NA48963  10.816   1.678  10.795 -0.1687 -0.2039  0.0153
32703ION     NA48964  17.097   0.949  11.089 -0.0509  0.0098 -0.2233
32704ION     NA48965  13.867   4.419  11.130  0.0368 -0.0502  0.2960
32705ION     NA48966  17.338  17.342   6.489  0.0155 -0.0014  0.2134
32706ION     NA48967   4.978  12.226   3.871  0.0197 -0.2438 -0.2447
32707ION     NA48968  13.910   6.267  12.768  0.0311  0.3213  0.0081
32708ION     NA48969  11.687  15.651  16.086 -0.1723  0.1942  0.2668
32709ION     NA48970   4.893   7.054   6.152 -0.0899 -0.1848  0.0748
32710ION     NA48971  10.009   4.441   5.888 -0.1855 -0.0290  0.0317
32711ION     NA48972  14.645   1.448  11.164  0.2057  0.1494  0.2383
32712ION     NA48973   5.318   6.477   4.649  0.2254  0.1945  0.2441
32713ION     NA48974  17.113   6.180  10.913  0.3392 -0.0329  0.0343
32714ION     NA48975   0.707   0.866  11.122  0.1819  0.0616  0.4823
32715ION     NA48976  17.310  10.449  11.039  0.1885  0.2703  0.0103
32716ION     NA48977   4.499  14.313   6.067  0.3777  0.1736  0.1885
32717ION     NA48978   3.391   5.982  11.192 -0.0400  0.2192  0.0471
32718ION     NA48979   5.428   0.677  10.691 -0.1752 -0.0612 -0.0230
32719ION     NA48980   0.598   9.154  10.913  0.1071  0.0098 -0.1399
32720ION     NA48981   9.961  17.020  10.275 -0.0642 -0.0175  0.2185
32721ION     NA48982  10.008  12.021  14.714 -0.2774 -0.1955  0.1405
32722ION     NA48983  17.401   8.813   0.715 -0.1055  0.1112  0.2696
32723ION     NA48984   0.175   6.574  10.806  0.1517 -0.2155 -0.2091
32724ION     NA48985   0.064   9.902  11.365  0.1269  0.2805  0.1740
32725ION     NA48986   3.631  14.016  10.536  0.0374  0.0468 -0.0790
32726ION     NA48987   5.748  15.509   5.211  0.0774 -0.0025  0.2051
32727ION     NA48988  11.951   8.405   6.113 -0.0613 -0.3345  0.0599
32728ION     NA48989   9.488  13.082  12.930  0.0906 -0.2204  0.0093
32729ION     NA48990   6.926   2.846  10.957  0.2811 -0.1037  0.1783
32730ION     NA48991   5.513   2.468   2.500  0.0035 -0.2847 -0.1256
32731ION     NA48992   0.679   2.337   2.662 -0.2330 -0.1666  0.2020
32732ION     NA48993   1.552   8.258  10.908  0.1463 -0.4079  0.1727
32733ION     NA48994   6.973  15.836  10.555  0.0497 -0.0479  0.2309
32734ION     NA48995   8.441   9.764  10.710  0.1914 -0.0295 -0.0006
32735ION     NA48996  13.094  12.886  10.845 -0.0592 -0.0419  0.0236
32736ION     NA48997   3.425  13.154   5.960 -0.0810  0.1648 -0.1435
32737ION     NA48998   2.284   3.906  11.148  0.1650 -0.0625 -0.0215
32738ION     NA48999   7.409   8.372   5.756 -0.2626 -0.1831  0.0624
32739ION     NA49000   4.006  13.048   5.014 -0.0484  0.1322  0.0460
32740ION     NA49001  12.604   2.151  10.944 -0.1805  0.1204 -0.2472
32741ION     NA49002  14.325  11.011  13.735 -0.0692 -0.0035  0.0982
32742ION     NA49003  16.771   2.928   6.512  0.1069  0.1148 -0.1452
32743ION     NA49004  16.067  11.115  15.315 -0.0196 -0.4402  0.0117
32744ION     NA49005   1.527   5.461  11.075 -0.0120  0.1146  0.3267
32745ION     NA49006   4.837  11.705  12.117 -0.1345 -0.1712  0.1304
32746ION     NA49007  16.314  11.778  14.021  0.0705 -0.0172  0.3301
32747ION     NA49008  15.300   1.052   6.763  0.3444 -0.4857 -0.0228
32748ION     NA49009   4.884   7.574  10.901 -0.3885 -0.0013  0.0821
32749ION     NA49010   6.441   1.155  12.649 -0.2504  0.1027 -0.0111
32750ION     NA49011   0.575  12.906   4.479  0.2606  0.4648  0.2889
32751ION     NA49012   6.569   8.561  10.979 -0.3298  0.1636 -0.0303
32752ION     NA49013  10.490  16.115   6.141 -0.1587 -0.0704  0.0844
32753ION     NA49014  10.507   5.382  13.016  0.2521 -0.0582  0.1229
32754ION     NA49015  10.667   7.486  10.860  0.1882 -0.1083 -0.1844
32755ION     NA49016  15.976   7.968   6.200  0.0486 -0.3363 -0.3969
32756ION     NA49017   3.935   1.743  11.016 -0.2615 -0.1344  0.4092
32757ION     NA49018  16.568  13.425  14.472  0.0321  0.0284 -0.0709
32758ION     NA49019   2.878   0.066  10.748  0.0798  0.1930  0.1949
32759ION     NA49020   0.309  13.255  15.736  0.2468  0.0131 -0.2781
32760ION     NA49021  10.964  16.708  15.211  0.2117  0.0761  0.2353
32761ION     NA49022   8.836  15.753  10.483  0.0402  0.1389 -0.1165
32762ION     NA49023  15.840   7.260  10.752 -0.2563  0.0027 -0.2786
32763ION     NA49024  17.176  12.659   0.954  0.1353  0.5591  0.1517
32764ION     NA49025   1.293  13.311   6.223 -0.0099 -0.1315 -0.0284
32765ION     NA49026  17.523  11.336  11.182 -0.3191 -0.0914  0.0594
32766ION     NA49027  16.763   6.970  10.833  0.2091  0.2461 -0.2512
32767ION     NA49028   7.634  10.804   3.364 -0.1304  0.1648  0.1153
32768ION     NA49029  10.883   7.552   5.297 -0.1436  0.4516 -0.1793
32769ION     NA49030  12.106   4.452  10.897 -0.1420  0.1425  0.1812
32770ION     NA49031  14.154   5.033   6.350  0.1527  0.0428  0.2433
32771ION     NA49032  15.604   8.713  10.784  0.0030 -0.1872  0.1315
32772ION     NA49033  17.099   7.263   5.846  0.1760 -0.2413 -0.0903
32773ION     NA49034  15.714  10.755  10.973  0.1950  0.2230  0.1191
32774ION     NA49035   3.769   5.162   6.289 -0.4871  0.0357  0.1061
32775ION     NA49036   6.129  13.194   3.419 -0.0053  0.0166  0.1483
32776ION     NA49037  13.380  15.111   2.920  0.1342 -0.1137 -0.0173
32777ION     NA49038   9.273  17.706  10.562  0.1344 -0.2990 -0.1125
32778ION     NA49039   5.869   4.358  11.167 -0.1143  0.0111 -0.1971
32779ION     NA49040   3.310  11.993  10.422 -0.0278  0.1726 -0.0266
32780ION     NA49041   5.240  11.645  10.728 -0.2835 -0.2775 -0.0310
32781ION     NA49042   9.164   1.691  10.672  0.0379  0.2284 -0.2007
32782ION     NA49043  11.867  12.304   4.954  0.0531  0.0924  0.0601
32783ION     NA49044  16.833  15.225  11.092 -0.1591  0.4300 -0.0133
32784ION     NA49045   6.232  14.896   6.165 -0.0861  0.0454 -0.0012
32785ION     NA49046   4.619   5.749  12.101  0.1220  0.0236 -0.0347
32786ION     NA49047  13.962  16.694   6.050  0.2155  0.2299  0.1581
32787ION     NA49048  13.328  13.723  10.823 -0.3880 -0.2673  0.2546
32788ION     NA49049   1.490   5.473   5.967 -0.2996 -0.1956 -0.2328
32789ION     NA49050  10.911  12.636  10.613 -0.4097 -0.0845  0.0010
32790ION     NA49051  10.137   9.170  10.775  0.0792 -0.1473  0.1796
32791ION     NA49052  14.169   8.766  10.784 -0.1831  0.0192 -0.0630
32792ION     NA49053   9.589   4.679  10.963 -0.2734  0.0580 -0.0982
32793ION     NA49054  11.515  12.150   1.237 -0.0590 -0.2512 -0.0927
32794ION     NA49055  17.326  11.367   1.697 -0.0860 -0.1958  0.0588
32795ION     NA49056   2.940  16.345   4.707  0.0863  0.3551 -0.1288
32796ION     NA49057  14.581  16.597  10.972  0.0121 -0.1861  0.3341
32797ION     NA49058  17.763   0.621  12.667 -0.2507 -0.2866 -0.0702
32798ION     NA49059   1.955   8.564   4.021  0.2314 -0.0081 -0.1505
32799ION     NA49060  15.850   3.091  15.838 -0.2542  0.3698 -0.2583
32800ION     NA49061  12.877  10.982  16.457  0.1406  0.0897 -0.0078
32801ION     NA49062  17.300  13.933   1.892 -0.1809 -0.4077 -0.1077
32802ION     NA49063  16.850   7.729  10.441 -0.2112 -0.1888  0.0064
32803ION     NA49064  12.009  17.320  10.867 -0.2031  0.1915  0.0764
32804ION     NA49065  13.157   1.194  11.091  0.0554 -0.0429  0.1603
32805ION     NA49066   8.042  15.411  10.179 -0.3328  0.0172 -0.1820
32806ION     NA49067  11.666  11.681   2.855  0.0443 -0.0958  0.1314
32807ION     NA49068  16.151   1.821  10.954  0.0507 -0.0566 -0.1058
32808ION     NA49069   3.474  15.459  11.033  0.1532 -0.0040 -0.2686
32809ION     NA49070  13.800   0.762   4.646  0.0540  0.1400 -0.0828
32810ION     NA49071   2.308   5.732  11.015  0.0661  0.2081 -0.0947
32811ION     NA49072   0.923   9.978  10.857  0.0153 -0.0927 -0.2844
32812ION     NA49073   6.247  16.055  16.468  0.3567 -0.0258 -0.0511
32813ION     NA49074  12.922  11.115  12.863  0.0827  0.0222 -0.1379
32814ION     NA49075   3.040   0.883  15.471 -0.0435 -0.2207 -0.3209
32815ION     NA49076   5.389  16.505   5.706  0.2579 -0.0085 -0.0772
32816ION     NA49077   2.246   5.881   6.329  0.0545  0.4802  0.2287
32817ION     NA49078   4.332   5.616  10.850 -0.0717 -0.3544 -0.0561
32818ION     NA49079   6.567  16.550  10.567 -0.0196  0.1003 -0.2730
32819ION     NA49080  12.797   0.485  11.255  0.0177  0.1084  0.0560
32820ION     NA49081   5.842   2.641  11.107 -0.2540 -0.0761 -0.1328
32821ION     NA49082  17.854  16.492  11.332 -0.3762 -0.1132  0.2282
32822ION     NA49083  12.567  10.630  10.703 -0.1998 -0.0711 -0.1832
32823ION     NA49084   4.913  10.853  10.792  0.0390 -0.0600  0.0283
32824ION     NA49085   3.942   3.110   5.616  0.2569 -0.2002 -0.1355
32825ION     NA49086   3.227   9.719  14.696  0.0460 -0.0436  0.0639
32826ION     NA49087  10.597  14.933   3.835  0.0746  0.0596 -0.0355
32827ION     NA49088   6.803  13.662  13.943  0.4670  0.1428  0.0710
32828ION     NA49089   5.358   7.028  10.962  0.1945  0.1369 -0.1991
32829ION     NA49090  13.488  14.153   6.380 -0.2163  0.1233  0.0718
32830ION     NA49091  15.178   0.704  11.233 -0.1679 -0.2063  0.2060
32831ION     NA49092   7.322  15.967  10.215 -0.1531 -0.0272 -0.3463
32832ION     NA49093   9.414  11.715  14.138 -0.0154  0.2332  0.0318
32833ION     NA49094   8.559  17.812  16.407 -0.0329 -0.1523 -0.1519
32834ION     NA49095   1.089  15.211  10.848 -0.0408 -0.1146 -0.0950
32835ION     NA49096  12.717   5.383  11.014  0.0935  0.0570 -0.2611
32836ION     NA49097   9.378   0.095   5.910 -0.2693  0.2804  0.1164
32837ION     NA49098   9.718  17.098   0.395 -0.3077 -0.1459 -0.1844
32838ION     NA49099   6.406  11.665   1.714  0.1349 -0.1966 -0.1378
32839ION     NA49100  13.849   6.880  10.902 -0.0247  0.0998 -0.0225
32840ION     NA49101   6.334   3.382  11.280 -0.0947 -0.1169  0.1796
32841ION     NA49102  11.588  11.185  11.885 -0.1838  0.1276  0.1388
32842ION     NA49103   9.325   6.586   3.961  0.1806  0.0231 -0.1418
32843ION     NA49104  13.341   0.896  14.848 -0.3249 -0.1547  0.1195
32844ION     NA49105  10.334  17.741   5.595  0.1832  0.0835 -0.0822
32845ION     NA49106   4.120  14.686   3.970 -0.3199  0.1697  0.1320
32846ION     NA49107   6.284   9.320   1.551 -0.1554 -0.1493 -0.1322
32847ION     NA49108  16.270   8.344   5.365 -0.3165  0.0175  0.1227
32848ION     NA49109   2.916   0.455   4.136  0.1396 -0.1135 -0.2150
32849ION     NA49110  10.834  11.862  10.621 -0.2591 -0.0466 -0.0738
32850ION     NA49111  10.631   0.269  10.749 -0.0424 -0.2188  0.0003
32851ION     NA49112  16.505  14.271  16.329 -0.0328 -0.3480  0.3053
32852ION     NA49113  10.459  13.722   5.608 -0.0900  0.0329  0.0972
32853ION     NA49114   8.040  12.685  10.558 -0.3234  0.0735  0.2706
32854ION     NA49115   9.009   9.500  13.165  0.1844  0.2553  0.1086
32855ION     NA49116   6.026   6.269   6.405  0.0062  0.0803  0.1592
32856ION     NA49117   3.510  11.149  10.737  0.0399  0.0964  0.1867
32857ION     NA49118   9.363  12.530   5.623  0.2307  0.3525  0.4530
32858ION     NA49119  12.604   9.318   6.032 -0.1653 -0.1198  0.0372
32859ION     NA49120   0.540   7.303  10.993  0.0704  0.0082 -0.1512
32860ION     NA49121   3.020   5.082  11.114  0.2912  0.1745  0.4322
32861ION     NA49122  10.142   7.380  10.779  0.4341 -0.1116  0.0942
32862ION     NA49123  16.698  16.420  13.264  0.2450 -0.1732  0.1764
32863ION     NA49124  12.435   3.626  10.863 -0.1023  0.0203 -0.1967
32864ION     NA49125  14.923   2.164   6.533 -0.2008 -0.1898 -0.2544
32865ION     NA49126   7.209  14.446  10.526  0.0175 -0.1601 -0.3183
32866ION     NA49127   2.238  14.651  10.540 -0.3920  0.2533 -0.3570
32867ION     NA49128   0.213   1.922  10.824 -0.1547 -0.0687 -0.0270
32868ION     NA49129  17.842   3.556  11.104 -0.3216  0.2497  0.0270
32869ION     NA49130  15.632   1.674   2.301  0.0754 -0.0018  0.1537
32870ION     NA49131  10.161  17.027   6.157  0.5125 -0.2816 -0.2354
32871ION     NA49132   7.654  15.092  10.361 -0.1849 -0.2162  0.1022
32872ION     NA49133   2.709  17.289   5.436  0.1497 -0.2018 -0.0385
32873ION     NA49134  12.376   2.244  14.480  0.0206 -0.1436 -0.0608
32874ION     NA49135  17.772  13.101  11.095 -0.0134 -0.0295 -0.1299
32875ION     NA49136   4.419   6.625   0.486 -0.0097 -0.0479  0.0178
32876ION     NA49137  13.227   0.250  11.227 -0.0731 -0.2930  0.2444
32877ION     NA49138   4.472   1.587   6.083  0.0826 -0.0206 -0.3200
32878ION     NA49139  11.628   8.900  14.935 -0.0041 -0.1787  0.0287
32879ION     NA49140   1.918   3.115   5.328 -0.1923  0.1135  0.3050
32880ION     NA49141  12.002   1.034   2.855  0.1745  0.2092  0.3457
32881ION     NA49142  17.474   0.931   6.262 -0.1570 -0.1163 -0.1917
32882ION     NA49143   4.964  12.800  10.673 -0.0050  0.1305  0.0370
32883ION     NA49144   4.191   0.076  10.780  0.0002  0.1316  0.0181
32884ION     NA49145  16.211   4.117  12.742  0.0489 -0.0900 -0.0229
32885ION     NA49146   2.262   8.852  10.752 -0.1614  0.0502 -0.0369
32886ION     NA49147  13.320   2.709  11.218 -0.2920 -0.3299 -0.4181
32887ION     NA49148  14.193  10.436   5.966 -0.0081  0.0268 -0.0245
32888ION     NA49149  15.628  13.253   6.370  0.1173  0.2796 -0.1246
32889ION     NA49150   1.498  17.365   6.182 -0.1110 -0.2082  0.0783
32890ION     NA49151  13.292   9.238  10.939 -0.0512 -0.0063 -0.1473
32891ION     NA49152   3.728   4.591  10.809 -0.0202  0.1818  0.2500
32892ION     NA49153   3.344   5.400   0.033  0.0286  0.1250 -0.2625
32893ION     NA49154   3.452   8.374  10.849 -0.0736  0.0577  0.2869
32894ION     NA49155   6.405  11.836  11.375  0.0623  0.1485  0.1028
32895ION     NA49156  12.642   9.712  10.808  0.0702  0.1771  0.3586
32896ION     NA49157  16.167   6.431  10.838  0.0268  0.0177 -0.0185
32897ION     NA49158   8.929  16.075  16.820 -0.3840 -0.2246 -0.0929
32898ION     NA49159   6.611  13.310  11.161  0.1278  0.0706  0.0873
32899ION     NA49160   8.391   2.362  10.660 -0.0352  0.1921  0.3939
32900ION     NA49161   4.042  13.161  10.535 -0.1241  0.1147  0.1182
32901ION     NA49162  14.832  14.507  11.285  0.3956  0.1299 -0.1401
32902ION     NA49163   9.103   7.636  10.792 -0.0814 -0.1555 -0.2387
32903ION     NA49164   6.662   3.817   4.421  0.2996 -0.0332 -0.1599
32904ION     NA49165   7.479  11.962  10.560  0.0825 -0.1638 -0.1392
32905ION     NA49166  13.363  12.810  16.778  0.0834 -0.1042 -0.1369
32906ION     NA49167   5.140  16.703  11.033  0.1113  0.0877 -0.1492
32907ION     NA49168  15.665   5.600   5.119 -0.2055 -0.2114  0.1562
32908ION     NA49169  10.742   1.407   3.843 -0.3096 -0.3898 -0.3693
32909ION     NA49170  13.881   0.797  11.289 -0.2878  0.0280 -0.2486
32910ION     NA49171   7.196   1.995   5.751  0.0823  0.1115 -0.0261
32911ION     NA49172   4.227   9.013  12.767  0.1397  0.0764 -0.2744
32912ION     NA49173  16.711  11.179  11.004  0.0263 -0.2210 -0.0227
32913ION     NA49174  15.528   2.390   6.125 -0.1704 -0.1174 -0.0924
32914ION     NA49175  12.582   7.553  10.616 -0.5700  0.0991  0.0165
32915ION     NA49176   8.576   1.144  10.561 -0.3706  0.0238 -0.1348
32916ION     NA49177  17.021   4.085  11.043  0.0304 -0.0421  0.2747
32917ION     NA49178   9.466   7.207   0.934 -0.0922  0.2727 -0.2063
32918ION     NA49179   5.824  14.795  10.843  0.0540  0.1165  0.0160
32919ION     NA49180   5.203   0.510  14.865 -0.2916  0.0549  0.0927
32920ION     NA49181   6.866   8.033  10.815 -0.3234  0.1465 -0.0941
32921ION     NA49182  10.325  12.803  10.609  0.2589 -0.0424 -0.1207
32922ION     NA49183   5.616  15.538  10.826 -0.2174 -0.3748 -0.1465
32923ION     NA49184  14.695  13.575  11.404 -0.2155  0.3106 -0.1889
32924ION     NA49185   3.674   6.803  11.133  0.0183 -0.0315 -0.1355
32925ION     NA49186   3.863   2.656  10.965  0.1011  0.1188  0.0171
32926ION     NA49187   9.419   3.710  11.155 -0.2766 -0.1582  0.0865
32927ION     NA49188  14.655   9.760   6.144  0.1709  0.0519  0.4375
32928ION     NA49189   4.114  14.288  10.696  0.1163 -0.0849  0.0168
32929ION     NA49190   4.965   9.919  10.986 -0.0107  0.1405 -0.0516
32930ION     NA49191   4.581  17.563   6.020  0.0788 -0.1970 -0.3146
32931ION     NA49192   5.318   9.019  11.068 -0.1632  0.1115 -0.0103
32932ION     NA49193   8.471   8.104  10.453 -0.2804 -0.4704  0.2732
32933ION     NA49194   1.241   6.757  10.863  0.0142 -0.2033 -0.1379
32934ION     NA49195  15.033   8.102  10.836 -0.1563  0.1229 -0.2314
32935ION     NA49196  13.260  10.456  10.687  0.1537  0.0125 -0.1516
32936ION     NA49197  12.396  13.652  10.839 -0.4035  0.2027 -0.1358
32937ION     NA49198   4.106  10.266  10.911 -0.0316 -0.0760  0.3071
32938ION     NA49199  14.409  11.516   6.319 -0.3288 -0.3126 -0.1006
32939ION     NA49200   0.414  10.717  11.056 -0.2424  0.2480  0.2258
32940ION     NA49201   2.180  11.195   2.459  0.2143 -0.1284  0.1758
32941ION     NA49202  11.026   6.334  15.055 -0.0038 -0.0936  0.2504
32942ION     NA49203   2.681  11.551  10.742  0.1383  0.0162  0.0803
32943ION     NA49204   4.242   1.307  14.479 -0.1845 -0.0384 -0.1764
32944ION     NA49205   5.523   6.459  10.949 -0.0218 -0.1884  0.2337
32945ION     NA49206  12.577   2.993  16.926 -0.0590 -0.0046 -0.1013
32946ION     NA49207   4.425  17.209  10.815 -0.0475  0.0785 -0.0101
32947ION     NA49208  17.304  16.507   6.299 -0.2911 -0.0209  0.0556
32948ION     NA49209  11.781   3.980   4.000 -0.0932 -0.0957  0.2238
32949ION     NA49210   7.199   7.759   1.750 -0.2048 -0.0495 -0.2502
32950ION     NA49211   9.203   0.785  10.816 -0.1172 -0.0082  0.2813
32951ION     NA49212  15.100   3.192  11.261  0.2038 -0.0366  0.0473
32952ION     NA49213  11.016  11.211  10.627  0.1898  0.0646 -0.3158
32953ION     NA49214  17.793  14.967  10.815 -0.0313 -0.0463 -0.0251
32954ION     NA49215   0.892   5.994  10.849 -0.4043 -0.0062 -0.2629
32955ION     NA49216  17.728   1.469  10.884  0.0118  0.1281  0.0785
32956ION     NA49217  15.243  15.401  11.026 -0.0186  0.0473  0.0151
32957ION     NA49218  14.033  10.822  10.646 -0.0124 -0.0290 -0.0036
32958ION     NA49219  14.613  14.265  15.015 -0.1591 -0.1119  0.3262
32959ION     NA49220  15.132  11.472  10.942  0.0144 -0.1914  0.2061
32960ION     NA49221  11.075   8.845  10.608 -0.2547 -0.0371  0.1312
32961ION     NA49222  16.123  12.497  11.095 -0.0286  0.1124 -0.0680
32962ION     NA49223   2.182   4.914  11.168 -0.2026  0.0461 -0.1810
32963ION     NA49224   1.247  11.876   3.254 -0.2768  0.0958 -0.0788
32964ION     NA49225  13.670  12.214  10.889  0.1351 -0.0291  0.0573
32965ION     NA49226   9.764   0.573  12.162  0.0915 -0.2714 -0.2216
32966ION     NA49227   0.151   2.705  11.370  0.0767  0.0177  0.3389
32967ION     NA49228  14.906   9.197  10.592  0.1285 -0.1677  0.1652
32968ION     NA49229   8.584  13.541  10.432  0.1401 -0.0885 -0.1260
32969ION     NA49230   0.011   8.449  13.140  0.1197  0.1385  0.3318
32970ION     NA49231  15.437  16.422  11.063  0.2016 -0.1703 -0.0986
32971ION     NA49232  12.923  13.307  15.779 -0.1610  0.0043  0.1163
32972ION     NA49233   3.335  11.144  12.079  0.0726 -0.0828 -0.0626
32973ION     NA49234   8.270  11.865  10.458 -0.0454  0.0292 -0.0015
32974ION     NA49235  13.520   9.945  10.672 -0.0879  0.3094  0.3111
32975ION     NA49236  17.852   5.032  11.997 -0.4189  0.3960  0.0407
32976ION     NA49237   5.124   9.024   0.543 -0.1858  0.2512 -0.0976
32977ION     NA49238   4.441   9.196  10.991  0.1794  0.0135  0.2772
32978ION     NA49239  17.599  12.181  10.971  0.0234 -0.0366  0.0583
32979ION     NA49240  15.534  15.543   6.236 -0.5269  0.1266  0.0552
32980ION     NA49241  12.631  16.679  10.753  0.2257  0.1990  0.0201
32981ION     NA49242   7.579  13.561  10.444  0.1867  0.1990  0.0038
32982ION     NA49243   2.606  12.511  10.382  0.0520 -0.2124  0.0829
32983ION     NA49244  16.468  10.164  10.919  0.0951  0.0228  0.0105
32984ION     NA49245   1.177   7.881  16.229 -0.0279  0.2432 -0.3661
32985ION     NA49246   1.053  12.651  10.846  0.1229 -0.0079  0.0327
32986ION     NA49247   8.269  16.889  10.368 -0.1737 -0.2196  0.2355
32987ION     NA49248  14.099  11.772   4.067 -0.0065 -0.1477  0.0805
32988ION     NA49249   1.832  13.024  10.785  0.1905  0.1752 -0.0722
32989ION     NA49250  13.087  13.796   2.432 -0.0417  0.2349 -0.0035
32990ION     NA49251   0.891  11.933   6.317 -0.3101 -0.2282  0.0019
32991ION     NA49252   2.971  17.049  10.809  0.1959 -0.0580 -0.2679
32992ION     NA49253   9.419   6.715  10.753  0.1154  0.3802 -0.2419
32993ION     NA49254   0.694   5.115   6.247 -0.0259  0.0416  0.1505
32994ION     NA49255   4.920  11.243   0.714  0.0288 -0.0915  0.0682
32995ION     NA49256  10.624   6.527   6.149  0.4413  0.0930 -0.1283
32996ION     NA49257  15.262  12.919  11.012  0.1474  0.0764 -0.2115
32997ION     NA49258   8.580  12.761  10.452 -0.1325 -0.0748 -0.0602
32998ION     NA49259  15.986   3.175   6.628 -0.1097 -0.1809  0.0906
32999ION     NA49260  15.398   6.398  12.149  0.0885  0.1211  0.0741
33000ION     NA49261  10.821   9.775  10.856  0.0305 -0.0384  0.0256
33001ION     NA49262   0.963  13.948  12.007  0.2207  0.3646  0.1820
33002ION     NA49263  16.389   9.802   1.302  0.0722  0.1413  0.0137
33003ION     NA49264  10.467   6.537  11.143  0.2433 -0.0761 -0.0071
33004ION     NA49265  16.452   3.515  11.131  0.1023  0.0532  0.0040
33005ION     NA49266  10.651   7.799   0.757  0.0264 -0.2032 -0.2636
33006ION     NA49267   8.146   3.010  11.615 -0.1353 -0.0223  0.0011
33007ION     NA49268   0.294  14.207   6.319 -0.2983 -0.0157 -0.1141
33008ION     NA49269   7.796   2.677  10.818 -0.0928 -0.1078  0.0114
33009ION     NA49270  15.183   0.987  13.959 -0.1818 -0.1733 -0.1386
33010ION     NA49271   1.894  17.108  13.329 -0.0045 -0.3039 -0.1230
33011ION     NA49272  12.135  13.196   5.921 -0.1122  0.0852  0.0784
33012ION     NA49273   8.350  10.431  10.627  0.1606  0.1759 -0.2622
33013ION     NA49274  11.661   1.872  10.823  0.2775 -0.0990  0.0690
33014ION     NA49275   8.826   8.567   5.571  0.1849 -0.4248  0.1617
33015ION     NA49276  11.798  12.010  10.809 -0.0643 -0.4009 -0.1984
33016ION     NA49277   8.048   7.835   4.322 -0.3920  0.0485  0.1524
33017ION     NA49278   1.951   9.099  13.228 -0.0543  0.0653  0.1732
33018ION     NA49279   8.529  10.197   1.208 -0.0608 -0.5761  0.3662
33019ION     NA49280   9.351  17.481   4.086 -0.2207 -0.2591 -0.2741
33020ION     NA49281   5.605   3.514  11.058 -0.2285  0.0254 -0.2669
33021ION     NA49282   7.272   6.647   5.791 -0.0178  0.1089  0.2193
33022ION     NA49283  12.996   4.485  10.998 -0.1107 -0.1777  0.2119
33023ION     NA49284   9.273   9.513  10.932 -0.0221 -0.1843  0.0762
33024ION     NA49285  11.694   7.584  10.741  0.1838 -0.2025  0.2099
33025ION     NA49286  10.443   9.143   0.248  0.1318  0.0314  0.0190
33026ION     NA49287   3.169  16.160  15.890 -0.2599  0.1456  0.1172
33027ION     NA49288  13.922  16.000  11.413  0.4592 -0.2685  0.0202
33028ION     NA49289   2.488  16.969  10.670 -0.0784  0.2238 -0.0449
33029ION     NA49290   7.105  12.821  10.519 -0.3051  0.0313 -0.0517
33030ION     NA49291   6.766  17.288  10.837 -0.1045  0.2194 -0.3461
33031ION     NA49292  11.850   5.803  11.114 -0.2334  0.1371  0.0278
33032ION     NA49293   3.119  10.841   1.089  0.1014 -0.2326  0.0519
33033ION     NA49294   4.331   8.515  14.529  0.1230  0.2077  0.0423
33034ION     NA49295  10.024   3.001   0.528  0.0307  0.0144 -0.3253
33035ION     NA49296   1.919   1.172   1.422 -0.0663  0.2686 -0.0051
33036ION     NA49297  12.295  12.563   2.902 -0.1952 -0.2165  0.2000
33037ION     NA49298   8.734   4.385  10.812  0.2187  0.2885 -0.4399
33038ION     NA49299  10.194  17.758   3.252  0.0365 -0.1905  0.0350
33039ION     NA49300  11.725   3.778   2.689 -0.3341 -0.0068  0.0175
33040ION     NA49301  14.846  10.636  11.228  0.0396  0.2913  0.2776
33041ION     NA49302  10.804  15.059   5.892 -0.1668 -0.0110  0.0851
33042ION     NA49303  13.976  16.074  15.715 -0.2389  0.1662 -0.0711
33043ION     NA49304  17.182   4.470  12.073 -0.1620  0.1130 -0.0406
33044ION     NA49305   5.071  16.173  10.748 -0.0088 -0.2091  0.0531
33045ION     NA49306   1.652  11.439  15.591  0.2292 -0.0975  0.0651
33046ION     NA49307   1.095  17.517  10.926 -0.2231  0.1776  0.2238
33047ION     NA49308  15.755  14.091  11.304 -0.1092  0.2135 -0.0159
33048ION     NA49309   7.771   6.764   5.073 -0.1009  0.0434 -0.0081
33049ION     NA49310   7.892   3.993  11.052 -0.3289 -0.2843 -0.1838
33050ION     NA49311   6.359  14.459  10.667  0.0552  0.2305  0.3164
33051ION     NA49312   7.743   6.570  14.786 -0.0455  0.1404 -0.1741
33052ION     NA49313  11.697  15.046  10.899  0.0183  0.0281  0.1075
33053ION     NA49314   5.502   3.088   1.572  0.0514  0.1127  0.1304
33054ION     NA49315   9.533   5.807   6.089  0.0982  0.3706 -0.3822
33055ION     NA49316   5.886  15.788   2.344 -0.1042  0.0891  0.2571
33056ION     NA49317   8.768  12.288  15.039 -0.3038 -0.0686  0.2266
33057ION     NA49318   8.751  10.492  11.787 -0.0364  0.1561 -0.2744
33058ION     NA49319  14.922   9.451  11.038  0.0859 -0.0753  0.0901
33059ION     NA49320  11.569   4.851   6.079  0.0883  0.1657 -0.1134
33060ION     NA49321  11.511   4.433  11.010  0.3067 -0.1636  0.1190
33061ION     NA49322  17.677  10.382  16.322  0.0293  0.0047  0.1076
33062ION     NA49323   3.167   0.927  10.945 -0.0043 -0.1244 -0.0662
33063ION     NA49324   5.715  17.564  14.285  0.1537  0.0054  0.2205
33064ION     NA49325  10.617   4.768  11.005  0.0474 -0.1547 -0.0406
33065ION     NA49326  10.020  10.021  10.626  0.0118  0.0353 -0.0659
33066ION     NA49327   7.502  11.115  15.370 -0.0761  0.0393  0.1958
33067ION     NA49328   0.762  16.638  10.894 -0.2891  0.1237  0.0071
33068ION     NA49329  12.589  11.408  11.658  0.2612  0.0098  0.1144
33069ION     NA49330  17.353  10.575  15.388 -0.3882  0.1262 -0.3602
33070ION     NA49331   1.722  14.136   6.158  0.1914  0.0886 -0.0523
33071ION     NA49332  11.833  12.753  11.068  0.0567 -0.0101  0.0744
33072ION     NA49333   0.570   3.484   6.262 -0.3191 -0.0402  0.0792
33073ION     NA49334   0.725   4.161  10.972  0.1318 -0.0585  0.3503
33074ION     NA49335   8.680   4.977  13.011  0.1741 -0.1099 -0.1305
33075ION     NA49336  13.980   2.020  11.348  0.0626 -0.2838 -0.1034
33076ION     NA49337   2.048  17.831  10.825  0.3191  0.1061 -0.1183
33077ION     NA49338   7.446   9.307  11.076  0.1227  0.1161 -0.3945
33078ION     NA49339   1.552   4.373  10.946 -0.1307  0.1800  0.1727
33079ION     NA49340  13.787  17.376  11.328 -0.1642 -0.4725 -0.0981
33080ION     NA49341  13.925  11.406  12.366 -0.1701 -0.1661  0.1561
33081ION     NA49342   3.891   8.617  11.033  0.1074  0.0895 -0.1005
33082ION     NA49343   0.837  16.442   5.984  0.2609 -0.3215 -0.0118
33083ION     NA49344   6.553   3.284   6.224  0.1806  0.1505 -0.2625
33084ION     NA49345  11.679  16.562  10.567 -0.0217  0.0591 -0.2033
33085ION     NA49346   1.827   9.443   6.071  0.1137  0.0469  0.1460
33086ION     NA49347   7.817  11.056  10.596 -0.1755  0.0056 -0.1374
33087ION     NA49348  11.036   7.059  11.009 -0.0212 -0.0477 -0.0726
33088ION     NA49349   2.357   9.716  10.722  0.0207  0.1722  0.4024
33089ION     NA49350  10.924  13.540  10.480  0.3572 -0.0644 -0.2764
33090ION     NA49351   3.167  14.663  10.642 -0.0590 -0.0772  0.2057
33091ION     NA49352   0.224   4.820   1.259 -0.3843  0.1779 -0.0807
33092ION     NA49353  11.600   3.590  10.810 -0.1626 -0.0544  0.1482
33093ION     NA49354  11.115  17.225  10.623  0.2438 -0.0458  0.0847
33094ION     NA49355   9.845   8.226  10.658 -0.5269  0.0408  0.0384
33095ION     NA49356   4.980  15.865   6.163 -0.0808  0.0017 -0.1798
33096ION     NA49357  17.083   9.634  11.025  0.0657  0.2384  0.0029
33097ION     NA49358   2.433  16.542   1.974 -0.0831 -0.1415 -0.0036
33098ION     NA49359  10.858  16.547  10.390 -0.1937 -0.0749  0.0845
33099ION     NA49360  12.947  17.333  11.222  0.1827  0.2905  0.1332
33100ION     NA49361  17.484   5.985  16.769  0.0425  0.0066 -0.2929
33101ION     NA49362   2.255   7.801  15.114 -0.2126  0.1789 -0.1196
33102ION     NA49363   3.303  12.354  11.119 -0.1681 -0.0213 -0.0430
33103ION     NA49364   4.032   1.076  10.953 -0.2262 -0.0543 -0.1771
33104ION     NA49365  17.148   3.037  11.065  0.1647  0.2376  0.1894
33105ION     NA49366  13.067   7.235  13.255  0.2232 -0.0664  0.3398
33106ION     NA49367   8.889  14.824  10.218 -0.2110  0.0241  0.0844
33107ION     NA49368   6.345  10.873  12.465 -0.3522 -0.1424  0.0152
33108ION     NA49369   0.511  14.657  13.896 -0.0958 -0.2976 -0.2054
33109ION     NA49370   4.939  14.229  10.680  0.0189  0.1543  0.1688
33110ION     NA49371  10.806   7.965  10.746  0.2668  0.1974  0.1620
33111ION     NA49372  17.756  11.311  13.047  0.0333  0.1453 -0.2799
33112ION     NA49373  14.843  11.679   6.392 -0.2484 -0.0643  0.1645
33113ION     NA49374   5.848  10.556   6.116  0.0164  0.3527  0.0321
33114ION     NA49375  10.783   1.443   0.647  0.0266  0.2312 -0.2262
33115ION     NA49376  15.572   1.868  14.218  0.0756 -0.1948 -0.1062
33116ION     NA49377   5.934  17.050  10.846  0.2640 -0.0896 -0.2971
33117ION     NA49378   4.610   3.296  10.984  0.1106  0.0355  0.0236
33118ION     NA49379  13.893  11.409  15.906  0.1326  0.2275 -0.1038
33119ION     NA49380  17.307  14.137  15.869  0.2353 -0.0521  0.0247
33120ION     NA49381   4.460  11.045  10.977 -0.0082 -0.0629 -0.0116
33121ION     NA49382   0.222   7.046  12.841  0.1237  0.2367 -0.1954
33122ION     NA49383  13.674   7.755  13.195 -0.0453  0.0960 -0.2104
33123ION     NA49384  15.818  13.710   6.307  0.3939  0.0189 -0.2617
33124ION     NA49385  15.258  15.606  16.963  0.1523  0.1509 -0.1079
33125ION     NA49386   0.509  13.779  10.732 -0.0416  0.0759  0.0456
33126ION     NA49387   4.609  15.136   5.891  0.1883 -0.1204  0.1966
33127ION     NA49388   2.089   6.612  11.039 -0.0906  0.0674  0.1057
33128ION     NA49389  10.375  15.797  10.498 -0.1742  0.1856 -0.1532
33129ION     NA49390   1.542   9.206  10.783 -0.0668 -0.2076 -0.0122
33130ION     NA49391  14.874  13.197  11.000 -0.0235 -0.2226 -0.0384
33131ION     NA49392   8.634   3.575   3.884 -0.2014  0.0548  0.2023
33132ION     NA49393   7.523  14.555   3.084 -0.2889 -0.2423  0.5375
33133ION     NA49394  13.304  14.609   6.436 -0.1364 -0.2210  0.0663
33134ION     NA49395   7.307   7.326  10.609  0.2266  0.0676  0.1487
33135ION     NA49396  11.118  10.131  10.654 -0.0370 -0.0741  0.2291
33136ION     NA49397  10.401  13.346  15.098  0.1368  0.0125  0.1128
33137ION     NA49398  13.316  16.029   0.462  0.3257 -0.0237 -0.2771
33138ION     NA49399   0.209  12.019   3.168 -0.2046 -0.2843  0.2526
33139ION     NA49400   6.626   2.484  15.491 -0.1395  0.5763 -0.0929
33140ION     NA49401  15.603   1.647   4.120 -0.1299 -0.0675 -0.3619
33141ION     NA49402  15.356   6.225  10.815  0.2519 -0.1330  0.0904
33142ION     NA49403  15.294   7.560   1.479 -0.0447  0.1678 -0.2296
33143ION     NA49404  16.365  15.397  11.419  0.1338 -0.2478  0.2106
33144ION     NA49405   2.758  16.963  15.462 -0.1406  0.2005  0.1423
33145ION     NA49406  15.445   5.215  11.222  0.1169  0.0246  0.0268
33146ION     NA49407  16.023   1.265  12.090  0.0354 -0.2011  0.0984
33147ION     NA49408  17.033   5.337  11.120 -0.2410  0.0247 -0.0870
33148ION     NA49409  12.327  10.437   6.172  0.0241 -0.0635  0.0588
33149ION     NA49410   2.656  15.421  10.595  0.0929 -0.0059 -0.3302
33150ION     NA49411   1.508   1.406  11.272 -0.1809  0.0596  0.0313
33151ION     NA49412  11.160   6.201  10.869 -0.1524  0.0545  0.1101
33152ION     NA49413   1.766  13.368   3.191 -0.4845  0.2055 -0.3353
33153ION     NA49414   2.324   0.807  10.800 -0.2280  0.2954  0.1935
33154ION     NA49415   1.790  13.995  10.529  0.1745 -0.4132  0.2549
33155ION     NA49416   2.323  16.174  10.721 -0.1079  0.0458  0.0753
33156ION     NA49417  17.454   0.133  11.077  0.1887 -0.0531  0.2503
33157ION     NA49418   4.182   8.887   0.351 -0.2369 -0.0838  0.0267
33158ION     NA49419  17.680   1.207  11.339 -0.1496 -0.1530  0.1247
33159ION     NA49420   2.027   0.219   2.164 -0.0264 -0.3336  0.2106
33160ION     NA49421  13.229  11.339  10.610  0.1853  0.0138  0.0231
33161ION     NA49422  17.805   5.790  10.743 -0.3063 -0.4076  0.1225
33162ION     NA49423   7.810   1.640  10.627  0.0676  0.0570 -0.0896
33163ION     NA49424  16.094   0.861  11.009  0.1284  0.1303 -0.0342
33164ION     NA49425  14.562   6.274  11.015 -0.1124  0.1333  0.2415
33165ION     NA49426  13.299  11.745   6.023  0.0238  0.2202  0.0478
33166ION     NA49427   9.131  13.660   1.985  0.2709  0.0841 -0.0013
33167ION     NA49428  11.870   9.896  10.688  0.0957  0.0695 -0.2085
  17.86278  17.86278  16.97662
