INSANE! Membrane UpperLeaflet>loPI:POPI:DPPI:PYPI:ERGO=180.0:5.0:3.0:2.0:10.0 LowerLeaflet>PSPI:POPI:POPS:YOPS:POPE:YOPE:POPC:YOPC:ERGO=6.0:14.0:21.0:9.0:9.0:21.0:12.0:48.0:60.0
49428
    1loPI    C1    1   0.676  16.410  10.615  0.0443 -0.0315 -0.1633
    1loPI    C2    2   0.716  16.709  10.878  0.1367 -0.1674 -0.0215
    1loPI    C3    3   0.542  16.366  10.990 -0.0053 -0.1527 -0.1946
    1loPI   PO4    4   0.557  16.504  10.347 -0.0539 -0.1631  0.0515
    1loPI   GL1    5   0.708  16.826  10.098 -0.1683  0.1408  0.4139
    1loPI   GL2    6   0.521  16.833   9.851  0.5163  0.1281  0.1675
    1loPI   C1A    7   1.062  16.837   9.801  0.2445 -0.0165  0.0015
    1loPI   C2A    8   1.185  16.755   9.382  0.2438 -0.1296 -0.1301
    1loPI   C3A    9   1.250  16.785   8.934  0.3765 -0.2567 -0.1759
    1loPI   C4A   10   1.524  16.752   8.541  0.1233 -0.2211 -0.0291
    1loPI   C5A   11   1.827  16.469   8.340  0.0053 -0.1572  0.0461
    1loPI   C6A   12   2.018  16.622   7.875 -0.0475 -0.3569 -0.1598
    1loPI   C1B   13   0.512  16.781   9.367  0.4186 -0.3939  0.0286
    1loPI   C2B   14   0.787  16.793   9.016  0.0910 -0.2102  0.0278
    1loPI   C3B   15   0.982  16.623   8.567 -0.1221  0.0582 -0.0290
    1loPI   C4B   16   0.889  16.451   8.183 -0.2398 -0.0890 -0.2697
    2loPI    C1   17   9.891   5.429  11.101  0.0754  0.0940  0.0066
    2loPI    C2   18  10.147   5.481  11.404  0.1932  0.0491 -0.0847
    2loPI    C3   19  10.033   5.112  11.299  0.0838  0.0695 -0.0385
    2loPI   PO4   20   9.997   5.558  10.914 -0.0192  0.2195 -0.0940
    2loPI   GL1   21   9.968   5.596  10.489 -0.0729 -0.0301 -0.1031
    2loPI   GL2   22  10.283   5.458  10.533 -0.0039 -0.1637  0.4590
    2loPI   C1A   23   9.742   5.440  10.165 -0.1541 -0.0688  0.0108
    2loPI   C2A   24   9.562   5.677   9.865  0.1401  0.2605 -0.1966
    2loPI   C3A   25   9.615   5.641   9.502 -0.0732  0.2592 -0.0775
    2loPI   C4A   26   9.566   5.600   9.010 -0.1862 -0.0291 -0.1474
    2loPI   C5A   27   9.657   5.526   8.591  0.2755  0.2017 -0.1741
    2loPI   C6A   28   9.834   5.373   8.315 -0.1496 -0.0942  0.2186
    2loPI   C1B   29  10.222   5.352  10.042 -0.1387 -0.2591 -0.1973
    2loPI   C2B   30  10.059   5.395   9.716 -0.0096 -0.3192  0.0959
    2loPI   C3B   31  10.087   5.403   9.232  0.1015 -0.3196  0.1299
    2loPI   C4B   32  10.068   5.338   8.819 -0.2083  0.0919  0.1149
    3loPI    C1   33  14.815   3.177  10.309  0.0323 -0.0666 -0.0529
    3loPI    C2   34  14.997   3.401  10.586  0.1997 -0.1726 -0.0757
    3loPI    C3   35  14.932   3.013  10.655 -0.0036 -0.1396 -0.0753
    3loPI   PO4   36  14.643   3.271  10.188 -0.1638  0.0358  0.1528
    3loPI   GL1   37  14.603   3.398   9.738 -0.2361 -0.1129 -0.1068
    3loPI   GL2   38  14.988   3.307   9.776  0.2057  0.0097  0.0487
    3loPI   C1A   39  14.568   3.487   9.470  0.0837  0.2473 -0.0439
    3loPI   C2A   40  14.619   3.580   9.072 -0.0135  0.2502 -0.0535
    3loPI   C3A   41  14.553   3.654   8.668 -0.1290  0.1567 -0.1021
    3loPI   C4A   42  14.598   3.828   8.226  0.1714 -0.0714  0.2041
    3loPI   C5A   43  14.731   3.843   7.686  0.0697  0.1036  0.0196
    3loPI   C6A   44  14.655   3.690   7.251 -0.0689 -0.1725 -0.1795
    3loPI   C1B   45  15.215   3.406   9.473  0.1780  0.1004 -0.0282
    3loPI   C2B   46  15.210   3.384   9.038  0.3245  0.0681 -0.1696
    3loPI   C3B   47  15.097   3.337   8.695 -0.2783 -0.0337 -0.0406
    3loPI   C4B   48  14.943   3.438   8.336 -0.3992  0.3606 -0.0780
    4loPI    C1   49   4.920  13.276  10.719 -0.1242 -0.1560 -0.0173
    4loPI    C2   50   4.797  13.320  11.097  0.0445 -0.0950  0.0318
    4loPI    C3   51   4.911  12.960  10.964 -0.1056 -0.1354  0.0101
    4loPI   PO4   52   5.131  13.454  10.614  0.3213 -0.1416  0.0923
    4loPI   GL1   53   5.424  13.443  10.339 -0.2598 -0.0766  0.3175
    4loPI   GL2   54   5.467  13.704  10.206  0.1840  0.1528  0.1947
    4loPI   C1A   55   5.525  13.290   9.880 -0.1141  0.0930 -0.0766
    4loPI   C2A   56   5.631  13.494   9.494 -0.0411  0.1537  0.1989
    4loPI   C3A   57   5.646  13.528   9.044  0.4978  0.3286 -0.1020
    4loPI   C4A   58   5.627  13.431   8.593  0.2989 -0.1291  0.1126
    4loPI   C5A   59   5.518  13.435   8.126 -0.1177 -0.0270  0.1865
    4loPI   C6A   60   5.537  13.707   7.889  0.1843 -0.1021  0.0764
    4loPI   C1B   61   5.598  13.946   9.817  0.1369 -0.0980  0.4423
    4loPI   C2B   62   5.598  14.004   9.288  0.2048  0.2324  0.0078
    4loPI   C3B   63   5.579  14.031   8.862 -0.1988  0.1519 -0.3327
    4loPI   C4B   64   5.367  13.862   8.512  0.0540 -0.1129  0.1499
    5loPI    C1   65  15.276  12.438   9.863 -0.0106  0.1340 -0.0201
    5loPI    C2   66  15.619  12.325  10.036 -0.0445  0.1951  0.0884
    5loPI    C3   67  15.340  12.516  10.250 -0.1666  0.1037  0.0125
    5loPI   PO4   68  15.307  12.436   9.582 -0.0002  0.0349 -0.1969
    5loPI   GL1   69  15.243  12.117   9.364 -0.2607 -0.4234  0.1001
    5loPI   GL2   70  15.070  11.859   9.289  0.0339  0.0203  0.1120
    5loPI   C1A   71  15.279  12.135   8.916 -0.1313  0.3241 -0.2552
    5loPI   C2A   72  15.370  11.933   8.591 -0.1328  0.1592  0.0199
    5loPI   C3A   73  15.531  11.980   8.185  0.1829  0.0745 -0.1185
    5loPI   C4A   74  15.570  12.020   7.683  0.1531  0.1274 -0.0447
    5loPI   C5A   75  15.310  11.657   7.259 -0.0249  0.3143 -0.0461
    5loPI   C6A   76  15.003  11.422   7.065  0.0206 -0.1081 -0.0222
    5loPI   C1B   77  14.992  11.691   8.834  0.1510 -0.1684  0.2114
    5loPI   C2B   78  14.805  11.737   8.534 -0.0518 -0.2364  0.3046
    5loPI   C3B   79  14.941  11.802   8.121  0.0664  0.0953 -0.2155
    5loPI   C4B   80  14.899  11.791   7.624 -0.2366  0.0104 -0.3349
    6loPI    C1   81   7.183   8.576  10.786 -0.0118 -0.2175  0.0315
    6loPI    C2   82   7.186   8.956  10.662  0.0570 -0.1908  0.1140
    6loPI    C3   83   7.191   8.874  11.053  0.3046 -0.2790  0.0940
    6loPI   PO4   84   7.276   8.482  10.475  0.0129 -0.3510 -0.2671
    6loPI   GL1   85   7.421   8.551  10.169  0.0314  0.0799  0.2458
    6loPI   GL2   86   7.264   8.913  10.137  0.0126  0.0716 -0.3139
    6loPI   C1A   87   7.368   8.425   9.711 -0.0189  0.2715  0.2732
    6loPI   C2A   88   7.268   8.501   9.166 -0.0792 -0.0377 -0.1954
    6loPI   C3A   89   7.308   8.455   8.784  0.2590  0.1924  0.0789
    6loPI   C4A   90   7.275   8.526   8.307  0.3582 -0.0050  0.0203
    6loPI   C5A   91   7.071   8.720   7.938  0.1100  0.0399 -0.0562
    6loPI   C6A   92   6.806   8.674   7.542 -0.0433  0.2489  0.0883
    6loPI   C1B   93   7.233   8.911   9.670 -0.4423  0.1787 -0.1438
    6loPI   C2B   94   7.286   8.962   9.283  0.2506  0.0499 -0.0171
    6loPI   C3B   95   7.221   8.907   8.841 -0.2440  0.1548 -0.0175
    6loPI   C4B   96   7.270   9.053   8.532 -0.2287  0.0887 -0.0482
    7loPI    C1   97   5.512   4.989  11.397  0.0045  0.1818 -0.0664
    7loPI    C2   98   5.242   4.929  11.107 -0.1215  0.0948  0.0674
    7loPI    C3   99   5.246   4.692  11.429 -0.0124  0.2199  0.1597
    7loPI   PO4  100   5.696   5.104  11.278  0.1657  0.0596  0.2359
    7loPI   GL1  101   5.904   4.966  10.900  0.1264 -0.0602  0.0316
    7loPI   GL2  102   5.677   4.708  10.855 -0.0931 -0.2151  0.1922
    7loPI   C1A  103   5.932   5.000  10.443 -0.1880  0.2110 -0.1133
    7loPI   C2A  104   6.024   5.024  10.048 -0.0137 -0.0061  0.0256
    7loPI   C3A  105   5.964   5.120   9.591 -0.1141  0.0049  0.2206
    7loPI   C4A  106   6.019   5.062   9.172  0.1485  0.0666 -0.1647
    7loPI   C5A  107   6.050   5.070   8.759  0.1081  0.1405  0.2029
    7loPI   C6A  108   6.390   5.238   8.395 -0.0570 -0.0815 -0.0631
    7loPI   C1B  109   5.491   4.732  10.516 -0.0921  0.1389  0.0320
    7loPI   C2B  110   5.636   4.771  10.067  0.1955  0.0956 -0.0403
    7loPI   C3B  111   5.616   4.764   9.681  0.0343  0.2098 -0.2937
    7loPI   C4B  112   5.646   4.759   9.208  0.0014 -0.2558  0.0377
    8loPI    C1  113  18.142  15.778   9.571 -0.1379 -0.2697 -0.0183
    8loPI    C2  114  18.432  15.987   9.750 -0.3255 -0.1593  0.1614
    8loPI    C3  115  18.523  15.728   9.459 -0.0648 -0.0112  0.1075
    8loPI   PO4  116  17.956  15.851   9.470  0.0283 -0.3406  0.0553
    8loPI   GL1  117  18.054  15.889   9.032  0.2306 -0.3703  0.0851
    8loPI   GL2  118  18.070  16.195   8.980  0.1940  0.1549 -0.3032
    8loPI   C1A  119  18.065  15.700   8.634  0.0587 -0.0814 -0.0979
    8loPI   C2A  120  17.974  15.599   8.228  0.1061 -0.1677 -0.0960
    8loPI   C3A  121  18.160  15.463   7.793  0.1592  0.0569  0.1053
    8loPI   C4A  122  18.188  15.067   7.662 -0.0204  0.1658 -0.0821
    8loPI   C5A  123  18.404  14.807   7.487  0.0317  0.0071  0.0146
    8loPI   C6A  124  18.280  14.514   7.350 -0.0343 -0.1499  0.3204
    8loPI   C1B  125  18.141  16.154   8.510  0.0337  0.0383  0.0192
    8loPI   C2B  126  18.007  16.189   8.125 -0.1678  0.2195  0.2063
    8loPI   C3B  127  17.938  16.366   7.655 -0.1025  0.3905 -0.1390
    8loPI   C4B  128  18.229  16.522   7.230  0.1673 -0.0662  0.0442
    9loPI    C1  129   2.863   5.248  10.649 -0.0804 -0.2245  0.1768
    9loPI    C2  130   2.964   5.268  11.036 -0.0878 -0.1483  0.1750
    9loPI    C3  131   2.770   5.573  10.864  0.2111 -0.0379  0.0268
    9loPI   PO4  132   3.159   5.223  10.563  0.3209 -0.0661  0.0761
    9loPI   GL1  133   3.237   5.299  10.196 -0.1015  0.2461 -0.3831
    9loPI   GL2  134   2.904   5.029  10.155 -0.0323  0.2509 -0.0287
    9loPI   C1A  135   3.212   5.201   9.725 -0.0645  0.1825  0.0753
    9loPI   C2A  136   3.296   5.203   9.270  0.2360  0.0050 -0.3094
    9loPI   C3A  137   3.330   5.074   8.900 -0.3450  0.1278  0.2728
    9loPI   C4A  138   3.472   5.196   8.429  0.1437 -0.2091 -0.1601
    9loPI   C5A  139   3.199   5.222   8.145 -0.0292  0.3372  0.3051
    9loPI   C6A  140   2.903   5.025   7.834  0.1811 -0.0024 -0.1530
    9loPI   C1B  141   2.774   4.923   9.695  0.0406  0.1104 -0.0476
    9loPI   C2B  142   2.886   4.867   9.277  0.1427 -0.0262  0.2514
    9loPI   C3B  143   2.925   4.822   8.863 -0.0742 -0.0472 -0.0323
    9loPI   C4B  144   2.924   4.808   8.451  0.2004 -0.1092 -0.0261
   10loPI    C1  145  16.670   9.153  10.193  0.0379 -0.1504  0.0649
   10loPI    C2  146  16.576   8.973  10.538 -0.1185 -0.1835  0.0056
   10loPI    C3  147  16.358   8.903  10.209 -0.1557  0.0811 -0.0279
   10loPI   PO4  148  16.907   9.147  10.125 -0.2086  0.3563  0.2485
   10loPI   GL1  149  17.185   9.094   9.717 -0.0099  0.2410 -0.4392
   10loPI   GL2  150  16.962   8.810   9.568 -0.1348 -0.1981 -0.2628
   10loPI   C1A  151  17.366   9.336   9.383  0.1827  0.2523 -0.0210
   10loPI   C2A  152  17.395   9.286   8.918  0.0203 -0.1596  0.1433
   10loPI   C3A  153  17.473   9.250   8.527 -0.1906  0.1423 -0.0003
   10loPI   C4A  154  17.494   9.357   8.114  0.1335  0.0541 -0.0617
   10loPI   C5A  155  17.350   8.935   7.824  0.1448 -0.0290 -0.0594
   10loPI   C6A  156  17.121   8.805   7.487  0.0511 -0.1208  0.0987
   10loPI   C1B  157  17.026   8.853   9.170  0.2428 -0.1612  0.3491
   10loPI   C2B  158  16.988   8.972   8.773 -0.3823 -0.2212  0.3157
   10loPI   C3B  159  17.035   9.075   8.373  0.1519 -0.0195  0.0148
   10loPI   C4B  160  16.876   8.982   7.930  0.2061  0.1446  0.2774
   11loPI    C1  161  10.420   9.859  10.377 -0.0045  0.0096 -0.0319
   11loPI    C2  162  10.809   9.907  10.458  0.0309 -0.2183 -0.0615
   11loPI    C3  163  10.564   9.756  10.736 -0.0479 -0.0250 -0.0245
   11loPI   PO4  164  10.466   9.978  10.113 -0.3025  0.0948  0.0795
   11loPI   GL1  165  10.633  10.225   9.872  0.0078 -0.5379 -0.2449
   11loPI   GL2  166  10.888  10.223  10.048 -0.0901 -0.2735  0.2435
   11loPI   C1A  167  10.720  10.026   9.528 -0.2491  0.1791  0.2016
   11loPI   C2A  168  10.726  10.009   9.047 -0.1225 -0.1513 -0.1912
   11loPI   C3A  169  10.840  10.093   8.615  0.0444  0.0004  0.1956
   11loPI   C4A  170  10.770   9.977   8.149  0.0287 -0.0767  0.3028
   11loPI   C5A  171  10.830  10.066   7.786 -0.0114  0.1314 -0.0834
   11loPI   C6A  172  10.740  10.032   7.295  0.0037  0.1340  0.1863
   11loPI   C1B  173  11.224  10.124   9.813  0.1094 -0.0456  0.1887
   11loPI   C2B  174  11.173  10.089   9.298  0.0091 -0.0401  0.0481
   11loPI   C3B  175  11.255   9.956   8.921  0.0485 -0.0221 -0.2189
   11loPI   C4B  176  11.283   9.825   8.511  0.2585  0.0656 -0.0888
   12loPI    C1  177  15.632  15.194   9.747 -0.1637  0.1609 -0.0517
   12loPI    C2  178  15.961  15.076   9.551 -0.0206  0.2316  0.1426
   12loPI    C3  179  15.867  14.910   9.903 -0.0950  0.3394  0.1740
   12loPI   PO4  180  15.541  15.399   9.635 -0.0898 -0.0385 -0.1483
   12loPI   GL1  181  15.412  15.602   9.263 -0.1501  0.0948  0.0472
   12loPI   GL2  182  15.774  15.500   9.163 -0.3262 -0.2230  0.2924
   12loPI   C1A  183  15.504  15.352   8.734 -0.0937 -0.1688 -0.1726
   12loPI   C2A  184  15.529  15.436   8.271  0.1010  0.3101 -0.3932
   12loPI   C3A  185  15.462  15.515   7.863  0.0130  0.4820  0.3013
   12loPI   C4A  186  15.305  15.769   7.536 -0.1492  0.0923 -0.2427
   12loPI   C5A  187  15.025  16.057   7.381  0.2815 -0.2577 -0.0220
   12loPI   C6A  188  14.714  16.243   7.415  0.0224 -0.0690 -0.1202
   12loPI   C1B  189  16.025  15.539   8.787  0.1984 -0.0141 -0.3831
   12loPI   C2B  190  16.045  15.441   8.400 -0.2928 -0.0600 -0.0367
   12loPI   C3B  191  16.027  15.655   7.949  0.0389  0.2283 -0.0198
   12loPI   C4B  192  15.838  15.690   7.557 -0.1431  0.1119  0.2008
   13loPI    C1  193  18.192   8.554  10.892  0.0474 -0.3946 -0.0827
   13loPI    C2  194  18.502   8.707  11.093 -0.1947  0.2106 -0.1487
   13loPI    C3  195  18.171   8.596  11.289 -0.0959 -0.0488 -0.1239
   13loPI   PO4  196  18.260   8.473  10.604  0.1574  0.0909 -0.0395
   13loPI   GL1  197  18.569   8.394  10.245 -0.3603 -0.3904  0.1115
   13loPI   GL2  198  18.965   8.342  10.218 -0.0699  0.3883  0.2300
   13loPI   C1A  199  18.501   8.534   9.721  0.3857  0.3119  0.0835
   13loPI   C2A  200  18.353   8.440   9.434  0.0506  0.0598 -0.1503
   13loPI   C3A  201  18.493   8.338   9.027  0.2616  0.0659  0.2337
   13loPI   C4A  202  18.501   8.327   8.712  0.2644 -0.1028 -0.1295
   13loPI   C5A  203  18.431   8.339   8.215  0.0571 -0.0243  0.0816
   13loPI   C6A  204  18.371   8.219   7.802  0.2594  0.0266 -0.0285
   13loPI   C1B  205  18.946   8.329   9.696 -0.0898 -0.1440  0.0148
   13loPI   C2B  206  18.933   8.200   9.284 -0.0703  0.0645 -0.2493
   13loPI   C3B  207  19.051   8.218   8.827 -0.2515  0.1603  0.2369
   13loPI   C4B  208  18.865   8.171   8.486 -0.2204 -0.1270 -0.0820
   14loPI    C1  209   6.606   9.636  10.965  0.2149  0.0382  0.0178
   14loPI    C2  210   6.875   9.343  11.008  0.0711 -0.0532  0.3194
   14loPI    C3  211   6.829   9.617  11.296  0.0907  0.1730  0.1104
   14loPI   PO4  212   6.573   9.658  10.711  0.2167  0.0086  0.1733
   14loPI   GL1  213   6.524   9.639  10.244  0.1333 -0.3093  0.1590
   14loPI   GL2  214   6.304   9.418  10.293 -0.2165 -0.2153 -0.0050
   14loPI   C1A  215   6.670   9.618   9.882  0.0203 -0.0464  0.2411
   14loPI   C2A  216   6.622   9.671   9.367 -0.0404 -0.1680  0.0207
   14loPI   C3A  217   6.786   9.626   8.936  0.0666  0.0035  0.1704
   14loPI   C4A  218   6.928   9.555   8.545  0.2185  0.1293 -0.1845
   14loPI   C5A  219   7.174   9.405   8.210  0.2198  0.0969 -0.1898
   14loPI   C6A  220   7.006   9.231   7.763  0.1558 -0.2726 -0.2567
   14loPI   C1B  221   6.180   9.413   9.782 -0.1270 -0.1572 -0.1450
   14loPI   C2B  222   6.261   9.295   9.388  0.1969  0.2389 -0.0783
   14loPI   C3B  223   6.357   9.301   8.887  0.1926 -0.0347 -0.1169
   14loPI   C4B  224   6.495   9.387   8.440  0.2394 -0.1067  0.0127
   15loPI    C1  225   0.737  14.457  10.151  0.0439 -0.1562  0.1030
   15loPI    C2  226   0.974  14.412  10.471 -0.0939 -0.1753  0.2035
   15loPI    C3  227   0.594  14.528  10.518 -0.0675 -0.0149  0.0333
   15loPI   PO4  228   0.941  14.512   9.982 -0.1441 -0.2050 -0.0737
   15loPI   GL1  229   1.029  14.781   9.584  0.1146  0.2098  0.0468
   15loPI   GL2  230   0.803  14.804   9.490 -0.0537  0.4756 -0.0114
   15loPI   C1A  231   1.271  14.706   9.238  0.1215 -0.0734 -0.0326
   15loPI   C2A  232   1.285  14.557   8.872 -0.3281 -0.0028 -0.4381
   15loPI   C3A  233   1.254  14.150   8.466  0.0694  0.1447 -0.0381
   15loPI   C4A  234   1.339  13.821   8.152 -0.0516  0.0353 -0.1593
   15loPI   C5A  235   1.157  13.438   7.891 -0.0469  0.2437  0.2015
   15loPI   C6A  236   1.102  13.171   7.584  0.0144  0.0764 -0.3404
   15loPI   C1B  237   0.791  15.056   9.145 -0.3660  0.1430 -0.0458
   15loPI   C2B  238   1.028  15.045   8.896  0.0728  0.2947  0.0738
   15loPI   C3B  239   1.301  15.114   8.530  0.2116 -0.0539 -0.0789
   15loPI   C4B  240   1.739  15.257   8.446 -0.0481 -0.0055  0.0325
   16loPI    C1  241  18.047   6.736  10.850  0.3386  0.1786  0.1881
   16loPI    C2  242  17.764   6.611  11.104  0.2124 -0.2384 -0.1461
   16loPI    C3  243  18.151   6.553  11.190  0.1715 -0.3551 -0.0375
   16loPI   PO4  244  17.929   6.654  10.584 -0.1246  0.0783 -0.0960
   16loPI   GL1  245  18.073   6.800  10.188 -0.0662  0.0410  0.3467
   16loPI   GL2  246  18.221   7.093  10.179  0.0453 -0.0421 -0.3706
   16loPI   C1A  247  18.237   6.673   9.881  0.2678  0.2044  0.0423
   16loPI   C2A  248  18.233   6.574   9.428  0.2213 -0.0100 -0.3160
   16loPI   C3A  249  18.274   6.542   8.990 -0.0216  0.1582 -0.0294
   16loPI   C4A  250  18.251   6.469   8.604 -0.2258 -0.0376 -0.1103
   16loPI   C5A  251  18.025   6.345   8.171  0.0001 -0.3969  0.1107
   16loPI   C6A  252  17.979   6.199   7.716 -0.0248  0.1326 -0.0948
   16loPI   C1B  253  18.233   7.169   9.765 -0.0860  0.2247 -0.0462
   16loPI   C2B  254  18.225   7.049   9.314 -0.0643  0.0254 -0.2188
   16loPI   C3B  255  18.280   7.099   8.823 -0.2433  0.5078 -0.1277
   16loPI   C4B  256  18.143   6.988   8.384 -0.2240  0.1098 -0.0150
   17loPI    C1  257   2.610  12.335  10.149  0.3763 -0.0794 -0.0094
   17loPI    C2  258   2.529  12.272  10.536  0.1086 -0.1600 -0.0766
   17loPI    C3  259   2.644  12.635  10.412  0.0608 -0.0986  0.0566
   17loPI   PO4  260   2.359  12.238  10.018  0.1696 -0.0352 -0.0622
   17loPI   GL1  261   2.172  11.958   9.701 -0.1180 -0.1980  0.0778
   17loPI   GL2  262   1.987  11.764   9.752  0.3448  0.3875 -0.4985
   17loPI   C1A  263   2.208  12.025   9.244  0.2738 -0.0951  0.3512
   17loPI   C2A  264   2.160  12.025   8.833 -0.0263 -0.0532 -0.0367
   17loPI   C3A  265   2.321  12.043   8.449  0.0661  0.1708 -0.0223
   17loPI   C4A  266   2.379  11.874   8.072  0.3817  0.0579 -0.0261
   17loPI   C5A  267   2.339  11.990   7.770  0.3242 -0.0383  0.1715
   17loPI   C6A  268   2.126  12.298   7.649  0.0760  0.0538  0.0061
   17loPI   C1B  269   1.795  11.765   9.448  0.0866  0.0417  0.1018
   17loPI   C2B  270   1.729  11.584   9.106 -0.2929  0.4498 -0.2348
   17loPI   C3B  271   1.930  11.542   8.562  0.2482  0.1988  0.1832
   17loPI   C4B  272   1.942  11.447   8.120  0.1865 -0.2403 -0.0622
   18loPI    C1  273   8.540   3.094  11.037  0.0675  0.2549 -0.0435
   18loPI    C2  274   8.360   2.918  11.348  0.5133 -0.0304  0.0631
   18loPI    C3  275   8.248   3.285  11.233  0.0041 -0.1219  0.2401
   18loPI   PO4  276   8.593   3.050  10.830  0.3952  0.2024  0.2234
   18loPI   GL1  277   8.435   3.012  10.422 -0.2960 -0.2689  0.2142
   18loPI   GL2  278   8.442   2.695  10.400  0.0984  0.2491  0.2855
   18loPI   C1A  279   8.600   3.121   9.947  0.0359  0.0104 -0.0744
   18loPI   C2A  280   8.612   3.108   9.502  0.0657 -0.2130  0.1972
   18loPI   C3A  281   8.599   3.174   9.046  0.1193  0.3082 -0.1033
   18loPI   C4A  282   8.685   3.187   8.570 -0.0373 -0.1297  0.0384
   18loPI   C5A  283   8.727   3.196   8.096  0.1017  0.1397  0.2534
   18loPI   C6A  284   8.709   2.951   7.672  0.1583 -0.1596  0.0869
   18loPI   C1B  285   8.292   2.729   9.995  0.0403  0.3123 -0.1961
   18loPI   C2B  286   8.233   2.768   9.460 -0.1430  0.0814 -0.0719
   18loPI   C3B  287   8.222   2.784   9.055  0.1839 -0.1144  0.1807
   18loPI   C4B  288   8.248   2.864   8.588 -0.0603 -0.0218  0.2987
   19loPI    C1  289  17.116  18.007   9.932 -0.0396  0.2242  0.0919
   19loPI    C2  290  16.880  17.934  10.247 -0.0553  0.2176  0.0786
   19loPI    C3  291  17.276  17.883  10.277 -0.0764  0.0257  0.0385
   19loPI   PO4  292  17.055  17.895   9.707 -0.1834  0.1605 -0.2363
   19loPI   GL1  293  16.876  18.143   9.344 -0.1743  0.1975  0.1230
   19loPI   GL2  294  16.746  17.796   9.310  0.1415 -0.0816 -0.1214
   19loPI   C1A  295  16.914  18.218   8.868  0.0497 -0.0949  0.0678
   19loPI   C2A  296  17.090  18.116   8.442  0.0820 -0.0558 -0.1209
   19loPI   C3A  297  17.178  18.205   8.027 -0.0864 -0.0158  0.1306
   19loPI   C4A  298  17.204  18.326   7.606 -0.3240  0.2996 -0.1136
   19loPI   C5A  299  17.440  18.302   7.252 -0.1058  0.2818 -0.3720
   19loPI   C6A  300  17.301  18.298   6.847 -0.0014  0.2409  0.1836
   19loPI   C1B  301  16.588  17.867   8.939 -0.1472  0.1957  0.0228
   19loPI   C2B  302  16.667  17.871   8.547  0.1041 -0.0891  0.0691
   19loPI   C3B  303  16.804  17.789   8.170  0.1307 -0.0082  0.0040
   19loPI   C4B  304  16.767  17.535   7.856 -0.2624  0.0912 -0.0777
   20loPI    C1  305   6.889  13.611  10.973 -0.0207  0.0544  0.0816
   20loPI    C2  306   7.222  13.532  11.182  0.1108  0.0931 -0.1108
   20loPI    C3  307   6.869  13.557  11.369  0.1619 -0.2962  0.0472
   20loPI   PO4  308   6.940  13.628  10.697  0.1541 -0.2988 -0.1581
   20loPI   GL1  309   6.836  13.381  10.383 -0.1812 -0.0473  0.0605
   20loPI   GL2  310   6.589  13.265  10.273 -0.0700 -0.6070  0.2144
   20loPI   C1A  311   7.088  13.384  10.046  0.1079  0.1106  0.1129
   20loPI   C2A  312   7.136  13.445   9.616 -0.3203 -0.2788  0.0012
   20loPI   C3A  313   7.190  13.497   9.248  0.0211  0.0074 -0.0358
   20loPI   C4A  314   7.105  13.402   8.796 -0.1496  0.3080  0.0387
   20loPI   C5A  315   6.939  13.284   8.314 -0.0035  0.0639  0.1567
   20loPI   C6A  316   7.149  13.540   8.022 -0.2943 -0.0232 -0.0567
   20loPI   C1B  317   6.685  13.055   9.915  0.2912  0.0951 -0.0597
   20loPI   C2B  318   6.609  13.157   9.416  0.2483 -0.0898  0.0830
   20loPI   C3B  319   6.643  13.105   9.024 -0.4199  0.0089  0.2285
   20loPI   C4B  320   6.551  13.031   8.562 -0.4287  0.1385  0.0402
   21loPI    C1  321   7.077  14.145  10.769  0.0781  0.2404 -0.0229
   21loPI    C2  322   7.127  14.466  11.003  0.2936 -0.0551  0.3493
   21loPI    C3  323   7.147  14.099  11.160  0.0233 -0.2561 -0.0650
   21loPI   PO4  324   6.892  14.193  10.673 -0.2771  0.0608 -0.0135
   21loPI   GL1  325   6.794  14.333  10.353  0.1809 -0.2221  0.0849
   21loPI   GL2  326   6.495  14.194  10.145  0.1708 -0.0393 -0.1618
   21loPI   C1A  327   6.999  14.360  10.070  0.2148  0.1196  0.0563
   21loPI   C2A  328   7.014  14.469   9.639  0.4894 -0.0307 -0.0389
   21loPI   C3A  329   6.911  14.330   9.314  0.4751 -0.0446  0.0035
   21loPI   C4A  330   7.057  14.410   8.935  0.1420  0.2017 -0.0239
   21loPI   C5A  331   7.002  14.467   8.495  0.0443  0.1239 -0.0605
   21loPI   C6A  332   7.330  14.645   8.082 -0.1134 -0.0581 -0.2040
   21loPI   C1B  333   6.502  14.055   9.683  0.1843  0.2499  0.1167
   21loPI   C2B  334   6.489  14.156   9.197  0.0696 -0.3846 -0.0288
   21loPI   C3B  335   6.545  14.178   8.732  0.0840  0.1301  0.1417
   21loPI   C4B  336   6.413  14.064   8.351 -0.1718 -0.1996  0.0676
   22loPI    C1  337   6.331   2.594  11.168 -0.2845 -0.1581 -0.0937
   22loPI    C2  338   6.294   2.761  11.530 -0.0681 -0.1728 -0.0635
   22loPI    C3  339   6.170   2.959  11.206 -0.0228 -0.0489 -0.0058
   22loPI   PO4  340   6.252   2.421  11.137 -0.0777 -0.1912  0.1148
   22loPI   GL1  341   6.212   2.343  10.652 -0.1322  0.2531 -0.1166
   22loPI   GL2  342   6.483   2.436  10.373  0.0973 -0.1720  0.1296
   22loPI   C1A  343   6.035   2.532  10.268  0.0063 -0.1131  0.0354
   22loPI   C2A  344   6.046   2.615   9.880  0.0106  0.0198  0.3881
   22loPI   C3A  345   5.964   2.659   9.454  0.3285  0.3696 -0.0085
   22loPI   C4A  346   5.987   2.710   9.049  0.1630  0.1059  0.1692
   22loPI   C5A  347   5.934   2.591   8.718 -0.0437 -0.1289  0.2251
   22loPI   C6A  348   6.203   2.280   8.494 -0.0462  0.0478  0.1349
   22loPI   C1B  349   6.533   2.436   9.969 -0.0216  0.3959 -0.0122
   22loPI   C2B  350   6.417   2.459   9.601 -0.0519 -0.0402 -0.3057
   22loPI   C3B  351   6.468   2.388   9.203 -0.1199  0.0553  0.0174
   22loPI   C4B  352   6.427   2.578   8.833 -0.2146 -0.0519 -0.0257
   23loPI    C1  353  18.427   2.686  10.547  0.2834 -0.0119 -0.2180
   23loPI    C2  354  18.505   2.326  10.703  0.0539  0.1399  0.2667
   23loPI    C3  355  18.233   2.564  10.875 -0.2070  0.3248 -0.3707
   23loPI   PO4  356  18.626   2.779  10.453  0.0913  0.3502 -0.0376
   23loPI   GL1  357  18.676   2.831  10.099  0.2210  0.0873 -0.0496
   23loPI   GL2  358  18.333   2.688   9.960  0.0495  0.2302 -0.2274
   23loPI   C1A  359  18.809   2.994   9.714 -0.2082  0.1114 -0.3808
   23loPI   C2A  360  18.890   2.932   9.407 -0.0540  0.1126  0.1157
   23loPI   C3A  361  18.966   2.873   8.931 -0.3057  0.0892 -0.1043
   23loPI   C4A  362  19.015   3.023   8.500 -0.1216 -0.1960  0.0925
   23loPI   C5A  363  18.992   3.233   8.079 -0.0589  0.0072  0.2792
   23loPI   C6A  364  18.916   3.613   7.911 -0.0931 -0.2554  0.0652
   23loPI   C1B  365  18.454   2.622   9.538  0.1534 -0.1486 -0.2201
   23loPI   C2B  366  18.428   2.599   9.162  0.0424  0.3081  0.1412
   23loPI   C3B  367  18.515   2.640   8.758 -0.1455 -0.0810 -0.0080
   23loPI   C4B  368  18.526   2.548   8.277 -0.2627  0.0582 -0.0188
   24loPI    C1  369   1.224  18.049  10.503 -0.0547 -0.0487  0.1259
   24loPI    C2  370   1.004  18.302  10.721 -0.0711  0.0833 -0.0414
   24loPI    C3  371   1.072  17.931  10.853  0.0850  0.2230  0.2818
   24loPI   PO4  372   1.036  17.966  10.290 -0.0314 -0.1934  0.1319
   24loPI   GL1  373   1.114  17.637  10.013 -0.1641 -0.0025  0.1688
   24loPI   GL2  374   1.407  17.707  10.089  0.1102 -0.1927 -0.0923
   24loPI   C1A  375   1.150  17.565   9.604 -0.0626  0.0827 -0.3008
   24loPI   C2A  376   1.387  17.577   9.288  0.1290 -0.0425  0.1660
   24loPI   C3A  377   1.639  17.619   8.996 -0.0415  0.0732  0.2291
   24loPI   C4A  378   1.576  17.781   8.594  0.1062  0.1072  0.1125
   24loPI   C5A  379   1.749  17.717   8.156 -0.0395 -0.1910 -0.0098
   24loPI   C6A  380   1.932  18.021   7.968  0.0287 -0.1494  0.1174
   24loPI   C1B  381   1.677  17.700   9.697  0.0655 -0.0506  0.1082
   24loPI   C2B  382   1.955  17.911   9.375 -0.0830 -0.0827 -0.2096
   24loPI   C3B  383   1.952  17.983   8.850  0.0575  0.2488  0.2532
   24loPI   C4B  384   2.049  17.920   8.495  0.1115  0.1038  0.1750
   25loPI    C1  385   6.735  17.134  11.147 -0.0332 -0.1606 -0.0682
   25loPI    C2  386   6.978  16.821  11.202  0.0234 -0.0853  0.1156
   25loPI    C3  387   6.896  17.066  11.507 -0.2024 -0.0513  0.0290
   25loPI   PO4  388   6.883  17.275  10.959 -0.2333  0.2398 -0.0552
   25loPI   GL1  389   6.911  17.370  10.616 -0.1155 -0.1431 -0.0375
   25loPI   GL2  390   6.917  17.654  10.440 -0.2822 -0.1932  0.1070
   25loPI   C1A  391   7.015  17.154  10.264  0.0211 -0.1769  0.0370
   25loPI   C2A  392   7.050  17.164   9.808 -0.0089 -0.0795 -0.0643
   25loPI   C3A  393   7.065  17.272   9.363  0.2032 -0.2622 -0.0482
   25loPI   C4A  394   7.008  17.358   9.021  0.1115 -0.0965  0.1103
   25loPI   C5A  395   6.965  17.274   8.605 -0.1140 -0.1958 -0.0344
   25loPI   C6A  396   6.700  17.186   8.338 -0.2228 -0.0634 -0.0364
   25loPI   C1B  397   6.922  17.592   9.989  0.1173 -0.0961  0.2421
   25loPI   C2B  398   6.951  17.677   9.591 -0.1954  0.4532 -0.0558
   25loPI   C3B  399   6.959  17.841   9.198  0.1728  0.0454  0.0341
   25loPI   C4B  400   7.010  17.801   8.810  0.0528 -0.1234  0.1659
   26loPI    C1  401  12.746  18.000   9.811 -0.2708  0.1353 -0.1525
   26loPI    C2  402  12.681  17.668  10.025 -0.1707  0.0032 -0.3242
   26loPI    C3  403  12.716  18.022  10.209 -0.3527 -0.0696 -0.1459
   26loPI   PO4  404  12.926  17.940   9.695  0.0128 -0.0421 -0.0845
   26loPI   GL1  405  13.088  18.056   9.324 -0.0450 -0.2467 -0.0207
   26loPI   GL2  406  13.095  18.329   9.326 -0.0496  0.3280  0.1194
   26loPI   C1A  407  12.712  18.051   9.032  0.0041  0.1066 -0.0054
   26loPI   C2A  408  12.604  18.153   8.753  0.0798 -0.2357 -0.3209
   26loPI   C3A  409  12.504  18.161   8.399 -0.1365 -0.0428 -0.0949
   26loPI   C4A  410  12.388  18.158   7.946  0.2310  0.0788 -0.2644
   26loPI   C5A  411  12.275  18.002   7.652  0.3182 -0.3063 -0.4745
   26loPI   C6A  412  11.924  17.826   7.463 -0.3026 -0.1232 -0.2884
   26loPI   C1B  413  13.031  18.401   8.910  0.0321  0.0449  0.0739
   26loPI   C2B  414  12.882  18.480   8.531 -0.1957 -0.2592  0.0412
   26loPI   C3B  415  12.714  18.531   8.160  0.0071  0.0426 -0.0103
   26loPI   C4B  416  12.667  18.536   7.770 -0.2043 -0.1125 -0.0932
   27loPI    C1  417  16.054   6.755  10.616 -0.3569  0.1287  0.1218
   27loPI    C2  418  16.121   6.924  10.973 -0.1185 -0.0334  0.1566
   27loPI    C3  419  16.041   6.533  10.948 -0.3646  0.0216  0.0502
   27loPI   PO4  420  16.251   6.906  10.427 -0.0092  0.0355  0.0631
   27loPI   GL1  421  16.393   6.878  10.009  0.0731 -0.2069 -0.3213
   27loPI   GL2  422  16.182   6.640  10.034 -0.0717  0.0556 -0.0243
   27loPI   C1A  423  16.446   6.948   9.605  0.0175  0.0312 -0.0460
   27loPI   C2A  424  16.399   6.832   9.125 -0.0250  0.1151 -0.0658
   27loPI   C3A  425  16.337   6.797   8.726  0.0544 -0.0889 -0.0981
   27loPI   C4A  426  16.386   6.693   8.303 -0.0423  0.0020 -0.0743
   27loPI   C5A  427  16.230   6.627   7.933 -0.0037  0.1192  0.0421
   27loPI   C6A  428  16.216   6.855   7.541 -0.3340 -0.1891  0.0612
   27loPI   C1B  429  16.143   6.553   9.539  0.4380 -0.0609 -0.2996
   27loPI   C2B  430  16.018   6.458   9.178 -0.2662 -0.1150 -0.0371
   27loPI   C3B  431  15.914   6.467   8.720  0.3346 -0.2572 -0.2324
   27loPI   C4B  432  15.904   6.480   8.316 -0.0574  0.0380 -0.1976
   28loPI    C1  433   2.165   2.699  10.997 -0.2821 -0.0137 -0.4018
   28loPI    C2  434   2.054   2.355  11.170 -0.1403  0.0880 -0.1023
   28loPI    C3  435   1.795   2.659  11.144 -0.1207  0.1189  0.0564
   28loPI   PO4  436   2.267   2.693  10.689  0.0188 -0.1053  0.2641
   28loPI   GL1  437   2.104   2.517  10.299  0.1216  0.0143  0.4747
   28loPI   GL2  438   1.780   2.462  10.163 -0.2408  0.3909  0.3605
   28loPI   C1A  439   2.260   2.649   9.914  0.1752 -0.2282 -0.0945
   28loPI   C2A  440   2.304   2.680   9.509 -0.0221 -0.3070  0.3646
   28loPI   C3A  441   2.296   2.715   9.085  0.1730 -0.0580  0.0752
   28loPI   C4A  442   2.402   2.674   8.622 -0.1174 -0.2173 -0.1699
   28loPI   C5A  443   2.579   2.651   8.283  0.1128 -0.0460  0.1921
   28loPI   C6A  444   2.666   2.435   7.985 -0.1627 -0.0797  0.1109
   28loPI   C1B  445   1.808   2.415   9.662  0.0044 -0.0979 -0.2261
   28loPI   C2B  446   1.914   2.432   9.336  0.1764  0.2325 -0.0729
   28loPI   C3B  447   1.948   2.481   8.848 -0.0049  0.3855 -0.1105
   28loPI   C4B  448   1.876   2.329   8.353  0.0271 -0.0989  0.2593
   29loPI    C1  449   2.660   9.356  10.647 -0.0837 -0.1603  0.0006
   29loPI    C2  450   2.353   9.612  10.637  0.0456 -0.0054 -0.0469
   29loPI    C3  451   2.589   9.596  10.959  0.0721 -0.0236 -0.0672
   29loPI   PO4  452   2.637   9.230  10.439  0.5496  0.2292  0.2999
   29loPI   GL1  453   2.675   8.966  10.218 -0.0960  0.0849 -0.0618
   29loPI   GL2  454   2.374   8.842  10.206 -0.0774  0.0899 -0.1079
   29loPI   C1A  455   2.632   8.917   9.783  0.4090  0.0306 -0.0057
   29loPI   C2A  456   2.680   8.840   9.270 -0.2555 -0.3930 -0.2152
   29loPI   C3A  457   2.731   8.827   8.841  0.3605  0.0862  0.0579
   29loPI   C4A  458   2.671   9.163   8.444 -0.0752  0.2216  0.4405
   29loPI   C5A  459   2.684   9.290   8.059 -0.1502  0.2022  0.0590
   29loPI   C6A  460   2.494   9.577   7.663  0.1242 -0.2482  0.5038
   29loPI   C1B  461   2.159   9.096   9.913  0.2867  0.0000 -0.2110
   29loPI   C2B  462   2.129   9.071   9.485 -0.3657 -0.2147  0.0088
   29loPI   C3B  463   2.241   8.997   9.103  0.0349  0.0118 -0.3708
   29loPI   C4B  464   2.209   8.983   8.704 -0.2937 -0.2579 -0.0256
   30loPI    C1  465  16.570  10.851  10.362  0.0303  0.0250  0.0744
   30loPI    C2  466  16.763  10.830  10.711  0.1672 -0.1265 -0.0087
   30loPI    C3  467  16.562  10.513  10.575 -0.0683  0.0017  0.0342
   30loPI   PO4  468  16.791  10.981  10.133 -0.2114  0.0657 -0.2204
   30loPI   GL1  469  17.155  10.862   9.899 -0.0366  0.2332 -0.0722
   30loPI   GL2  470  16.802  11.053   9.669 -0.0507  0.0951 -0.0506
   30loPI   C1A  471  17.224  10.549   9.624  0.0185 -0.1167 -0.0405
   30loPI   C2A  472  17.255  10.345   9.234  0.0039 -0.3908 -0.2211
   30loPI   C3A  473  17.201  10.362   8.806 -0.4152 -0.1252 -0.3210
   30loPI   C4A  474  17.343  10.269   8.498 -0.1164  0.1580 -0.0233
   30loPI   C5A  475  17.410  10.353   8.011  0.2219  0.2401  0.2456
   30loPI   C6A  476  17.365  10.127   7.584  0.1536 -0.1086  0.2923
   30loPI   C1B  477  17.125  10.914   9.374  0.2406  0.1430  0.3019
   30loPI   C2B  478  17.150  10.820   8.964 -0.2106  0.1711  0.1034
   30loPI   C3B  479  17.298  10.806   8.570 -0.1399 -0.0983  0.5845
   30loPI   C4B  480  17.256  10.797   8.066 -0.2111 -0.2732 -0.0721
   31loPI    C1  481   7.491   3.886  11.623 -0.2947 -0.0583  0.3308
   31loPI    C2  482   7.324   3.524  11.595 -0.1289 -0.1174  0.0717
   31loPI    C3  483   7.668   3.571  11.794 -0.0129 -0.1522 -0.1183
   31loPI   PO4  484   7.468   3.972  11.264  0.1388 -0.1080  0.1577
   31loPI   GL1  485   7.537   4.065  10.783  0.2003 -0.2656 -0.0092
   31loPI   GL2  486   7.363   3.850  10.712  0.1699  0.1255 -0.1801
   31loPI   C1A  487   7.316   4.287  10.461  0.2050  0.1677  0.0160
   31loPI   C2A  488   7.409   4.420   9.985 -0.2059 -0.0120  0.0896
   31loPI   C3A  489   7.467   4.529   9.457  0.1616  0.1113  0.0741
   31loPI   C4A  490   7.427   4.520   9.059 -0.0427 -0.2439  0.1054
   31loPI   C5A  491   7.562   4.537   8.600  0.3259 -0.2750 -0.0912
   31loPI   C6A  492   7.213   4.464   8.336  0.4494 -0.3454  0.0864
   31loPI   C1B  493   7.561   3.935  10.225 -0.0122  0.0169  0.0372
   31loPI   C2B  494   7.555   3.948   9.798 -0.2890  0.1870  0.1776
   31loPI   C3B  495   7.507   3.995   9.328  0.1179 -0.0150 -0.1240
   31loPI   C4B  496   7.544   4.011   8.918 -0.0837 -0.3585  0.0978
   32loPI    C1  497  17.796  11.557  10.442 -0.0723 -0.1167  0.1211
   32loPI    C2  498  17.447  11.698  10.578 -0.1975 -0.1011 -0.2076
   32loPI    C3  499  17.764  11.679  10.822 -0.4084 -0.0536  0.0755
   32loPI   PO4  500  17.819  11.638  10.195  0.0974  0.2238  0.3656
   32loPI   GL1  501  17.704  11.440   9.804 -0.0439 -0.2334 -0.0077
   32loPI   GL2  502  17.565  11.105   9.888 -0.3064 -0.3302  0.2333
   32loPI   C1A  503  17.885  11.518   9.454  0.0607  0.0006  0.0485
   32loPI   C2A  504  17.914  11.450   9.112  0.0342 -0.4022 -0.3182
   32loPI   C3A  505  18.075  11.404   8.700  0.0299  0.1616 -0.0563
   32loPI   C4A  506  18.138  11.472   8.233  0.1856 -0.2325  0.0463
   32loPI   C5A  507  18.039  11.544   7.804  0.4103  0.0468  0.0935
   32loPI   C6A  508  18.411  11.685   7.601  0.0556 -0.0206  0.0190
   32loPI   C1B  509  17.611  10.883   9.565 -0.1612 -0.2202  0.0061
   32loPI   C2B  510  17.594  10.705   9.222  0.1213 -0.3052 -0.1232
   32loPI   C3B  511  17.642  10.579   8.837  0.0131 -0.1162  0.2753
   32loPI   C4B  512  17.675  10.642   8.351 -0.1538 -0.1280 -0.2055
   33loPI    C1  513   7.606  14.361  11.199 -0.2929  0.0732  0.0671
   33loPI    C2  514   7.544  14.755  11.173  0.3359  0.1763 -0.0316
   33loPI    C3  515   7.688  14.597  11.511 -0.0375  0.0055  0.0532
   33loPI   PO4  516   7.855  14.214  11.046 -0.1549 -0.0065  0.1766
   33loPI   GL1  517   7.944  14.158  10.670  0.0193  0.1942 -0.2334
   33loPI   GL2  518   8.323  14.179  10.425  0.3042 -0.0441 -0.1523
   33loPI   C1A  519   7.894  14.074  10.256  0.2081  0.0914  0.1442
   33loPI   C2A  520   8.021  14.064   9.856  0.1247  0.3191  0.0197
   33loPI   C3A  521   8.066  14.055   9.413 -0.0429 -0.1279 -0.1547
   33loPI   C4A  522   7.988  13.979   9.011 -0.0303 -0.0903  0.1732
   33loPI   C5A  523   7.899  14.027   8.638  0.0383 -0.1264 -0.2584
   33loPI   C6A  524   7.913  14.122   8.258  0.3631  0.3366 -0.3063
   33loPI   C1B  525   8.441  14.292   9.895  0.0981 -0.2971 -0.0091
   33loPI   C2B  526   8.469  14.368   9.448 -0.1685  0.1481 -0.0209
   33loPI   C3B  527   8.408  14.334   8.955  0.0615  0.0361  0.0985
   33loPI   C4B  528   8.281  14.362   8.486  0.0695 -0.0435  0.3581
   34loPI    C1  529  17.399   8.813  10.563  0.0425 -0.0797  0.1042
   34loPI    C2  530  17.033   8.702  10.681 -0.0017 -0.0979 -0.0478
   34loPI    C3  531  17.280   8.884  10.938 -0.1335 -0.0463  0.0430
   34loPI   PO4  532  17.378   8.877  10.340  0.1239  0.3643 -0.0239
   34loPI   GL1  533  17.481   8.834   9.965  0.0694  0.1417 -0.2114
   34loPI   GL2  534  17.522   8.505   9.899 -0.1619  0.0568 -0.2858
   34loPI   C1A  535  17.400   8.674   9.424 -0.0669  0.0312 -0.0819
   34loPI   C2A  536  17.520   8.747   9.114 -0.0889 -0.0749  0.0234
   34loPI   C3A  537  17.519   8.805   8.721  0.1277 -0.3818 -0.1883
   34loPI   C4A  538  17.471   8.819   8.352  0.0862 -0.0577  0.1237
   34loPI   C5A  539  17.599   8.571   8.013 -0.2424 -0.1355  0.0827
   34loPI   C6A  540  18.007   8.580   7.978 -0.1597  0.1378  0.1349
   34loPI   C1B  541  17.479   8.226   9.515 -0.2129  0.1448  0.1984
   34loPI   C2B  542  17.534   8.227   9.143  0.2593  0.1703  0.2920
   34loPI   C3B  543  17.549   8.310   8.712 -0.3102 -0.0675 -0.0042
   34loPI   C4B  544  17.582   8.153   8.284 -0.0549 -0.0545 -0.1412
   35loPI    C1  545   8.443   1.601  10.439  0.3723 -0.0966  0.1803
   35loPI    C2  546   8.188   1.811  10.664  0.2907  0.0984 -0.0879
   35loPI    C3  547   8.526   1.669  10.824  0.0704 -0.0674  0.2427
   35loPI   PO4  548   8.535   1.737  10.287 -0.2624  0.5593  0.2065
   35loPI   GL1  549   8.624   1.642   9.896 -0.0706 -0.2189  0.0695
   35loPI   GL2  550   8.606   1.333  10.021  0.4317  0.3080  0.0950
   35loPI   C1A  551   8.485   1.666   9.521 -0.0924 -0.1243  0.1856
   35loPI   C2A  552   8.404   1.747   9.084 -0.2603 -0.2428  0.1666
   35loPI   C3A  553   8.226   1.792   8.704  0.0304  0.2404 -0.0572
   35loPI   C4A  554   8.341   1.851   8.319 -0.0682  0.0908  0.2360
   35loPI   C5A  555   8.279   2.003   7.797 -0.1199  0.1354 -0.1091
   35loPI   C6A  556   8.386   2.161   7.349 -0.3393  0.0759  0.0486
   35loPI   C1B  557   8.524   1.147   9.613  0.0160  0.1092  0.3559
   35loPI   C2B  558   8.521   1.171   9.258  0.2199 -0.1725 -0.1174
   35loPI   C3B  559   8.380   1.177   8.846  0.0695 -0.0297 -0.1980
   35loPI   C4B  560   8.336   1.398   8.519 -0.0731 -0.1076  0.2891
   36loPI    C1  561  11.017  13.739  10.543 -0.1241  0.0511 -0.1402
   36loPI    C2  562  11.236  13.702  10.875 -0.0842 -0.2531 -0.1971
   36loPI    C3  563  10.866  13.853  10.895  0.1435  0.3207 -0.1087
   36loPI   PO4  564  10.991  13.517  10.429  0.3372 -0.0784 -0.2699
   36loPI   GL1  565  10.924  13.538   9.975 -0.3630 -0.1567 -0.2339
   36loPI   GL2  566  10.738  13.673   9.707  0.1397 -0.0596  0.4944
   36loPI   C1A  567  11.197  13.584   9.612 -0.0496 -0.2701  0.0539
   36loPI   C2A  568  11.178  13.643   9.291 -0.1300 -0.1756  0.0166
   36loPI   C3A  569  11.166  13.626   8.816  0.1795 -0.4085 -0.0269
   36loPI   C4A  570  11.136  13.516   8.496 -0.2766 -0.0818 -0.1080
   36loPI   C5A  571  10.987  13.430   8.095 -0.1219 -0.2001  0.2469
   36loPI   C6A  572  10.923  13.506   7.771 -0.1884  0.0544 -0.2642
   36loPI   C1B  573  10.793  13.917   9.399 -0.2533  0.1339 -0.2523
   36loPI   C2B  574  10.685  13.833   8.971  0.0442  0.3684 -0.0799
   36loPI   C3B  575  10.586  13.716   8.574 -0.0738 -0.1443 -0.0370
   36loPI   C4B  576  10.571  13.703   8.055  0.2018 -0.0685 -0.1754
   37loPI    C1  577   1.406  16.727  10.339  0.0920 -0.0160 -0.1566
   37loPI    C2  578   1.070  16.547  10.219  0.0906  0.0428 -0.2411
   37loPI    C3  579   1.072  16.762  10.556  0.0986 -0.1351 -0.1262
   37loPI   PO4  580   1.575  16.471  10.208  0.3823  0.3349 -0.1466
   37loPI   GL1  581   1.857  16.086   9.937  0.0744 -0.0032  0.1397
   37loPI   GL2  582   1.978  16.439   9.915  0.4410 -0.0303  0.0374
   37loPI   C1A  583   1.898  15.985   9.504 -0.1237  0.1080  0.0327
   37loPI   C2A  584   1.627  16.111   9.178  0.5888 -0.0061  0.2943
   37loPI   C3A  585   1.440  16.274   8.735  0.0003  0.3462 -0.1295
   37loPI   C4A  586   1.368  16.171   8.327 -0.2346 -0.1305  0.0062
   37loPI   C5A  587   1.652  16.031   8.098  0.0899  0.1686 -0.0095
   37loPI   C6A  588   2.030  16.014   7.938  0.0668 -0.0639  0.0926
   37loPI   C1B  589   2.135  16.396   9.482  0.1250 -0.2797 -0.1465
   37loPI   C2B  590   2.278  16.408   9.125  0.0418  0.0078  0.1085
   37loPI   C3B  591   2.401  16.241   8.691  0.0235  0.0611  0.3224
   37loPI   C4B  592   2.411  16.209   8.283  0.1002 -0.1027 -0.0087
   38loPI    C1  593  18.378  10.918  10.479 -0.0035  0.1355 -0.0873
   38loPI    C2  594  18.536  11.080  10.809  0.1025  0.2415 -0.1891
   38loPI    C3  595  18.564  10.686  10.747 -0.0239  0.2034 -0.0139
   38loPI   PO4  596  18.531  11.082  10.268  0.0488 -0.3310 -0.3445
   38loPI   GL1  597  18.647  11.156   9.867  0.0156 -0.1501  0.4202
   38loPI   GL2  598  18.952  10.912   9.949 -0.1858 -0.1102  0.0662
   38loPI   C1A  599  18.504  10.942   9.447 -0.1194 -0.0781 -0.1703
   38loPI   C2A  600  18.541  10.794   8.989 -0.3264  0.0924  0.1836
   38loPI   C3A  601  18.499  10.690   8.482 -0.0242  0.0566 -0.4683
   38loPI   C4A  602  18.649  10.723   8.108 -0.0578 -0.1364  0.1782
   38loPI   C5A  603  18.413  10.447   7.760  0.3425 -0.0456 -0.0632
   38loPI   C6A  604  18.406  10.263   7.315  0.2963 -0.1509 -0.2113
   38loPI   C1B  605  19.029  10.804   9.542  0.2656  0.0365 -0.1826
   38loPI   C2B  606  18.965  10.593   9.145  0.2001 -0.0659  0.0097
   38loPI   C3B  607  19.111  10.549   8.693  0.1225 -0.0243  0.1430
   38loPI   C4B  608  18.982  10.353   8.270  0.3348  0.3038 -0.1915
   39loPI    C1  609  14.318  10.168   9.992 -0.0328 -0.1719 -0.0716
   39loPI    C2  610  14.002  10.112   9.754 -0.0918 -0.2426  0.0228
   39loPI    C3  611  14.038   9.900  10.091  0.0977 -0.2934 -0.0283
   39loPI   PO4  612  14.521  10.136   9.915 -0.2067 -0.3147 -0.2770
   39loPI   GL1  613  14.518   9.912   9.496 -0.4290 -0.0554  0.1694
   39loPI   GL2  614  14.412  10.239   9.429 -0.4718 -0.1393 -0.0079
   39loPI   C1A  615  14.502   9.950   8.977 -0.0976  0.0450  0.2956
   39loPI   C2A  616  14.479   9.955   8.459  0.3740 -0.1742 -0.1438
   39loPI   C3A  617  14.338  10.006   7.993 -0.1011 -0.2334 -0.1494
   39loPI   C4A  618  14.223  10.201   7.621  0.2824 -0.1681  0.1160
   39loPI   C5A  619  13.936   9.935   7.540 -0.0364  0.0505  0.0226
   39loPI   C6A  620  13.748   9.607   7.280  0.1184 -0.0615  0.1738
   39loPI   C1B  621  14.074  10.178   9.186 -0.0574 -0.1508 -0.1334
   39loPI   C2B  622  14.014  10.122   8.813 -0.1548  0.0465  0.0371
   39loPI   C3B  623  13.977  10.066   8.473  0.1273  0.1383 -0.3867
   39loPI   C4B  624  13.847  10.003   8.148 -0.0570  0.1048  0.0313
   40loPI    C1  625   4.481  14.206  10.624 -0.0131  0.0322  0.1059
   40loPI    C2  626   4.645  14.571  10.635 -0.1124  0.0970 -0.3617
   40loPI    C3  627   4.257  14.523  10.723 -0.0574  0.0750 -0.1251
   40loPI   PO4  628   4.539  14.070  10.420 -0.0057  0.1074 -0.3732
   40loPI   GL1  629   4.597  14.011   9.988  0.0092 -0.3613 -0.1317
   40loPI   GL2  630   4.552  13.666   9.914 -0.0521 -0.1300  0.1100
   40loPI   C1A  631   4.803  13.927   9.559  0.1243 -0.1164 -0.1719
   40loPI   C2A  632   4.687  13.896   9.152  0.3327  0.2612  0.0727
   40loPI   C3A  633   4.420  13.999   8.808 -0.1517 -0.1162 -0.0705
   40loPI   C4A  634   4.386  14.096   8.447  0.0933 -0.0313 -0.0469
   40loPI   C5A  635   4.174  13.836   8.123  0.0389 -0.0275  0.1502
   40loPI   C6A  636   4.065  13.502   7.948  0.0030 -0.1083  0.1645
   40loPI   C1B  637   4.705  13.403   9.639 -0.1055 -0.1889  0.5687
   40loPI   C2B  638   4.659  13.380   9.195 -0.0459 -0.0706 -0.0494
   40loPI   C3B  639   4.630  13.396   8.801  0.0795  0.0136  0.0523
   40loPI   C4B  640   4.536  13.526   8.352  0.3313 -0.2909 -0.1051
   41loPI    C1  641  15.806   5.111  10.929 -0.0257  0.0163 -0.1752
   41loPI    C2  642  15.650   4.787  10.755  0.0175 -0.0541 -0.0841
   41loPI    C3  643  15.929   4.747  11.038  0.0742  0.0653 -0.1223
   41loPI   PO4  644  15.860   5.230  10.694 -0.0083  0.0885  0.1306
   41loPI   GL1  645  16.032   5.286  10.285  0.0090 -0.1020 -0.1501
   41loPI   GL2  646  16.234   5.463  10.086  0.2240 -0.4127  0.1780
   41loPI   C1A  647  16.181   4.996   9.896  0.0270 -0.1757 -0.1989
   41loPI   C2A  648  16.236   4.975   9.481 -0.2706 -0.0388  0.2892
   41loPI   C3A  649  16.199   4.877   9.051  0.2967 -0.0009 -0.0610
   41loPI   C4A  650  16.188   4.838   8.514  0.4327 -0.1096 -0.0041
   41loPI   C5A  651  16.046   4.934   8.099 -0.1314  0.0609  0.2096
   41loPI   C6A  652  15.734   4.938   7.703 -0.0607 -0.1623 -0.4062
   41loPI   C1B  653  16.129   5.441   9.632  0.2067  0.2349  0.1567
   41loPI   C2B  654  16.155   5.452   9.192  0.1135 -0.1849  0.3511
   41loPI   C3B  655  16.172   5.327   8.768  0.7361  0.0288  0.1300
   41loPI   C4B  656  16.098   5.364   8.392 -0.0212 -0.0558  0.6078
   42loPI    C1  657   7.546  15.756  10.580 -0.0139  0.2650  0.0430
   42loPI    C2  658   7.760  15.897  10.887 -0.0027 -0.2651  0.2888
   42loPI    C3  659   7.381  15.783  10.943 -0.1544  0.0765 -0.0056
   42loPI   PO4  660   7.605  15.538  10.528  0.0388 -0.2663  0.2370
   42loPI   GL1  661   7.392  15.138  10.302  0.0029  0.2886  0.1993
   42loPI   GL2  662   7.170  14.946  10.147  0.3028  0.0406  0.0678
   42loPI   C1A  663   7.509  15.217   9.815 -0.1311  0.0424  0.0707
   42loPI   C2A  664   7.461  15.268   9.397  0.0467 -0.0023 -0.1762
   42loPI   C3A  665   7.424  15.255   9.011  0.0318 -0.0408  0.0088
   42loPI   C4A  666   7.276  15.305   8.659  0.0427 -0.2946  0.1050
   42loPI   C5A  667   7.160  15.339   8.221 -0.2168 -0.1012 -0.1201
   42loPI   C6A  668   6.910  14.973   7.930  0.2278 -0.1071 -0.0586
   42loPI   C1B  669   7.022  14.959   9.703 -0.0742  0.3405 -0.0159
   42loPI   C2B  670   6.945  14.909   9.316  0.1131 -0.0987  0.1082
   42loPI   C3B  671   6.973  14.936   8.921  0.0218 -0.1289 -0.0944
   42loPI   C4B  672   6.907  14.973   8.445  0.5004 -0.1227  0.0446
   43loPI    C1  673   9.340  15.333  10.680  0.2603  0.0358  0.0542
   43loPI    C2  674   9.395  15.034  10.940 -0.0364 -0.0045  0.0737
   43loPI    C3  675   9.049  15.234  10.935  0.0854  0.2067 -0.0766
   43loPI   PO4  676   9.458  15.213  10.479  0.2026 -0.0774  0.1645
   43loPI   GL1  677   9.478  15.015  10.088 -0.0088 -0.2737  0.2064
   43loPI   GL2  678   9.827  15.208  10.043  0.2709  0.2408  0.1323
   43loPI   C1A  679   9.214  15.058   9.780 -0.0448  0.1420 -0.2727
   43loPI   C2A  680   9.243  15.027   9.359  0.1991 -0.1236 -0.3127
   43loPI   C3A  681   9.202  14.865   8.932  0.2623  0.3088  0.1721
   43loPI   C4A  682   9.136  15.037   8.603 -0.4059  0.0323  0.1738
   43loPI   C5A  683   9.129  14.873   8.213  0.0401  0.1221 -0.0940
   43loPI   C6A  684   8.991  14.911   7.883  0.1950  0.2170 -0.3645
   43loPI   C1B  685   9.693  15.301   9.599 -0.4478  0.3399  0.0848
   43loPI   C2B  686   9.663  15.231   9.221  0.0982  0.0261  0.3574
   43loPI   C3B  687   9.594  15.179   8.788 -0.2511  0.0176  0.1887
   43loPI   C4B  688   9.446  15.383   8.405  0.0470 -0.0481  0.1392
   44loPI    C1  689  16.798   0.346  10.088  0.0517  0.1948 -0.0191
   44loPI    C2  690  16.565   0.671  10.097  0.1522  0.2642  0.1303
   44loPI    C3  691  16.667   0.489  10.438 -0.0042  0.0023  0.0401
   44loPI   PO4  692  16.729   0.266   9.822  0.0085 -0.2330 -0.1456
   44loPI   GL1  693  16.707   0.312   9.430 -0.0060 -0.1475  0.0569
   44loPI   GL2  694  16.511   0.315   9.306 -0.1326  0.0635 -0.0408
   44loPI   C1A  695  16.877   0.223   8.949 -0.2599 -0.0805  0.2263
   44loPI   C2A  696  17.003   0.156   8.542  0.0334 -0.1617 -0.2200
   44loPI   C3A  697  17.089   0.233   8.106  0.2004  0.4184 -0.1408
   44loPI   C4A  698  17.259   0.301   7.667 -0.0545  0.0215  0.1118
   44loPI   C5A  699  17.563   0.326   7.397 -0.0754 -0.2155 -0.2183
   44loPI   C6A  700  17.644   0.249   6.892 -0.0106  0.1481  0.0124
   44loPI   C1B  701  16.458   0.408   8.784 -0.1263 -0.3245 -0.0396
   44loPI   C2B  702  16.500   0.399   8.351  0.0216 -0.3855  0.0715
   44loPI   C3B  703  16.604   0.281   7.924  0.4169  0.0186 -0.2677
   44loPI   C4B  704  16.787   0.208   7.562 -0.2477 -0.0571  0.1672
   45loPI    C1  705   6.473   1.087  10.878  0.4275 -0.1622 -0.0330
   45loPI    C2  706   6.509   0.793  11.147 -0.0744 -0.3694 -0.1820
   45loPI    C3  707   6.241   1.084  11.204  0.1428 -0.1566 -0.2330
   45loPI   PO4  708   6.589   0.957  10.646 -0.1577  0.0883  0.0600
   45loPI   GL1  709   6.639   1.106  10.271  0.2008  0.1309  0.0655
   45loPI   GL2  710   6.988   1.171  10.171 -0.0237  0.0789 -0.3887
   45loPI   C1A  711   6.626   1.266   9.792 -0.1144  0.1476  0.1012
   45loPI   C2A  712   6.551   1.356   9.247 -0.0883 -0.1354  0.0976
   45loPI   C3A  713   6.526   1.449   8.862 -0.1454  0.0600  0.0668
   45loPI   C4A  714   6.427   1.497   8.355  0.0027  0.1576 -0.0215
   45loPI   C5A  715   6.385   1.836   8.147  0.1676  0.0666  0.0211
   45loPI   C6A  716   6.407   2.255   7.983 -0.1355 -0.2270 -0.2038
   45loPI   C1B  717   7.142   1.258   9.786 -0.0066 -0.0422 -0.0475
   45loPI   C2B  718   7.119   1.204   9.342  0.0516 -0.1481  0.0720
   45loPI   C3B  719   7.062   1.303   8.942  0.1647  0.0626  0.1031
   45loPI   C4B  720   6.919   1.357   8.491  0.1602  0.0793 -0.0150
   46loPI    C1  721  12.930   4.843  10.863 -0.1333 -0.0295  0.0261
   46loPI    C2  722  13.215   5.120  10.906  0.0385 -0.1400 -0.3586
   46loPI    C3  723  13.250   4.767  11.091  0.0018 -0.0439 -0.1660
   46loPI   PO4  724  12.900   4.864  10.588  0.2283  0.0435  0.1758
   46loPI   GL1  725  12.937   4.863  10.208  0.0801 -0.2634 -0.2212
   46loPI   GL2  726  13.131   5.093  10.283  0.0058 -0.0607 -0.1236
   46loPI   C1A  727  13.135   4.605   9.918  0.0075 -0.0118 -0.1201
   46loPI   C2A  728  13.065   4.582   9.560  0.0463 -0.1678  0.1472
   46loPI   C3A  729  13.132   4.692   9.116  0.4347  0.2454  0.1354
   46loPI   C4A  730  13.031   4.798   8.688  0.1036  0.1611 -0.1643
   46loPI   C5A  731  12.858   4.754   8.336 -0.2103 -0.1649  0.1023
   46loPI   C6A  732  12.797   4.974   8.010 -0.1333 -0.0080  0.1543
   46loPI   C1B  733  13.033   5.146   9.821  0.2952 -0.0941  0.3147
   46loPI   C2B  734  13.036   5.222   9.432  0.1271  0.3315  0.2483
   46loPI   C3B  735  13.038   5.251   9.003  0.0566  0.1889  0.0604
   46loPI   C4B  736  12.795   5.237   8.613 -0.2995 -0.0395  0.3016
   47loPI    C1  737   8.381   8.718  10.486  0.1342  0.3377 -0.1606
   47loPI    C2  738   8.113   8.919  10.704  0.1691  0.1623  0.0481
   47loPI    C3  739   8.410   8.723  10.885 -0.0714 -0.3790 -0.1240
   47loPI   PO4  740   8.243   8.431  10.294  0.0936 -0.1666 -0.0118
   47loPI   GL1  741   8.211   8.520   9.936 -0.1890 -0.0333 -0.1170
   47loPI   GL2  742   8.479   8.810  10.012 -0.2005 -0.0173 -0.0103
   47loPI   C1A  743   8.185   8.433   9.494 -0.1775 -0.4282 -0.1911
   47loPI   C2A  744   8.140   8.544   9.126 -0.0931 -0.3447  0.0458
   47loPI   C3A  745   8.306   8.483   8.682 -0.0081  0.2306 -0.2093
   47loPI   C4A  746   8.400   8.418   8.267 -0.4093 -0.3512 -0.1096
   47loPI   C5A  747   8.452   8.405   7.732  0.4893  0.4230  0.2357
   47loPI   C6A  748   8.109   8.254   7.335  0.1234 -0.2104  0.0164
   47loPI   C1B  749   8.563   8.930   9.565  0.0710 -0.0474  0.0989
   47loPI   C2B  750   8.547   8.781   9.201  0.0011  0.0361  0.1104
   47loPI   C3B  751   8.761   8.873   8.763  0.1508 -0.1391 -0.0321
   47loPI   C4B  752   8.788   8.815   8.287 -0.0497 -0.1532 -0.1451
   48loPI    C1  753  10.385  14.735  10.388  0.0486 -0.1256  0.2882
   48loPI    C2  754  10.288  14.936  10.720 -0.2668 -0.1922  0.2401
   48loPI    C3  755  10.307  14.537  10.726  0.0403 -0.1802  0.2544
   48loPI   PO4  756  10.192  14.919  10.214  0.2543 -0.4535 -0.0402
   48loPI   GL1  757   9.986  14.756   9.870 -0.0798 -0.1431  0.1848
   48loPI   GL2  758   9.963  14.428   9.797  0.0960  0.1354 -0.0028
   48loPI   C1A  759   9.715  14.771   9.499 -0.1312 -0.0481  0.0633
   48loPI   C2A  760   9.680  14.756   9.088 -0.0478  0.1543 -0.0176
   48loPI   C3A  761   9.668  14.695   8.731 -0.1738  0.2158 -0.0770
   48loPI   C4A  762   9.574  14.921   8.327  0.1155  0.0949 -0.0355
   48loPI   C5A  763   9.656  15.192   7.910  0.0878  0.1148 -0.2126
   48loPI   C6A  764   9.932  15.117   7.645 -0.1535  0.0256 -0.1121
   48loPI   C1B  765   9.759  14.222   9.393  0.0050 -0.1385 -0.2043
   48loPI   C2B  766   9.753  14.107   8.903  0.2226  0.1765  0.1160
   48loPI   C3B  767   9.731  14.183   8.480 -0.0181 -0.2641  0.1391
   48loPI   C4B  768   9.690  14.465   8.215  0.1351  0.1504  0.0808
   49loPI    C1  769  16.321   2.010  10.413 -0.2334 -0.3159 -0.2411
   49loPI    C2  770  16.578   2.227  10.197 -0.2630  0.1156  0.1417
   49loPI    C3  771  16.709   1.912  10.407 -0.1759 -0.0939 -0.2177
   49loPI   PO4  772  16.126   1.975  10.180  0.0867 -0.2617 -0.0099
   49loPI   GL1  773  15.994   2.014   9.765 -0.1398 -0.1842 -0.0718
   49loPI   GL2  774  15.670   2.093   9.620  0.3650 -0.2815  0.1118
   49loPI   C1A  775  16.206   1.959   9.403  0.0224 -0.4185 -0.1513
   49loPI   C2A  776  16.227   2.058   9.030 -0.2508  0.2788 -0.1786
   49loPI   C3A  777  16.214   2.024   8.569 -0.2143 -0.2175  0.0013
   49loPI   C4A  778  16.312   2.000   8.106  0.0478 -0.1702 -0.0524
   49loPI   C5A  779  16.199   1.818   7.765 -0.0103  0.0065 -0.2582
   49loPI   C6A  780  16.319   1.877   7.355  0.3458  0.1573  0.1487
   49loPI   C1B  781  15.724   2.103   9.107 -0.1110  0.0390 -0.2362
   49loPI   C2B  782  15.760   2.145   8.658 -0.0852 -0.1567  0.1141
   49loPI   C3B  783  15.784   2.301   8.238  0.2682  0.1854 -0.2879
   49loPI   C4B  784  15.869   2.247   7.800  0.4960  0.0774 -0.0930
   50loPI    C1  785  12.198   3.864  10.945  0.1758  0.1917  0.0010
   50loPI    C2  786  12.426   3.593  11.130 -0.1800 -0.0893  0.0398
   50loPI    C3  787  12.237   3.874  11.343  0.2623  0.2562 -0.0089
   50loPI   PO4  788  12.160   3.698  10.728  0.0367  0.1164  0.0849
   50loPI   GL1  789  12.044   3.869  10.259 -0.1192  0.2129  0.0148
   50loPI   GL2  790  11.717   4.001  10.267  0.0797  0.0352  0.1015
   50loPI   C1A  791  12.191   4.002   9.787  0.1249 -0.0378 -0.0998
   50loPI   C2A  792  12.191   4.129   9.343  0.1690 -0.0538  0.1620
   50loPI   C3A  793  12.240   4.153   8.885  0.3312 -0.0346  0.0907
   50loPI   C4A  794  12.118   4.099   8.485  0.1280 -0.2024  0.3978
   50loPI   C5A  795  12.111   4.216   8.063 -0.3779  0.1444  0.2214
   50loPI   C6A  796  12.364   3.935   7.706  0.0720 -0.2505 -0.1319
   50loPI   C1B  797  11.773   4.308   9.909 -0.0327  0.0820  0.1845
   50loPI   C2B  798  11.690   4.252   9.417  0.1321  0.2259  0.2075
   50loPI   C3B  799  11.651   4.188   9.024  0.4346 -0.1941  0.0794
   50loPI   C4B  800  11.613   4.203   8.473 -0.3140 -0.4390 -0.1049
   51loPI    C1  801  17.943  12.417  10.187 -0.0778 -0.1702 -0.1139
   51loPI    C2  802  18.077  12.047  10.115  0.0742 -0.1459  0.0401
   51loPI    C3  803  17.780  12.105  10.377  0.2118 -0.1383  0.1964
   51loPI   PO4  804  17.840  12.516   9.988  0.2830  0.3457  0.0462
   51loPI   GL1  805  17.630  12.318   9.645 -0.1671 -0.0383 -0.1729
   51loPI   GL2  806  17.926  12.107   9.596 -0.1269  0.2243  0.0069
   51loPI   C1A  807  17.390  12.206   9.241  0.2948 -0.0713  0.2238
   51loPI   C2A  808  17.404  12.277   8.791 -0.1955  0.3518  0.3740
   51loPI   C3A  809  17.189  12.258   8.389  0.2482 -0.0222 -0.1190
   51loPI   C4A  810  16.951  12.117   7.944  0.0587  0.0581 -0.1151
   51loPI   C5A  811  16.954  12.108   7.492  0.0562 -0.1586 -0.0827
   51loPI   C6A  812  17.359  12.035   7.366  0.1331  0.0475 -0.0178
   51loPI   C1B  813  17.966  11.956   9.200 -0.1074  0.2887 -0.3031
   51loPI   C2B  814  18.127  11.848   8.895  0.1884 -0.0705 -0.3520
   51loPI   C3B  815  18.152  11.885   8.523 -0.0797 -0.0620  0.0557
   51loPI   C4B  816  18.371  11.947   8.179  0.1422  0.0243 -0.0192
   52loPI    C1  817   8.474  13.825  10.881 -0.4014  0.1079  0.1786
   52loPI    C2  818   8.465  13.583  11.199 -0.0731 -0.0998  0.0350
   52loPI    C3  819   8.790  13.804  11.125 -0.0505 -0.2345 -0.2862
   52loPI   PO4  820   8.369  13.739  10.658  0.0530  0.1628  0.0123
   52loPI   GL1  821   8.461  13.581  10.324  0.2591 -0.0095  0.5211
   52loPI   GL2  822   8.718  13.433  10.326 -0.2069  0.0871 -0.0446
   52loPI   C1A  823   8.507  13.797  10.001  0.1038 -0.1048  0.2271
   52loPI   C2A  824   8.472  13.862   9.618  0.0896 -0.1047  0.1340
   52loPI   C3A  825   8.580  13.844   9.170  0.3371  0.0771  0.0418
   52loPI   C4A  826   8.412  13.812   8.763 -0.0218  0.1479  0.0002
   52loPI   C5A  827   8.311  13.841   8.295  0.1213 -0.0871 -0.0398
   52loPI   C6A  828   8.453  13.636   7.928 -0.1297  0.0345  0.0506
   52loPI   C1B  829   8.654  13.369   9.837 -0.0853  0.1703  0.2206
   52loPI   C2B  830   8.563  13.380   9.358  0.2820  0.0314 -0.0321
   52loPI   C3B  831   8.544  13.321   8.967 -0.2166  0.0215 -0.2027
   52loPI   C4B  832   8.504  13.358   8.523 -0.1152  0.0841  0.1174
   53loPI    C1  833  14.870   3.964  10.613 -0.1527 -0.2705 -0.0829
   53loPI    C2  834  14.593   3.678  10.575 -0.2566 -0.1900  0.0596
   53loPI    C3  835  14.783   3.728  10.923 -0.1383 -0.1757 -0.0063
   53loPI   PO4  836  14.879   4.104  10.382  0.2095 -0.0735 -0.0838
   53loPI   GL1  837  14.646   4.485  10.146  0.0671 -0.0730  0.2640
   53loPI   GL2  838  14.856   4.337   9.986  0.2261 -0.2054 -0.1148
   53loPI   C1A  839  14.567   4.597   9.681 -0.2783 -0.0327 -0.0577
   53loPI   C2A  840  14.441   4.608   9.236  0.1707 -0.0174 -0.1270
   53loPI   C3A  841  14.381   4.735   8.767 -0.0662 -0.2417 -0.2111
   53loPI   C4A  842  14.391   4.624   8.417  0.1868  0.0745 -0.0488
   53loPI   C5A  843  14.313   4.608   7.956  0.1377  0.3013 -0.0930
   53loPI   C6A  844  14.334   4.726   7.557 -0.0528 -0.1429 -0.2817
   53loPI   C1B  845  14.974   4.382   9.495  0.2365 -0.0174  0.2352
   53loPI   C2B  846  14.977   4.391   9.010 -0.1787 -0.2529  0.2328
   53loPI   C3B  847  14.838   4.471   8.643  0.1531  0.0639 -0.0749
   53loPI   C4B  848  14.701   4.316   8.213  0.3493  0.2090 -0.0011
   54loPI    C1  849   7.880   0.847  10.675 -0.0038  0.1005 -0.0728
   54loPI    C2  850   8.013   0.529  10.472  0.1999  0.1469 -0.0142
   54loPI    C3  851   8.224   0.673  10.779 -0.0374  0.1616  0.1450
   54loPI   PO4  852   7.659   0.826  10.540 -0.0111  0.1493  0.0256
   54loPI   GL1  853   7.583   0.787  10.258  0.0884  0.0302 -0.2476
   54loPI   GL2  854   7.740   0.465  10.063  0.1014  0.0733  0.2967
   54loPI   C1A  855   7.600   1.049   9.890  0.0342  0.0331  0.2134
   54loPI   C2A  856   7.569   1.091   9.525 -0.1374 -0.0670  0.0815
   54loPI   C3A  857   7.522   1.035   9.046  0.1889 -0.2131 -0.2975
   54loPI   C4A  858   7.564   1.106   8.548 -0.0467 -0.1368 -0.0889
   54loPI   C5A  859   7.529   1.335   8.165  0.0820 -0.1533  0.3321
   54loPI   C6A  860   7.362   1.658   7.975  0.1929  0.0863  0.0153
   54loPI   C1B  861   7.722   0.395   9.698 -0.2403  0.1249 -0.0673
   54loPI   C2B  862   7.666   0.573   9.389 -0.0084 -0.1746  0.1355
   54loPI   C3B  863   7.630   0.554   9.014  0.0551 -0.2833 -0.1549
   54loPI   C4B  864   7.550   0.438   8.590  0.2718  0.0859 -0.1785
   55loPI    C1  865   4.925   2.655  10.993  0.1327 -0.0295  0.1571
   55loPI    C2  866   5.030   2.623  11.378 -0.0252  0.1443  0.2159
   55loPI    C3  867   4.771   2.906  11.264  0.1438  0.1972 -0.0437
   55loPI   PO4  868   5.139   2.589  10.920  0.0039 -0.0567  0.1927
   55loPI   GL1  869   5.102   2.545  10.474 -0.1349 -0.2806  0.0408
   55loPI   GL2  870   5.081   2.246  10.587  0.2482  0.0373 -0.2137
   55loPI   C1A  871   4.963   2.501  10.116 -0.0371  0.1568 -0.1210
   55loPI   C2A  872   5.050   2.538   9.725 -0.0936 -0.0669 -0.2258
   55loPI   C3A  873   5.064   2.518   9.262  0.1092  0.0665  0.1431
   55loPI   C4A  874   5.067   2.581   8.824 -0.2417 -0.2032 -0.0865
   55loPI   C5A  875   4.973   2.299   8.485  0.0521 -0.0435  0.1488
   55loPI   C6A  876   5.046   2.046   8.191 -0.2205  0.2623 -0.1846
   55loPI   C1B  877   5.251   2.082  10.262 -0.1513 -0.0080  0.0046
   55loPI   C2B  878   5.193   2.083   9.844  0.1546  0.5446  0.0357
   55loPI   C3B  879   5.123   2.042   9.429  0.1277  0.3799 -0.1951
   55loPI   C4B  880   5.136   2.108   8.948 -0.2227  0.0037  0.0876
   56loPI    C1  881   7.802  10.929  10.625 -0.0254  0.0526 -0.0013
   56loPI    C2  882   7.672  10.604  10.819  0.1935 -0.0658 -0.0501
   56loPI    C3  883   7.867  10.891  11.018 -0.0341  0.0558  0.0004
   56loPI   PO4  884   8.033  10.822  10.456  0.0132  0.3238 -0.3547
   56loPI   GL1  885   7.901  10.564  10.079  0.0748  0.1648  0.0787
   56loPI   GL2  886   7.810  10.976  10.016  0.4024 -0.0665  0.6144
   56loPI   C1A  887   7.993  10.613   9.660  0.2735 -0.0785  0.0679
   56loPI   C2A  888   7.881  10.671   9.237  0.1417  0.2044  0.0995
   56loPI   C3A  889   7.846  10.580   8.870 -0.0701  0.0264 -0.0975
   56loPI   C4A  890   7.913  10.486   8.467  0.0786  0.2831 -0.3333
   56loPI   C5A  891   7.892  10.658   8.030  0.1836 -0.1044  0.0174
   56loPI   C6A  892   7.708  10.462   7.620  0.0286 -0.0076  0.0513
   56loPI   C1B  893   7.758  11.148   9.575 -0.0576  0.4304  0.1422
   56loPI   C2B  894   7.867  11.206   9.065 -0.0095 -0.0735 -0.3682
   56loPI   C3B  895   7.744  11.155   8.739  0.1056  0.0555  0.1400
   56loPI   C4B  896   7.348  11.287   8.395  0.2453 -0.2375 -0.1533
   57loPI    C1  897  18.092  17.496   9.933  0.1942  0.1891  0.2218
   57loPI    C2  898  18.154  17.756   9.635  0.0503  0.0193  0.0406
   57loPI    C3  899  18.465  17.594   9.828  0.1463  0.0705 -0.0699
   57loPI   PO4  900  17.893  17.399   9.828  0.2976  0.1884 -0.1845
   57loPI   GL1  901  17.871  17.384   9.365 -0.1827 -0.1280  0.0999
   57loPI   GL2  902  17.816  17.783   9.243  0.3097  0.1480  0.0050
   57loPI   C1A  903  18.046  17.311   8.987 -0.1233  0.0388 -0.0145
   57loPI   C2A  904  18.435  17.163   8.775  0.1823 -0.2472 -0.0419
   57loPI   C3A  905  18.614  17.208   8.389 -0.3471  0.1286 -0.0803
   57loPI   C4A  906  18.873  17.216   8.161 -0.5350 -0.0232 -0.0708
   57loPI   C5A  907  19.084  16.969   7.910  0.0211  0.4998 -0.0152
   57loPI   C6A  908  19.083  16.500   7.800  0.1321 -0.1600  0.0188
   57loPI   C1B  909  17.953  17.824   8.887 -0.1441  0.1330  0.2064
   57loPI   C2B  910  18.146  17.793   8.500 -0.3515  0.0516  0.0702
   57loPI   C3B  911  18.334  17.848   8.158  0.3307  0.2735 -0.3644
   57loPI   C4B  912  18.133  17.729   7.715 -0.0880 -0.3518  0.0217
   58loPI    C1  913   1.098   1.827  10.650  0.0471 -0.1230 -0.1350
   58loPI    C2  914   0.957   1.535  10.884  0.0755 -0.0469 -0.0218
   58loPI    C3  915   1.164   1.837  11.044 -0.0309  0.0829 -0.1258
   58loPI   PO4  916   1.240   1.678  10.454 -0.0894  0.3274  0.1665
   58loPI   GL1  917   1.063   1.427  10.067 -0.1903  0.0549  0.0543
   58loPI   GL2  918   1.440   1.542   9.957 -0.0115 -0.0520  0.0415
   58loPI   C1A  919   0.909   1.670   9.734 -0.0311  0.1904 -0.1423
   58loPI   C2A  920   1.097   1.800   9.298  0.0206  0.0792  0.3023
   58loPI   C3A  921   1.166   1.716   8.879  0.1199  0.2198  0.2004
   58loPI   C4A  922   1.010   1.759   8.411 -0.1736 -0.0941  0.1015
   58loPI   C5A  923   0.909   1.821   7.907  0.2330  0.0270 -0.0160
   58loPI   C6A  924   0.986   1.787   7.418 -0.2179  0.0193 -0.1930
   58loPI   C1B  925   1.526   1.555   9.498 -0.0046 -0.0870  0.0513
   58loPI   C2B  926   1.594   1.655   9.018 -0.0395  0.1306 -0.2481
   58loPI   C3B  927   1.540   1.623   8.528 -0.2922 -0.1678 -0.6167
   58loPI   C4B  928   1.384   1.701   8.076 -0.1512  0.0459  0.2425
   59loPI    C1  929   1.608  10.584  10.415  0.0570 -0.0240 -0.2179
   59loPI    C2  930   1.840  10.510  10.732 -0.1822 -0.1569 -0.0711
   59loPI    C3  931   1.629  10.214  10.566 -0.1024 -0.0758 -0.3211
   59loPI   PO4  932   1.659  10.846  10.317  0.0347 -0.1653 -0.1476
   59loPI   GL1  933   1.667  11.093  10.009 -0.0513  0.1550 -0.1311
   59loPI   GL2  934   1.358  11.103   9.922 -0.3360 -0.0204 -0.2062
   59loPI   C1A  935   1.943  11.250   9.695 -0.1246 -0.0457  0.3571
   59loPI   C2A  936   1.811  11.148   9.276 -0.1763  0.1059 -0.2452
   59loPI   C3A  937   1.945  11.196   8.855 -0.1127  0.2452 -0.0791
   59loPI   C4A  938   2.153  11.026   8.571 -0.1423  0.1125 -0.0171
   59loPI   C5A  939   2.423  10.839   8.395  0.0524  0.1919 -0.1128
   59loPI   C6A  940   2.441  10.384   8.315 -0.1445  0.0517  0.1863
   59loPI   C1B  941   1.497  10.873   9.529 -0.4030  0.2588  0.0308
   59loPI   C2B  942   1.376  10.633   9.079 -0.0157 -0.1831 -0.0700
   59loPI   C3B  943   1.457  10.705   8.599 -0.0960  0.0296  0.1098
   59loPI   C4B  944   1.410  10.555   8.175 -0.1394  0.1563  0.0666
   60loPI    C1  945   0.958   9.792  10.697 -0.3510  0.0254  0.3648
   60loPI    C2  946   1.272   9.590  10.841 -0.0457  0.0480 -0.2390
   60loPI    C3  947   1.252   9.987  10.886 -0.0784  0.0248 -0.0445
   60loPI   PO4  948   0.947   9.612  10.442  0.2286  0.1115  0.0363
   60loPI   GL1  949   1.062   9.559  10.048 -0.1603  0.1328 -0.2915
   60loPI   GL2  950   0.809   9.865   9.971 -0.1379  0.0243 -0.0372
   60loPI   C1A  951   1.231   9.448   9.732  0.0740 -0.3416 -0.3773
   60loPI   C2A  952   1.120   9.420   9.292  0.4008 -0.1395 -0.1280
   60loPI   C3A  953   1.131   9.378   8.991  0.0608 -0.0577 -0.0599
   60loPI   C4A  954   1.168   9.270   8.605 -0.1524  0.0824 -0.1030
   60loPI   C5A  955   1.331   9.332   8.312 -0.3236 -0.0474  0.1160
   60loPI   C6A  956   1.220   9.208   7.953 -0.1394 -0.0892 -0.0356
   60loPI   C1B  957   0.778   9.641   9.612  0.0077 -0.2824  0.0225
   60loPI   C2B  958   0.638   9.540   9.229  0.1919  0.0579 -0.1463
   60loPI   C3B  959   0.698   9.563   8.873  0.0723  0.1627  0.1308
   60loPI   C4B  960   0.713   9.401   8.464  0.0232  0.0148 -0.2010
   61loPI    C1  961  18.457   7.608  11.054  0.0162  0.1807 -0.2565
   61loPI    C2  962  18.839   7.721  11.011  0.0674  0.0688 -0.1043
   61loPI    C3  963  18.660   7.752  11.367 -0.0562  0.0899 -0.1676
   61loPI   PO4  964  18.328   7.515  10.840 -0.1194  0.2032 -0.1545
   61loPI   GL1  965  18.268   7.568  10.397 -0.0974 -0.1753  0.1538
   61loPI   GL2  966  18.217   7.908  10.289 -0.0599  0.0599  0.0548
   61loPI   C1A  967  18.583   7.437  10.065 -0.0982  0.0839 -0.2406
   61loPI   C2A  968  18.612   7.435   9.617  0.2849  0.0229 -0.0621
   61loPI   C3A  969  18.575   7.371   9.210  0.0516 -0.2377 -0.4036
   61loPI   C4A  970  18.734   7.407   8.790  0.2406 -0.0583 -0.0322
   61loPI   C5A  971  18.675   7.231   8.419  0.2032 -0.2431  0.2149
   61loPI   C6A  972  18.329   7.263   8.072  0.0624 -0.0611  0.1545
   61loPI   C1B  973  18.429   7.938  10.081  0.1151 -0.1428 -0.1830
   61loPI   C2B  974  18.516   7.923   9.682 -0.0423 -0.0456  0.1088
   61loPI   C3B  975  18.531   7.835   9.302 -0.2451  0.1050 -0.0279
   61loPI   C4B  976  18.666   7.896   8.876 -0.1401 -0.0219  0.1575
   62loPI    C1  977   6.758   5.315  11.039 -0.0393  0.0989 -0.0654
   62loPI    C2  978   6.860   5.053  11.324 -0.0250 -0.0630 -0.2181
   62loPI    C3  979   6.700   5.405  11.425 -0.1080 -0.1576 -0.0137
   62loPI   PO4  980   6.894   5.167  10.792  0.1334  0.2948 -0.1133
   62loPI   GL1  981   6.970   5.283  10.456 -0.0214 -0.2290 -0.1968
   62loPI   GL2  982   6.960   5.597  10.398 -0.1130  0.1713 -0.5008
   62loPI   C1A  983   6.871   5.124  10.064  0.0412  0.0185  0.3478
   62loPI   C2A  984   6.876   5.192   9.606  0.1555  0.0491 -0.0602
   62loPI   C3A  985   6.885   5.193   9.168 -0.2081 -0.0024  0.0963
   62loPI   C4A  986   6.923   5.296   8.713  0.0342 -0.0128 -0.1183
   62loPI   C5A  987   6.997   5.286   8.262  0.1613 -0.1671 -0.0715
   62loPI   C6A  988   6.870   5.097   7.993  0.2220  0.1760 -0.1696
   62loPI   C1B  989   6.901   5.700   9.966 -0.4438 -0.3834 -0.3135
   62loPI   C2B  990   6.829   5.708   9.451  0.0824 -0.0807  0.2405
   62loPI   C3B  991   6.826   5.779   8.988  0.2149  0.0547  0.0508
   62loPI   C4B  992   6.645   5.759   8.499 -0.0987  0.1020  0.0787
   63loPI    C1  993  14.515   6.270  10.472  0.2375  0.1236  0.2192
   63loPI    C2  994  14.617   5.886  10.515  0.1635  0.1092  0.2664
   63loPI    C3  995  14.352   6.052  10.765 -0.0465  0.1042  0.0501
   63loPI   PO4  996  14.397   6.300  10.164  0.1129 -0.1374  0.2615
   63loPI   GL1  997  14.224   6.372   9.884  0.0417  0.3547 -0.2415
   63loPI   GL2  998  14.081   6.093   9.841  0.3621  0.0095 -0.4231
   63loPI   C1A  999  14.117   6.611   9.552  0.2185 -0.0803  0.1351
   63loPI   C2A 1000  14.179   6.673   9.109  0.0738  0.0392 -0.1085
   63loPI   C3A 1001  14.026   6.727   8.710 -0.4018  0.0606 -0.2554
   63loPI   C4A 1002  14.032   6.660   8.258 -0.1063 -0.4585 -0.0033
   63loPI   C5A 1003  13.735   6.575   7.956  0.1518 -0.0926  0.3375
   63loPI   C6A 1004  13.657   6.354   7.640 -0.0636  0.2448 -0.1959
   63loPI   C1B 1005  14.126   6.172   9.431 -0.4276  0.2339 -0.1921
   63loPI   C2B 1006  14.189   6.208   9.011 -0.5499 -0.1403  0.0999
   63loPI   C3B 1007  14.021   6.226   8.579 -0.0065 -0.1017  0.0921
   63loPI   C4B 1008  14.078   6.034   8.192 -0.0908  0.0409 -0.1721
   64loPI    C1 1009  13.339  13.120  10.219  0.2416 -0.0671  0.0469
   64loPI    C2 1010  13.277  13.078  10.612 -0.0152 -0.1002  0.0041
   64loPI    C3 1011  13.547  12.849  10.427  0.1014 -0.0895  0.1597
   64loPI   PO4 1012  13.067  13.091  10.078  0.0225 -0.0084  0.2729
   64loPI   GL1 1013  12.982  12.969   9.668  0.1603 -0.1206  0.1393
   64loPI   GL2 1014  12.589  12.877   9.590  0.2740 -0.0680 -0.1071
   64loPI   C1A 1015  13.035  12.758   9.283  0.2694 -0.1933 -0.0451
   64loPI   C2A 1016  12.889  12.643   8.909 -0.1220 -0.1661 -0.2231
   64loPI   C3A 1017  12.790  12.510   8.514 -0.0275 -0.1991  0.0858
   64loPI   C4A 1018  12.994  12.264   8.126 -0.3601 -0.1695  0.1709
   64loPI   C5A 1019  13.181  12.309   7.664  0.1144  0.2797  0.1525
   64loPI   C6A 1020  13.519  12.451   7.346  0.2923  0.0545  0.0725
   64loPI   C1B 1021  12.583  12.895   9.186 -0.0452 -0.1167 -0.2080
   64loPI   C2B 1022  12.496  12.907   8.662 -0.2260 -0.2639  0.0297
   64loPI   C3B 1023  12.510  12.909   8.273  0.4268  0.2495 -0.0804
   64loPI   C4B 1024  12.708  12.648   8.060  0.3830 -0.0176  0.1367
   65loPI    C1 1025   1.152  10.586  10.612 -0.1291 -0.1618 -0.0583
   65loPI    C2 1026   1.339  10.495  10.954  0.0523 -0.2452 -0.1782
   65loPI    C3 1027   1.413  10.844  10.772 -0.1548 -0.1360 -0.0578
   65loPI   PO4 1028   1.153  10.341  10.449 -0.2562 -0.0189  0.0931
   65loPI   GL1 1029   1.264  10.201  10.040  0.1145  0.0197  0.1157
   65loPI   GL2 1030   1.316  10.555   9.989 -0.4255 -0.0513 -0.1348
   65loPI   C1A 1031   1.124   9.990   9.635 -0.4049  0.0082  0.3056
   65loPI   C2A 1032   1.003   9.871   9.207 -0.1958  0.2392  0.0562
   65loPI   C3A 1033   1.112   9.898   8.878  0.0833 -0.1653 -0.1676
   65loPI   C4A 1034   1.075   9.731   8.422 -0.0177 -0.1811  0.1445
   65loPI   C5A 1035   1.112   9.709   7.873  0.0043 -0.0553  0.0983
   65loPI   C6A 1036   1.171   9.975   7.431  0.3126 -0.0196  0.0965
   65loPI   C1B 1037   1.496  10.386   9.626  0.2430  0.3078 -0.0300
   65loPI   C2B 1038   1.450  10.165   9.227  0.1443  0.1513  0.0283
   65loPI   C3B 1039   1.565  10.119   8.816 -0.1547  0.1480  0.0726
   65loPI   C4B 1040   1.680   9.902   8.390 -0.4352  0.0423  0.1998
   66loPI    C1 1041  18.177   5.694  10.928 -0.2636 -0.1265  0.1716
   66loPI    C2 1042  18.420   5.584  11.227  0.0995  0.0124 -0.0651
   66loPI    C3 1043  18.040   5.685  11.304  0.1749  0.0026  0.3411
   66loPI   PO4 1044  18.390   5.789  10.666 -0.1439  0.0451  0.0744
   66loPI   GL1 1045  18.197   5.892  10.243 -0.0314 -0.0100  0.2869
   66loPI   GL2 1046  18.340   6.204  10.134 -0.2517 -0.0505 -0.3590
   66loPI   C1A 1047  18.469   5.609   9.944  0.1670 -0.0048 -0.1061
   66loPI   C2A 1048  18.433   5.537   9.460 -0.1269  0.1395  0.4432
   66loPI   C3A 1049  18.471   5.499   9.056 -0.0282  0.4253  0.1583
   66loPI   C4A 1050  18.402   5.558   8.615 -0.1334 -0.1843  0.1087
   66loPI   C5A 1051  18.252   5.554   8.213  0.0866  0.0074 -0.2652
   66loPI   C6A 1052  18.229   5.760   7.833 -0.0052 -0.1690 -0.0597
   66loPI   C1B 1053  18.378   6.068   9.740 -0.1493 -0.1991  0.0373
   66loPI   C2B 1054  18.329   6.104   9.266  0.0486 -0.1937  0.0420
   66loPI   C3B 1055  18.420   5.984   8.915 -0.0476 -0.0347  0.2122
   66loPI   C4B 1056  18.404   6.049   8.390 -0.1492 -0.2291 -0.2373
   67loPI    C1 1057  17.147  13.131   9.819  0.1310 -0.2166 -0.0403
   67loPI    C2 1058  17.320  12.830  10.019  0.0207 -0.1419  0.1704
   67loPI    C3 1059  17.417  13.209  10.103 -0.0189 -0.1098  0.0743
   67loPI   PO4 1060  17.112  13.040   9.569  0.1730  0.1566  0.1774
   67loPI   GL1 1061  17.084  13.319   9.112  0.1088 -0.0582 -0.1017
   67loPI   GL2 1062  16.993  13.703   9.218  0.2335 -0.1514  0.0785
   67loPI   C1A 1063  17.052  13.213   8.681 -0.1144 -0.2049 -0.2922
   67loPI   C2A 1064  17.112  13.171   8.177  0.0743  0.0519  0.0472
   67loPI   C3A 1065  16.941  13.075   7.625  0.2233  0.0317  0.0715
   67loPI   C4A 1066  17.136  12.991   7.254 -0.0772 -0.1085  0.1307
   67loPI   C5A 1067  17.500  13.239   7.037 -0.1520 -0.1154 -0.3608
   67loPI   C6A 1068  17.765  13.227   6.691  0.2296 -0.0362 -0.0725
   67loPI   C1B 1069  17.102  13.730   8.837 -0.1897  0.0358 -0.1027
   67loPI   C2B 1070  17.285  13.714   8.439 -0.1965  0.0052 -0.0643
   67loPI   C3B 1071  17.361  13.568   7.965 -0.1841  0.0852 -0.1441
   67loPI   C4B 1072  17.404  13.613   7.577 -0.2582  0.0177 -0.1308
   68loPI    C1 1073   3.391  12.447  10.748  0.0978  0.0028  0.0179
   68loPI    C2 1074   3.230  12.259  11.063  0.1368  0.0913  0.0910
   68loPI    C3 1075   3.409  12.614  11.111  0.2779  0.0340 -0.0047
   68loPI   PO4 1076   3.460  12.274  10.554  0.1521  0.1778  0.1676
   68loPI   GL1 1077   3.369  12.229  10.148 -0.2989 -0.1382  0.1413
   68loPI   GL2 1078   3.378  11.961  10.139 -0.0717  0.0048  0.2185
   68loPI   C1A 1079   3.572  12.515   9.780 -0.0701 -0.1421 -0.1233
   68loPI   C2A 1080   3.829  12.640   9.403 -0.0027  0.0850 -0.2331
   68loPI   C3A 1081   3.878  12.799   9.059 -0.1968  0.1950  0.1313
   68loPI   C4A 1082   3.815  12.686   8.731 -0.0974 -0.1790 -0.1105
   68loPI   C5A 1083   3.882  12.557   8.291 -0.0655  0.0724  0.1489
   68loPI   C6A 1084   4.174  12.306   8.077  0.2157 -0.2104 -0.0587
   68loPI   C1B 1085   3.826  12.108   9.896  0.0583  0.3414  0.2953
   68loPI   C2B 1086   4.066  12.217   9.574  0.1648 -0.1473 -0.3049
   68loPI   C3B 1087   4.032  12.219   9.148  0.1230 -0.0723 -0.1481
   68loPI   C4B 1088   4.005  12.151   8.714  0.2504 -0.0528  0.0577
   69loPI    C1 1089   6.236  17.731  11.113 -0.1299 -0.1886  0.0575
   69loPI    C2 1090   6.253  18.066  11.330  0.1517 -0.1110 -0.0806
   69loPI    C3 1091   6.173  17.717  11.508 -0.1235  0.0239  0.0672
   69loPI   PO4 1092   6.050  17.749  10.892 -0.1317 -0.0307  0.2437
   69loPI   GL1 1093   5.831  17.951  10.573  0.2093  0.0155 -0.1325
   69loPI   GL2 1094   5.607  18.229  10.410 -0.2094 -0.2277  0.0433
   69loPI   C1A 1095   6.048  18.123  10.275  0.0516 -0.0156  0.0887
   69loPI   C2A 1096   5.939  18.160   9.791  0.1252  0.2749  0.0561
   69loPI   C3A 1097   6.003  18.190   9.437  0.2562 -0.0753 -0.0157
   69loPI   C4A 1098   5.935  18.282   9.108  0.2475 -0.0489 -0.0082
   69loPI   C5A 1099   5.985  18.285   8.716 -0.1550  0.5206  0.0544
   69loPI   C6A 1100   5.783  18.405   8.414 -0.2308 -0.4192 -0.2924
   69loPI   C1B 1101   5.505  18.359   9.991 -0.0429 -0.1902 -0.1519
   69loPI   C2B 1102   5.448  18.334   9.629  0.2449 -0.4152 -0.1302
   69loPI   C3B 1103   5.473  18.491   9.252 -0.1586  0.2786  0.0021
   69loPI   C4B 1104   5.504  18.562   8.805 -0.0810  0.1152 -0.0775
   70loPI    C1 1105   6.782  12.002  10.506  0.1289 -0.0092 -0.0924
   70loPI    C2 1106   7.008  12.190  10.777  0.1855  0.0422 -0.1749
   70loPI    C3 1107   6.676  12.364  10.637  0.1161 -0.0160 -0.0840
   70loPI   PO4 1108   6.747  11.743  10.653  0.0809  0.0683 -0.0624
   70loPI   GL1 1109   6.618  11.341  10.446 -0.3190 -0.2378 -0.0555
   70loPI   GL2 1110   6.726  11.021  10.352  0.1672 -0.1949  0.0501
   70loPI   C1A 1111   6.503  11.209   9.972 -0.0239  0.4300 -0.0400
   70loPI   C2A 1112   6.417  11.176   9.575  0.1813 -0.1375  0.0852
   70loPI   C3A 1113   6.467  11.133   9.167  0.0714  0.3479 -0.1901
   70loPI   C4A 1114   6.428  11.131   8.702  0.0554 -0.3151 -0.0776
   70loPI   C5A 1115   6.734  10.996   8.361 -0.2087  0.2059 -0.0953
   70loPI   C6A 1116   6.927  10.760   8.091 -0.0862 -0.0296  0.1018
   70loPI   C1B 1117   6.935  10.978  10.084  0.1142 -0.2124  0.0749
   70loPI   C2B 1118   6.881  11.041   9.702 -0.3409 -0.1233  0.0788
   70loPI   C3B 1119   6.876  10.986   9.353  0.1884  0.3066 -0.0809
   70loPI   C4B 1120   6.937  10.943   8.837  0.0017  0.7099  0.0768
   71loPI    C1 1121   7.245   5.485  11.017 -0.0253  0.0460  0.0259
   71loPI    C2 1122   7.511   5.622  11.282 -0.0604  0.0837  0.0418
   71loPI    C3 1123   7.303   5.290  11.362  0.0663 -0.0120 -0.0220
   71loPI   PO4 1124   7.307   5.418  10.829 -0.1035 -0.2075  0.0444
   71loPI   GL1 1125   7.478   5.482  10.425 -0.2685 -0.2742  0.1268
   71loPI   GL2 1126   7.735   5.646  10.217  0.0739  0.0038  0.0383
   71loPI   C1A 1127   7.295   5.387   9.984  0.0435 -0.4547 -0.1334
   71loPI   C2A 1128   7.284   5.521   9.497  0.1411 -0.1122  0.2106
   71loPI   C3A 1129   7.302   5.578   9.037 -0.2026 -0.0580 -0.1725
   71loPI   C4A 1130   7.211   5.657   8.573  0.2865  0.3178 -0.1464
   71loPI   C5A 1131   7.235   5.751   8.149  0.1946 -0.3333  0.1172
   71loPI   C6A 1132   7.555   5.798   7.840  0.0274  0.1565  0.4023
   71loPI   C1B 1133   7.728   5.757   9.768 -0.1510  0.2326  0.1225
   71loPI   C2B 1134   7.685   5.820   9.347 -0.1073 -0.1334  0.0562
   71loPI   C3B 1135   7.715   5.874   9.024  0.1178 -0.3349 -0.2998
   71loPI   C4B 1136   7.719   5.882   8.587 -0.0038  0.1868  0.1555
   72loPI    C1 1137  16.878  11.882  10.020  0.1783 -0.2382 -0.0563
   72loPI    C2 1138  17.134  11.976  10.312  0.0762  0.1170 -0.0766
   72loPI    C3 1139  16.826  11.733  10.387  0.2560 -0.0842  0.0181
   72loPI   PO4 1140  16.985  11.926   9.739  0.4260  0.1066  0.2689
   72loPI   GL1 1141  17.221  11.828   9.487 -0.1906  0.2299  0.3643
   72loPI   GL2 1142  17.524  11.814   9.437  0.0695 -0.0442 -0.0097
   72loPI   C1A 1143  17.105  11.825   9.025  0.0005 -0.0659 -0.2204
   72loPI   C2A 1144  17.178  11.743   8.528 -0.0686 -0.3029 -0.0354
   72loPI   C3A 1145  17.272  11.772   8.156 -0.0231 -0.0665 -0.1306
   72loPI   C4A 1146  17.521  11.673   7.853  0.2692 -0.0215  0.0047
   72loPI   C5A 1147  17.781  11.741   7.445  0.1447  0.2645  0.4699
   72loPI   C6A 1148  17.824  11.625   7.022  0.0674 -0.1765  0.0939
   72loPI   C1B 1149  17.523  11.731   8.987  0.0760  0.0529  0.0586
   72loPI   C2B 1150  17.680  11.846   8.530  0.0064 -0.0403 -0.0914
   72loPI   C3B 1151  17.879  11.879   8.094  0.0526  0.3776  0.0229
   72loPI   C4B 1152  17.988  12.039   7.810 -0.2475  0.1078 -0.1438
   73loPI    C1 1153  17.547  16.457   9.787  0.0099 -0.0937 -0.0321
   73loPI    C2 1154  17.443  16.785   9.990 -0.2033 -0.1801  0.0019
   73loPI    C3 1155  17.742  16.554  10.122 -0.0661 -0.0124 -0.0108
   73loPI   PO4 1156  17.453  16.627   9.489  0.1956 -0.0360 -0.0445
   73loPI   GL1 1157  17.379  16.569   9.011 -0.1876  0.2010  0.2795
   73loPI   GL2 1158  17.576  16.887   9.061  0.1790 -0.2359 -0.1504
   73loPI   C1A 1159  17.700  16.448   8.792  0.0050  0.3469 -0.0214
   73loPI   C2A 1160  17.772  16.523   8.419 -0.1947 -0.0718  0.1919
   73loPI   C3A 1161  18.066  16.684   8.137  0.1504  0.0800 -0.2406
   73loPI   C4A 1162  18.026  16.977   7.747 -0.0443  0.3919 -0.1739
   73loPI   C5A 1163  18.152  17.272   7.402  0.1030 -0.1132  0.1727
   73loPI   C6A 1164  18.058  17.568   7.228  0.1432  0.2046 -0.1041
   73loPI   C1B 1165  17.782  16.948   8.635  0.0619  0.1454 -0.2649
   73loPI   C2B 1166  18.131  17.162   8.349  0.1047  0.2499 -0.1044
   73loPI   C3B 1167  18.323  17.317   7.978  0.2136 -0.0076 -0.1843
   73loPI   C4B 1168  18.642  17.211   7.645  0.3701 -0.2125  0.0924
   74loPI    C1 1169  12.925   0.990  10.060 -0.0906  0.1884  0.1129
   74loPI    C2 1170  12.667   0.767  10.270  0.0689  0.0691  0.1844
   74loPI    C3 1171  13.035   0.629  10.194  0.0607  0.1722 -0.0512
   74loPI   PO4 1172  12.835   1.084   9.857 -0.1434 -0.0837  0.2975
   74loPI   GL1 1173  12.742   1.023   9.399  0.0588  0.3055  0.1285
   74loPI   GL2 1174  13.016   0.833   9.383 -0.0456 -0.0840  0.1395
   74loPI   C1A 1175  12.719   0.908   8.984  0.1538  0.0867  0.0447
   74loPI   C2A 1176  12.635   0.947   8.610  0.4024 -0.4399 -0.0658
   74loPI   C3A 1177  12.642   0.975   8.101  0.0958  0.0495  0.0013
   74loPI   C4A 1178  12.539   1.240   7.847 -0.0962  0.1595 -0.1677
   74loPI   C5A 1179  12.627   1.409   7.523 -0.1397 -0.0335 -0.0054
   74loPI   C6A 1180  12.927   1.695   7.324  0.1032  0.0362  0.1571
   74loPI   C1B 1181  13.213   0.820   8.924 -0.1919 -0.1283  0.0788
   74loPI   C2B 1182  13.047   0.725   8.460  0.0070 -0.1981  0.1026
   74loPI   C3B 1183  13.119   0.846   8.000  0.3457 -0.0082 -0.1159
   74loPI   C4B 1184  12.792   0.882   7.634  0.0629  0.1059  0.0098
   75loPI    C1 1185  15.369   2.418  10.466  0.0749 -0.0882  0.1691
   75loPI    C2 1186  15.045   2.513  10.680 -0.0055 -0.0915  0.0493
   75loPI    C3 1187  15.211   2.152  10.721 -0.0675 -0.1204  0.0486
   75loPI   PO4 1188  15.257   2.571  10.215 -0.1545 -0.2732  0.3082
   75loPI   GL1 1189  15.111   2.828   9.933  0.5061 -0.1790  0.0871
   75loPI   GL2 1190  14.712   2.873   9.856 -0.2845 -0.1761  0.0242
   75loPI   C1A 1191  15.183   2.815   9.506  0.2666  0.0808  0.4044
   75loPI   C2A 1192  15.178   2.871   9.135 -0.3568 -0.1102 -0.0464
   75loPI   C3A 1193  15.307   2.891   8.749 -0.1327  0.3187 -0.1032
   75loPI   C4A 1194  15.155   2.893   8.453 -0.2763  0.1279  0.2315
   75loPI   C5A 1195  15.236   3.095   8.072  0.1947 -0.3282 -0.2646
   75loPI   C6A 1196  15.044   3.386   7.875 -0.2210 -0.2395  0.2259
   75loPI   C1B 1197  14.717   2.983   9.440  0.1217 -0.0887  0.3132
   75loPI   C2B 1198  14.691   3.066   9.061 -0.0163 -0.3337 -0.0479
   75loPI   C3B 1199  14.686   3.074   8.607  0.3861  0.1721 -0.0185
   75loPI   C4B 1200  14.644   3.110   8.143 -0.1235 -0.4661 -0.2175
   76loPI    C1 1201  14.749   8.286  10.487  0.0662 -0.0076  0.0662
   76loPI    C2 1202  15.063   8.369  10.720 -0.0721 -0.0400  0.2664
   76loPI    C3 1203  14.863   8.026  10.769 -0.1853  0.0149  0.1912
   76loPI   PO4 1204  14.773   8.365  10.209 -0.1311 -0.2450 -0.2465
   76loPI   GL1 1205  14.678   8.525   9.841  0.0523  0.1870 -0.0067
   76loPI   GL2 1206  14.336   8.545   9.736 -0.3920  0.0228 -0.0193
   76loPI   C1A 1207  14.794   8.395   9.378  0.0736  0.1789  0.5049
   76loPI   C2A 1208  14.809   8.439   8.979  0.0416  0.0829 -0.1019
   76loPI   C3A 1209  14.760   8.375   8.544  0.1656 -0.0219 -0.0984
   76loPI   C4A 1210  14.809   8.356   8.124 -0.1775 -0.1700 -0.0334
   76loPI   C5A 1211  14.964   8.095   7.899  0.3314 -0.0641  0.2787
   76loPI   C6A 1212  15.412   8.205   7.768 -0.1888  0.2460  0.0673
   76loPI   C1B 1213  14.318   8.622   9.345 -0.3163 -0.0835  0.1324
   76loPI   C2B 1214  14.313   8.668   8.925  0.2124 -0.1209  0.1105
   76loPI   C3B 1215  14.305   8.571   8.411  0.1728  0.3039  0.3080
   76loPI   C4B 1216  14.181   8.524   8.043  0.0219  0.4827  0.1050
   77loPI    C1 1217  12.204   6.275  10.543  0.2562 -0.1351 -0.0943
   77loPI    C2 1218  12.514   6.169  10.772  0.3462  0.2146 -0.0488
   77loPI    C3 1219  12.303   6.497  10.860 -0.0125  0.0039 -0.1052
   77loPI   PO4 1220  12.135   6.047  10.465 -0.0549 -0.0805  0.0154
   77loPI   GL1 1221  11.841   5.766  10.138 -0.2911 -0.0332 -0.4988
   77loPI   GL2 1222  11.552   5.798  10.037 -0.0655  0.1534 -0.2875
   77loPI   C1A 1223  12.115   5.626   9.901  0.5161 -0.2781  0.1170
   77loPI   C2A 1224  12.060   5.557   9.446  0.2069  0.1014  0.0684
   77loPI   C3A 1225  11.866   5.589   9.037  0.1116  0.1711 -0.0182
   77loPI   C4A 1226  11.790   5.548   8.647 -0.0220  0.1914 -0.2845
   77loPI   C5A 1227  11.939   5.747   8.256  0.1745 -0.2398  0.3103
   77loPI   C6A 1228  12.095   6.014   7.888 -0.2291 -0.0124 -0.0291
   77loPI   C1B 1229  11.426   5.869   9.647  0.0817 -0.2218  0.0985
   77loPI   C2B 1230  11.440   5.741   9.265  0.1561  0.1042 -0.0869
   77loPI   C3B 1231  11.441   5.790   8.866  0.2976 -0.1746 -0.1339
   77loPI   C4B 1232  11.384   5.894   8.437  0.0776  0.0629 -0.0833
   78loPI    C1 1233   6.523  11.044  10.984 -0.1664 -0.1883 -0.0607
   78loPI    C2 1234   6.386  10.858  11.310 -0.0393  0.1962  0.2198
   78loPI    C3 1235   6.437  11.255  11.313  0.1410  0.1813 -0.2091
   78loPI   PO4 1236   6.434  10.938  10.752 -0.0114  0.0050 -0.1677
   78loPI   GL1 1237   6.165  11.069  10.415  0.1585  0.3082 -0.0537
   78loPI   GL2 1238   6.118  11.366  10.261  0.2406  0.1486  0.2789
   78loPI   C1A 1239   6.020  10.848  10.006 -0.2398  0.2198 -0.3240
   78loPI   C2A 1240   5.978  10.856   9.594 -0.4915  0.4987 -0.3112
   78loPI   C3A 1241   6.004  10.914   9.150 -0.2408 -0.0598  0.1311
   78loPI   C4A 1242   6.078  10.799   8.726 -0.1374 -0.2016 -0.0043
   78loPI   C5A 1243   6.248  10.882   8.310 -0.0545  0.1584  0.0326
   78loPI   C6A 1244   6.343  11.305   8.165 -0.2833  0.0986  0.2271
   78loPI   C1B 1245   6.012  11.327   9.869 -0.0714  0.2184  0.2816
   78loPI   C2B 1246   5.988  11.388   9.402 -0.1509 -0.0228  0.1558
   78loPI   C3B 1247   6.008  11.433   8.905 -0.0071  0.1496 -0.4830
   78loPI   C4B 1248   5.943  11.356   8.561  0.2482 -0.0257  0.2064
   79loPI    C1 1249   3.204  15.594  10.848 -0.1580  0.3750  0.1936
   79loPI    C2 1250   3.474  15.342  10.999 -0.2520  0.1011 -0.0848
   79loPI    C3 1251   3.193  15.500  11.237 -0.2508 -0.1313  0.0748
   79loPI   PO4 1252   3.136  15.583  10.586 -0.1568  0.2520  0.1892
   79loPI   GL1 1253   3.315  15.711  10.191  0.0927  0.0053 -0.2631
   79loPI   GL2 1254   3.435  16.068  10.268  0.0919  0.0206 -0.3231
   79loPI   C1A 1255   3.496  15.679   9.875  0.1150 -0.1336 -0.1268
   79loPI   C2A 1256   3.583  15.801   9.402  0.0436  0.2952 -0.0812
   79loPI   C3A 1257   3.750  15.726   8.940 -0.3425 -0.1705 -0.1323
   79loPI   C4A 1258   3.533  15.690   8.536  0.0174 -0.1629  0.0428
   79loPI   C5A 1259   3.502  15.641   8.048  0.2117  0.0846 -0.0051
   79loPI   C6A 1260   3.107  15.702   7.727  0.0070  0.6602 -0.1111
   79loPI   C1B 1261   3.481  16.238   9.899  0.0743  0.1324  0.1200
   79loPI   C2B 1262   3.518  16.301   9.473 -0.0690  0.1427 -0.0050
   79loPI   C3B 1263   3.628  16.348   9.117  0.0790  0.0216  0.0158
   79loPI   C4B 1264   3.634  16.462   8.753  0.0188  0.0043  0.1276
   80loPI    C1 1265  12.108   7.275  10.516 -0.0655 -0.1711 -0.0684
   80loPI    C2 1266  12.030   6.921  10.685 -0.1030 -0.1563 -0.0547
   80loPI    C3 1267  12.407   7.053  10.662 -0.0931 -0.1790 -0.0237
   80loPI   PO4 1268  11.990   7.284  10.341  0.2231 -0.2139  0.1775
   80loPI   GL1 1269  12.409   7.298  10.145  0.1304  0.0258 -0.0733
   80loPI   GL2 1270  12.715   7.432  10.139 -0.1103  0.0192  0.1041
   80loPI   C1A 1271  12.456   7.346   9.683 -0.1430  0.1525 -0.1440
   80loPI   C2A 1272  12.450   7.371   9.262  0.2081 -0.0143  0.0392
   80loPI   C3A 1273  12.670   7.381   8.927  0.0723 -0.0753  0.1280
   80loPI   C4A 1274  12.692   7.255   8.496  0.3321  0.1517 -0.2132
   80loPI   C5A 1275  12.793   7.160   8.065  0.4243  0.1070 -0.1928
   80loPI   C6A 1276  12.670   6.750   7.913 -0.1416 -0.0634 -0.1741
   80loPI   C1B 1277  12.903   7.640   9.743  0.1758 -0.1136  0.1576
   80loPI   C2B 1278  12.916   7.617   9.397 -0.1457  0.0539  0.0661
   80loPI   C3B 1279  13.092   7.602   8.978  0.0804  0.0065  0.2021
   80loPI   C4B 1280  13.001   7.632   8.599  0.1837  0.1881 -0.0457
   81loPI    C1 1281   4.926   9.322  10.779 -0.1929  0.1753  0.0612
   81loPI    C2 1282   5.136   9.402  11.109 -0.0523  0.2420 -0.0435
   81loPI    C3 1283   4.791   9.202  11.136 -0.0368  0.2380  0.1421
   81loPI   PO4 1284   5.198   9.280  10.585 -0.3718  0.3459 -0.0488
   81loPI   GL1 1285   5.260   9.163  10.155  0.1912 -0.0136 -0.0527
   81loPI   GL2 1286   5.471   8.910  10.185 -0.0606  0.0094 -0.1646
   81loPI   C1A 1287   5.451   9.162   9.696  0.0527 -0.0006  0.1384
   81loPI   C2A 1288   5.472   9.081   9.252  0.1126  0.1663  0.0424
   81loPI   C3A 1289   5.523   9.207   8.885  0.2230  0.3293  0.2936
   81loPI   C4A 1290   5.600   9.262   8.466 -0.2069 -0.5054  0.2069
   81loPI   C5A 1291   5.726   9.513   8.163 -0.3220  0.2935  0.0583
   81loPI   C6A 1292   6.120   9.678   8.082  0.0065 -0.1403  0.1567
   81loPI   C1B 1293   5.503   8.653   9.806  0.3395  0.1204 -0.2493
   81loPI   C2B 1294   5.471   8.579   9.343 -0.2971 -0.0900  0.0920
   81loPI   C3B 1295   5.492   8.586   8.865 -0.1492 -0.1304  0.0429
   81loPI   C4B 1296   5.643   8.697   8.512  0.2204  0.0836  0.2451
   82loPI    C1 1297   0.551   5.213  10.875  0.1322 -0.1025  0.2099
   82loPI    C2 1298   0.162   5.305  10.894  0.1226 -0.1229  0.1153
   82loPI    C3 1299   0.427   5.514  11.108  0.0825  0.0203  0.0264
   82loPI   PO4 1300   0.612   5.206  10.612  0.0138 -0.1131  0.1838
   82loPI   GL1 1301   0.644   5.355  10.275  0.0603 -0.1032 -0.2695
   82loPI   GL2 1302   0.948   5.292  10.142  0.1115  0.2932  0.3084
   82loPI   C1A 1303   0.461   5.335   9.957 -0.1564 -0.1129  0.1572
   82loPI   C2A 1304   0.439   5.344   9.559  0.1494 -0.2533  0.2690
   82loPI   C3A 1305   0.461   5.410   9.128 -0.4473 -0.2483  0.0054
   82loPI   C4A 1306   0.381   5.368   8.760 -0.0347 -0.2988  0.3862
   82loPI   C5A 1307   0.482   5.423   8.331  0.1808  0.1954 -0.1885
   82loPI   C6A 1308   0.262   5.765   8.091 -0.0980  0.0650  0.2377
   82loPI   C1B 1309   0.888   5.310   9.730 -0.1799  0.1596 -0.0228
   82loPI   C2B 1310   0.869   5.148   9.385  0.0578 -0.2822 -0.0490
   82loPI   C3B 1311   0.901   5.177   8.908  0.1502  0.2407 -0.1569
   82loPI   C4B 1312   0.944   5.237   8.470  0.0819  0.0958  0.2401
   83loPI    C1 1313   8.175   7.284  11.228  0.1170 -0.0120  0.1199
   83loPI    C2 1314   8.034   7.540  11.502  0.0644  0.2906 -0.1822
   83loPI    C3 1315   8.413   7.412  11.524 -0.0582 -0.0240  0.2679
   83loPI   PO4 1316   8.063   7.389  10.948 -0.0153  0.4014  0.0508
   83loPI   GL1 1317   8.056   7.267  10.473 -0.0515  0.0361  0.0092
   83loPI   GL2 1318   8.405   7.423  10.506 -0.1454  0.0697  0.0628
   83loPI   C1A 1319   8.011   7.112  10.072  0.0156  0.3311  0.1195
   83loPI   C2A 1320   7.980   7.047   9.605  0.0111  0.0351 -0.1869
   83loPI   C3A 1321   8.061   7.130   9.114 -0.1071 -0.0596  0.1609
   83loPI   C4A 1322   8.035   7.227   8.694  0.3476  0.2809  0.0608
   83loPI   C5A 1323   8.118   7.414   8.333  0.0736 -0.2244 -0.1190
   83loPI   C6A 1324   8.170   7.474   7.905 -0.0856 -0.4273 -0.3892
   83loPI   C1B 1325   8.391   7.421  10.096 -0.0382  0.0430 -0.0457
   83loPI   C2B 1326   8.404   7.368   9.607  0.1015 -0.1488  0.1820
   83loPI   C3B 1327   8.420   7.419   9.190  0.1090 -0.0637 -0.4122
   83loPI   C4B 1328   8.362   7.594   8.769 -0.0327  0.1608  0.1753
   84loPI    C1 1329  10.090   7.326  11.189 -0.3071  0.0805 -0.0617
   84loPI    C2 1330  10.434   7.141  11.272 -0.2242  0.1124 -0.3252
   84loPI    C3 1331  10.107   7.060  11.487  0.0633  0.4608  0.2687
   84loPI   PO4 1332  10.027   7.346  10.928 -0.0002  0.0199  0.2277
   84loPI   GL1 1333  10.008   7.294  10.450 -0.1489  0.0781 -0.1209
   84loPI   GL2 1334   9.959   7.633  10.412  0.2296 -0.0315 -0.1459
   84loPI   C1A 1335   9.937   7.148  10.038  0.1008 -0.0747  0.0923
   84loPI   C2A 1336   9.917   6.966   9.728 -0.2013  0.0938  0.0643
   84loPI   C3A 1337   9.871   6.904   9.264  0.2014  0.0913 -0.1437
   84loPI   C4A 1338   9.808   6.918   8.866 -0.2947  0.2199 -0.0570
   84loPI   C5A 1339   9.998   6.909   8.421 -0.0382 -0.0707 -0.1728
   84loPI   C6A 1340  10.398   6.893   8.107  0.4184  0.2433  0.3772
   84loPI   C1B 1341   9.901   7.666  10.031  0.1363  0.1772  0.5044
   84loPI   C2B 1342   9.815   7.464   9.602  0.3461  0.2750 -0.0602
   84loPI   C3B 1343   9.760   7.413   9.099  0.2889 -0.0808 -0.2598
   84loPI   C4B 1344   9.815   7.371   8.573 -0.0833  0.3127 -0.0046
   85loPI    C1 1345   4.061  10.291  10.501 -0.0138 -0.0201  0.1560
   85loPI    C2 1346   3.944  10.599  10.274  0.0602  0.0872  0.2622
   85loPI    C3 1347   4.017  10.654  10.663 -0.1638 -0.1165  0.3358
   85loPI   PO4 1348   3.829  10.141  10.399 -0.0955  0.2181 -0.1923
   85loPI   GL1 1349   3.618  10.010  10.077 -0.0286 -0.1023 -0.2019
   85loPI   GL2 1350   3.737  10.370   9.932  0.1084  0.1162  0.0323
   85loPI   C1A 1351   3.369   9.983   9.730  0.1627  0.0998  0.0559
   85loPI   C2A 1352   3.489   9.945   9.311 -0.0528  0.3360  0.4885
   85loPI   C3A 1353   3.411   9.937   8.898  0.0547 -0.0664  0.1166
   85loPI   C4A 1354   3.478   9.748   8.516  0.2329 -0.0409 -0.0338
   85loPI   C5A 1355   3.784   9.654   8.079 -0.3379  0.2102 -0.1238
   85loPI   C6A 1356   3.885   9.657   7.697 -0.1394 -0.2351 -0.0966
   85loPI   C1B 1357   3.726  10.286   9.528  0.3322  0.0377  0.0357
   85loPI   C2B 1358   3.762  10.254   9.126 -0.1482 -0.0470 -0.1977
   85loPI   C3B 1359   3.894  10.186   8.717 -0.1472  0.4708  0.2543
   85loPI   C4B 1360   4.022  10.086   8.343 -0.0943  0.3439  0.1233
   86loPI    C1 1361   3.332   3.928  11.266 -0.0256  0.3206  0.0281
   86loPI    C2 1362   3.019   3.679  11.280  0.1501  0.0949  0.0002
   86loPI    C3 1363   3.265   3.710  11.594  0.1278  0.2364  0.0044
   86loPI   PO4 1364   3.512   3.802  10.985 -0.0702 -0.1916  0.1135
   86loPI   GL1 1365   3.567   3.571  10.653  0.2548  0.1754 -0.2040
   86loPI   GL2 1366   3.865   3.780  10.640  0.4660  0.0632  0.1523
   86loPI   C1A 1367   3.521   3.526  10.257  0.1113 -0.1195  0.0681
   86loPI   C2A 1368   3.344   3.630   9.871 -0.1078  0.2371  0.1940
   86loPI   C3A 1369   3.553   3.783   9.448 -0.0091 -0.1344 -0.0287
   86loPI   C4A 1370   3.494   3.675   9.115  0.1913 -0.1590  0.2495
   86loPI   C5A 1371   3.498   3.651   8.766  0.1492  0.1685  0.0417
   86loPI   C6A 1372   3.462   3.729   8.295 -0.0184 -0.0336 -0.0702
   86loPI   C1B 1373   3.815   3.932  10.186 -0.0747 -0.2265  0.0110
   86loPI   C2B 1374   3.862   4.036   9.776 -0.0262  0.2572  0.4647
   86loPI   C3B 1375   3.946   4.021   9.327  0.4421 -0.2311 -0.0369
   86loPI   C4B 1376   3.841   3.927   8.900  0.0947  0.0058  0.0213
   87loPI    C1 1377   6.724  17.763  10.930 -0.3142  0.0558  0.2057
   87loPI    C2 1378   6.729  18.019  11.238  0.2270 -0.0892  0.3281
   87loPI    C3 1379   6.702  17.625  11.305 -0.1825 -0.0951  0.1590
   87loPI   PO4 1380   6.586  17.882  10.741 -0.2077  0.2612  0.0309
   87loPI   GL1 1381   6.341  17.754  10.419  0.3316  0.1118 -0.4117
   87loPI   GL2 1382   6.393  17.521  10.351  0.2395 -0.0883  0.1264
   87loPI   C1A 1383   6.534  17.926  10.103  0.0020 -0.1563 -0.0871
   87loPI   C2A 1384   6.478  17.910   9.732  0.2444 -0.1234 -0.2111
   87loPI   C3A 1385   6.481  17.982   9.367  0.2312 -0.0376 -0.2955
   87loPI   C4A 1386   6.432  18.044   8.891 -0.3813  0.0829  0.0954
   87loPI   C5A 1387   6.535  18.105   8.519 -0.1290 -0.3225  0.0808
   87loPI   C6A 1388   6.743  18.550   8.382  0.0697 -0.0476  0.5468
   87loPI   C1B 1389   6.408  17.462   9.930 -0.0027  0.3261  0.0321
   87loPI   C2B 1390   6.510  17.476   9.461 -0.0853  0.2834 -0.2520
   87loPI   C3B 1391   6.474  17.575   9.025 -0.0000 -0.0252  0.1521
   87loPI   C4B 1392   6.356  17.553   8.534  0.1560 -0.0779 -0.4458
   88loPI    C1 1393  14.375   2.340  10.213 -0.2272 -0.2055 -0.1269
   88loPI    C2 1394  14.037   2.442  10.400 -0.0402 -0.2309  0.2337
   88loPI    C3 1395  14.377   2.404  10.608  0.2114 -0.0912 -0.1415
   88loPI   PO4 1396  14.335   2.484   9.992  0.0014 -0.2088 -0.1977
   88loPI   GL1 1397  14.171   2.602   9.684 -0.1508 -0.1073 -0.0071
   88loPI   GL2 1398  14.087   2.276   9.552 -0.0597  0.0811 -0.0961
   88loPI   C1A 1399  14.270   2.732   9.278  0.0189  0.1207  0.3405
   88loPI   C2A 1400  14.262   2.780   8.881 -0.0384 -0.2235 -0.0139
   88loPI   C3A 1401  14.202   2.864   8.621  0.1533  0.2938 -0.0949
   88loPI   C4A 1402  14.279   2.781   8.160 -0.0349 -0.2168  0.4410
   88loPI   C5A 1403  14.420   2.941   7.745  0.0304 -0.2161 -0.1714
   88loPI   C6A 1404  14.404   3.372   7.679 -0.1132 -0.4430 -0.1408
   88loPI   C1B 1405  13.894   2.413   9.075 -0.0254 -0.0722 -0.0214
   88loPI   C2B 1406  13.761   2.543   8.611  0.0543 -0.1627 -0.1863
   88loPI   C3B 1407  13.682   2.663   8.177  0.0004  0.0438 -0.1153
   88loPI   C4B 1408  13.529   2.997   7.847 -0.0111 -0.3446 -0.3857
   89loPI    C1 1409   9.331  14.137  10.614 -0.1595 -0.0977  0.0575
   89loPI    C2 1410   9.126  14.154  10.957 -0.1071 -0.2713  0.0982
   89loPI    C3 1411   9.510  14.041  10.959  0.0381  0.2025  0.0420
   89loPI   PO4 1412   9.094  14.309  10.446 -0.1387 -0.0271  0.3425
   89loPI   GL1 1413   8.824  14.285  10.184  0.0167  0.1048  0.1132
   89loPI   GL2 1414   8.899  14.609  10.026 -0.0545 -0.2843  0.4421
   89loPI   C1A 1415   8.923  14.111   9.781 -0.0483 -0.3075  0.0623
   89loPI   C2A 1416   8.910  14.191   9.378  0.1451  0.1679  0.0823
   89loPI   C3A 1417   8.903  14.145   8.877  0.0109  0.1852 -0.2437
   89loPI   C4A 1418   8.799  14.223   8.439  0.0352  0.0195 -0.0306
   89loPI   C5A 1419   8.603  14.147   8.076 -0.0345  0.0142 -0.3373
   89loPI   C6A 1420   8.189  14.108   7.890 -0.0212  0.1661  0.2256
   89loPI   C1B 1421   8.890  14.691   9.586  0.0929 -0.0067 -0.0356
   89loPI   C2B 1422   8.823  14.625   9.130 -0.2535  0.3235 -0.2281
   89loPI   C3B 1423   8.729  14.680   8.641 -0.0378  0.1306 -0.0066
   89loPI   C4B 1424   8.672  14.633   8.224  0.1283  0.1029  0.1929
   90loPI    C1 1425  15.245   9.144  10.499  0.0040  0.1949  0.0285
   90loPI    C2 1426  15.301   8.865  10.780 -0.2169  0.1529  0.0325
   90loPI    C3 1427  15.347   9.252  10.871 -0.3745  0.1449  0.1511
   90loPI   PO4 1428  15.393   9.023  10.235 -0.0183 -0.0905  0.2072
   90loPI   GL1 1429  15.515   8.735   9.795  0.3445 -0.2034  0.0107
   90loPI   GL2 1430  15.751   8.480   9.733 -0.2740 -0.4211  0.0896
   90loPI   C1A 1431  15.222   8.799   9.577  0.1481  0.4641 -0.2819
   90loPI   C2A 1432  15.177   8.728   9.118 -0.1428  0.0838 -0.0275
   90loPI   C3A 1433  15.266   8.669   8.769 -0.2914 -0.0758 -0.1190
   90loPI   C4A 1434  15.156   8.683   8.341  0.2517  0.2344 -0.0718
   90loPI   C5A 1435  15.077   8.776   8.008 -0.0134  0.0462  0.1871
   90loPI   C6A 1436  15.150   8.555   7.639  0.1605 -0.0806  0.0675
   90loPI   C1B 1437  15.649   8.562   9.308 -0.2991  0.0484  0.0755
   90loPI   C2B 1438  15.680   8.497   8.921 -0.2703 -0.1080 -0.0571
   90loPI   C3B 1439  15.632   8.545   8.477 -0.1100  0.0297  0.1278
   90loPI   C4B 1440  15.610   8.671   8.021 -0.1110  0.3132 -0.1139
   91loPI    C1 1441   7.611  13.807  11.057 -0.1323 -0.2493  0.1465
   91loPI    C2 1442   7.983  13.673  10.993 -0.1144 -0.0226 -0.2649
   91loPI    C3 1443   7.830  13.672  11.363  0.4082  0.1687 -0.0397
   91loPI   PO4 1444   7.455  13.833  10.835 -0.2036  0.1591  0.1267
   91loPI   GL1 1445   7.433  13.927  10.454  0.0637 -0.0915 -0.3653
   91loPI   GL2 1446   7.026  13.876  10.283  0.1269 -0.0968  0.2655
   91loPI   C1A 1447   7.464  13.741  10.060 -0.1155 -0.2662  0.1699
   91loPI   C2A 1448   7.563  13.704   9.639  0.6468 -0.1616  0.2134
   91loPI   C3A 1449   7.675  13.697   9.235 -0.1810 -0.0833  0.0141
   91loPI   C4A 1450   7.524  13.680   8.843 -0.1236 -0.1066  0.0845
   91loPI   C5A 1451   7.465  13.757   8.437 -0.1097  0.4613  0.0941
   91loPI   C6A 1452   7.423  14.153   8.124  0.1704 -0.1616 -0.0824
   91loPI   C1B 1453   6.989  13.903   9.900  0.3098  0.3368  0.0674
   91loPI   C2B 1454   6.924  13.882   9.401  0.3502  0.0137  0.0979
   91loPI   C3B 1455   7.055  13.888   8.983 -0.0326 -0.0297  0.3021
   91loPI   C4B 1456   7.022  13.827   8.524 -0.1059 -0.0648  0.2451
   92loPI    C1 1457   4.633   5.024  11.723  0.1514  0.0703  0.0347
   92loPI    C2 1458   4.764   5.340  11.931 -0.0701  0.2419 -0.0820
   92loPI    C3 1459   4.380   5.229  11.956 -0.0190  0.0496 -0.1303
   92loPI   PO4 1460   4.835   4.991  11.486  0.0708  0.2638  0.1272
   92loPI   GL1 1461   4.788   5.140  11.116 -0.1602  0.2209  0.2751
   92loPI   GL2 1462   4.504   5.156  11.033  0.2059 -0.1661 -0.0891
   92loPI   C1A 1463   4.946   4.931  10.699 -0.2074 -0.0999  0.0539
   92loPI   C2A 1464   5.045   4.868  10.253  0.2894  0.1768  0.0543
   92loPI   C3A 1465   5.150   4.868   9.872 -0.0709 -0.1335 -0.1210
   92loPI   C4A 1466   5.150   4.969   9.439 -0.3144 -0.1724  0.0523
   92loPI   C5A 1467   5.128   4.839   9.030  0.1874  0.0322  0.0082
   92loPI   C6A 1468   5.054   4.598   8.685  0.0983 -0.4208 -0.0782
   92loPI   C1B 1469   4.488   5.109  10.552  0.1919 -0.0403  0.1212
   92loPI   C2B 1470   4.546   5.097  10.088 -0.2157  0.3433 -0.3773
   92loPI   C3B 1471   4.737   5.086   9.717  0.1235  0.1740 -0.2074
   92loPI   C4B 1472   4.635   5.076   9.242  0.0959 -0.3046  0.1191
   93loPI    C1 1473  15.733   2.967  10.584 -0.1342 -0.1186  0.1890
   93loPI    C2 1474  15.435   2.922  10.846 -0.0740 -0.0137  0.2763
   93loPI    C3 1475  15.500   3.278  10.677 -0.2089 -0.1174  0.0009
   93loPI   PO4 1476  15.674   2.828  10.396  0.2626  0.0389 -0.5601
   93loPI   GL1 1477  15.682   2.733  10.018 -0.1674  0.0696  0.2669
   93loPI   GL2 1478  15.579   2.574   9.722  0.1704 -0.1667 -0.0807
   93loPI   C1A 1479  16.021   2.880   9.728  0.0792  0.2178 -0.1233
   93loPI   C2A 1480  16.064   3.017   9.382 -0.0986  0.1827 -0.0647
   93loPI   C3A 1481  16.123   3.064   9.015 -0.5427 -0.0767  0.0722
   93loPI   C4A 1482  16.007   3.044   8.593 -0.0470  0.0269 -0.0198
   93loPI   C5A 1483  16.150   3.004   8.223  0.0878  0.0748 -0.0415
   93loPI   C6A 1484  16.074   2.809   7.821 -0.1715  0.4291 -0.1470
   93loPI   C1B 1485  15.631   2.632   9.222 -0.3331  0.0637 -0.0820
   93loPI   C2B 1486  15.692   2.645   8.713  0.0291 -0.2221  0.1266
   93loPI   C3B 1487  15.663   2.802   8.298 -0.2466 -0.2337 -0.2113
   93loPI   C4B 1488  15.734   3.139   7.992 -0.1906  0.1313  0.1495
   94loPI    C1 1489  15.749   5.738  10.624 -0.1010  0.1290 -0.1557
   94loPI    C2 1490  15.435   5.491  10.601  0.0719 -0.1096  0.0002
   94loPI    C3 1491  15.594   5.579  10.957  0.1201  0.0909 -0.0695
   94loPI   PO4 1492  15.781   5.939  10.343  0.0191 -0.0495 -0.0530
   94loPI   GL1 1493  16.033   5.925   9.977 -0.0254 -0.0750  0.0014
   94loPI   GL2 1494  16.325   6.025  10.018  0.0445 -0.1454 -0.3818
   94loPI   C1A 1495  16.170   5.937   9.529  0.1931  0.0896  0.0811
   94loPI   C2A 1496  16.172   5.995   9.060  0.0502  0.0316  0.3620
   94loPI   C3A 1497  15.983   5.806   8.626  0.0854 -0.1673 -0.1340
   94loPI   C4A 1498  15.978   5.948   8.201  0.0467 -0.0785 -0.1596
   94loPI   C5A 1499  15.927   6.200   7.825  0.0449  0.1394  0.1841
   94loPI   C6A 1500  16.146   6.318   7.485  0.1703 -0.1678 -0.2141
   94loPI   C1B 1501  16.513   6.263   9.711  0.0083 -0.3892 -0.5088
   94loPI   C2B 1502  16.554   6.408   9.283  0.0951 -0.3783  0.1890
   94loPI   C3B 1503  16.443   6.367   8.869 -0.0137  0.1878  0.0801
   94loPI   C4B 1504  16.297   6.254   8.514 -0.0741 -0.0108  0.0677
   95loPI    C1 1505  10.125  10.012  10.774  0.1517 -0.0102  0.0436
   95loPI    C2 1506   9.798   9.793  10.849 -0.0360  0.2328 -0.0493
   95loPI    C3 1507  10.145   9.704  11.028 -0.1185 -0.1128 -0.0562
   95loPI   PO4 1508  10.051  10.141  10.539 -0.0272  0.0454  0.3132
   95loPI   GL1 1509  10.115  10.282  10.079  0.1711  0.1912  0.0519
   95loPI   GL2 1510  10.199  10.239   9.702  0.2032 -0.4041  0.0069
   95loPI   C1A 1511   9.915   9.884   9.797 -0.1345  0.0224  0.0087
   95loPI   C2A 1512   9.776   9.743   9.303 -0.0988  0.0315 -0.0036
   95loPI   C3A 1513   9.915   9.744   8.855 -0.0901 -0.1149 -0.0420
   95loPI   C4A 1514   9.960   9.971   8.496  0.1583  0.1615  0.0432
   95loPI   C5A 1515   9.861   9.953   8.127  0.3889  0.2697 -0.1827
   95loPI   C6A 1516   9.920  10.033   7.681 -0.1355 -0.0280  0.1625
   95loPI   C1B 1517  10.360  10.262   9.256  0.1409 -0.1177 -0.2172
   95loPI   C2B 1518  10.335  10.181   8.784 -0.1309 -0.2399 -0.0663
   95loPI   C3B 1519  10.394  10.278   8.329  0.2777  0.2690  0.2095
   95loPI   C4B 1520  10.605  10.445   8.001 -0.0957  0.1543 -0.0325
   96loPI    C1 1521   3.018  15.111  10.754  0.0975  0.2478  0.1248
   96loPI    C2 1522   2.647  15.001  10.851  0.1075  0.1260  0.0270
   96loPI    C3 1523   2.782  15.362  10.956  0.0017  0.1262  0.1648
   96loPI   PO4 1524   3.004  14.907  10.507 -0.2470 -0.1370 -0.5970
   96loPI   GL1 1525   3.390  14.665  10.193  0.1006  0.0913 -0.1920
   96loPI   GL2 1526   3.076  14.748   9.934 -0.1153  0.3012  0.1132
   96loPI   C1A 1527   3.608  14.782   9.736 -0.2112  0.2833 -0.3191
   96loPI   C2A 1528   3.581  14.802   9.305 -0.2166  0.1754  0.0525
   96loPI   C3A 1529   3.716  14.691   8.816  0.1847  0.1583  0.1546
   96loPI   C4A 1530   3.698  14.789   8.462  0.1298  0.1818  0.2142
   96loPI   C5A 1531   3.618  14.743   8.005 -0.1288 -0.1579 -0.0523
   96loPI   C6A 1532   3.538  14.288   7.885  0.2539 -0.1347 -0.1905
   96loPI   C1B 1533   3.107  14.701   9.523 -0.0907  0.3434 -0.0862
   96loPI   C2B 1534   3.105  14.723   9.130 -0.0921 -0.4560 -0.0318
   96loPI   C3B 1535   3.300  14.861   8.726 -0.0403  0.2282 -0.6580
   96loPI   C4B 1536   3.036  14.975   8.472 -0.0421 -0.1435  0.1403
   97loPI    C1 1537  17.286  13.549   9.577 -0.1068 -0.1366 -0.0845
   97loPI    C2 1538  17.229  13.610   9.968  0.1230  0.0903 -0.0841
   97loPI    C3 1539  17.122  13.891   9.704  0.2627  0.0735 -0.1596
   97loPI   PO4 1540  17.487  13.378   9.615 -0.3570 -0.0319  0.1354
   97loPI   GL1 1541  17.709  13.239   9.351  0.0690  0.1885  0.1679
   97loPI   GL2 1542  17.987  13.190   9.551 -0.1764 -0.2664 -0.2590
   97loPI   C1A 1543  17.553  12.909   9.007  0.1331 -0.1696  0.0817
   97loPI   C2A 1544  17.587  12.662   8.555  0.2096 -0.0944 -0.1169
   97loPI   C3A 1545  17.698  12.347   8.293  0.2366 -0.0946 -0.0837
   97loPI   C4A 1546  17.481  12.213   7.902  0.3698 -0.0231 -0.0087
   97loPI   C5A 1547  17.275  12.499   7.590  0.2910  0.2531  0.2571
   97loPI   C6A 1548  17.492  12.656   7.276  0.0958 -0.1337  0.1758
   97loPI   C1B 1549  18.086  13.037   9.118 -0.0728  0.0656 -0.2321
   97loPI   C2B 1550  18.055  12.893   8.686 -0.0009 -0.3617  0.0749
   97loPI   C3B 1551  17.901  12.854   8.259 -0.0679 -0.0811 -0.1439
   97loPI   C4B 1552  17.932  12.809   7.806 -0.1699 -0.1176 -0.0149
   98loPI    C1 1553   9.949  15.815  10.828  0.1226 -0.1251 -0.1327
   98loPI    C2 1554   9.978  15.774  11.225 -0.0503  0.1162 -0.0931
   98loPI    C3 1555  10.229  16.017  11.030  0.0405 -0.0093 -0.1341
   98loPI   PO4 1556   9.678  15.757  10.731  0.0460  0.2975 -0.2180
   98loPI   GL1 1557   9.461  15.768  10.301 -0.1238  0.0160  0.1571
   98loPI   GL2 1558   9.618  15.978  10.025  0.1271  0.3701  0.0507
   98loPI   C1A 1559   9.336  15.518   9.918  0.1829 -0.1817 -0.0657
   98loPI   C2A 1560   9.205  15.460   9.489  0.0415  0.0185  0.2645
   98loPI   C3A 1561   9.142  15.362   9.035 -0.1493 -0.1902 -0.0062
   98loPI   C4A 1562   9.017  15.521   8.637  0.4194  0.2649 -0.0964
   98loPI   C5A 1563   8.934  15.505   8.285  0.1012  0.0368 -0.1558
   98loPI   C6A 1564   9.168  15.390   7.913  0.1719 -0.1175  0.0731
   98loPI   C1B 1565   9.652  15.830   9.580  0.2047  0.0632 -0.2804
   98loPI   C2B 1566   9.554  15.834   9.121  0.1439  0.1525  0.3334
   98loPI   C3B 1567   9.494  15.781   8.737  0.0157  0.0793  0.1601
   98loPI   C4B 1568   9.415  15.920   8.468  0.1355  0.1538 -0.0648
   99loPI    C1 1569  10.507   9.277  10.451  0.2255  0.3264 -0.4317
   99loPI    C2 1570  10.142   9.210  10.304  0.0106 -0.5641  0.4002
   99loPI    C3 1571  10.184   9.387  10.660  0.4161 -0.2455  0.2023
   99loPI   PO4 1572  10.680   9.401  10.304  0.2359  0.3154 -0.2945
   99loPI   GL1 1573  10.825   9.233   9.976  0.1553 -0.0012 -0.0292
   99loPI   GL2 1574  11.070   9.099   9.926 -0.0027 -0.1321  0.1276
   99loPI   C1A 1575  10.673   9.180   9.552 -0.0630  0.2123 -0.3661
   99loPI   C2A 1576  10.419   9.135   9.177 -0.0934 -0.0739 -0.1820
   99loPI   C3A 1577  10.455   9.071   8.729 -0.2620  0.0486 -0.2183
   99loPI   C4A 1578  10.519   9.199   8.272 -0.2244 -0.0130  0.1512
   99loPI   C5A 1579  10.828   9.109   7.946 -0.0032  0.6634  0.2114
   99loPI   C6A 1580  11.162   8.837   7.706 -0.2287  0.1027 -0.2020
   99loPI   C1B 1581  11.317   9.278   9.596 -0.4579  0.1538  0.1373
   99loPI   C2B 1582  11.251   9.111   9.251  0.0419 -0.2957  0.0989
   99loPI   C3B 1583  10.931   9.068   8.916  0.0906 -0.0082 -0.2605
   99loPI   C4B 1584  11.008   9.024   8.491 -0.1413 -0.2352  0.0223
  100loPI    C1 1585  18.161  10.340  10.607  0.0806 -0.0468 -0.0322
  100loPI    C2 1586  18.124   9.947  10.548 -0.0642 -0.0470  0.0552
  100loPI    C3 1587  17.799  10.180  10.549  0.0498  0.1201 -0.3164
  100loPI   PO4 1588  18.270  10.431  10.406 -0.3051  0.3980  0.2433
  100loPI   GL1 1589  18.255  10.733  10.054  0.1042  0.0161  0.1591
  100loPI   GL2 1590  18.462  10.588   9.773 -0.0307 -0.2784  0.2212
  100loPI   C1A 1591  18.054  11.026   9.668  0.3470 -0.2364  0.0099
  100loPI   C2A 1592  18.009  10.940   9.258 -0.0462  0.2078 -0.0092
  100loPI   C3A 1593  18.057  10.939   8.854  0.0408  0.0847 -0.2762
  100loPI   C4A 1594  18.099  10.966   8.444 -0.0167  0.1330  0.0220
  100loPI   C5A 1595  18.095  10.852   8.006  0.2361 -0.2695  0.1893
  100loPI   C6A 1596  18.248  10.850   7.576 -0.0601  0.1070  0.1163
  100loPI   C1B 1597  18.599  10.314   9.421  0.2089  0.0394  0.4452
  100loPI   C2B 1598  18.590  10.305   8.998 -0.5308 -0.2106  0.1979
  100loPI   C3B 1599  18.650  10.185   8.623 -0.0334  0.3408  0.2373
  100loPI   C4B 1600  18.596  10.045   8.193  0.2591 -0.0230  0.0042
  101loPI    C1 1601   1.720   7.169  10.914  0.3835  0.0219 -0.1036
  101loPI    C2 1602   1.776   7.477  11.162 -0.0828  0.0319 -0.0029
  101loPI    C3 1603   1.751   7.105  11.307 -0.1921  0.0204 -0.0501
  101loPI   PO4 1604   1.824   7.237  10.652 -0.0406 -0.1849  0.0325
  101loPI   GL1 1605   1.794   7.115  10.248 -0.1377  0.0242 -0.1340
  101loPI   GL2 1606   1.447   7.056  10.254 -0.0916 -0.3241 -0.1795
  101loPI   C1A 1607   1.967   7.215   9.786 -0.2800 -0.1128 -0.0823
  101loPI   C2A 1608   2.006   7.109   9.296 -0.1712  0.3410 -0.3249
  101loPI   C3A 1609   2.028   7.208   8.888  0.1544  0.1642 -0.1849
  101loPI   C4A 1610   1.948   7.128   8.389  0.0360  0.0780 -0.0129
  101loPI   C5A 1611   2.209   7.222   8.062  0.1134  0.2662 -0.2505
  101loPI   C6A 1612   2.714   7.181   7.967 -0.1487  0.1529  0.0508
  101loPI   C1B 1613   1.508   6.854   9.829 -0.1274  0.3470 -0.2750
  101loPI   C2B 1614   1.565   6.748   9.391 -0.1968 -0.0747  0.0826
  101loPI   C3B 1615   1.703   6.832   8.951  0.1212  0.1356  0.0345
  101loPI   C4B 1616   1.585   6.820   8.549  0.0374  0.3475 -0.1228
  102loPI    C1 1617  14.532  17.558   9.906 -0.0263  0.0782 -0.0343
  102loPI    C2 1618  14.196  17.533  10.121 -0.0207  0.0767 -0.0258
  102loPI    C3 1619  14.521  17.706  10.277  0.0121 -0.0096  0.0019
  102loPI   PO4 1620  14.466  17.554   9.685 -0.1254  0.1384 -0.1492
  102loPI   GL1 1621  14.764  17.631   9.318  0.2361  0.1678  0.2049
  102loPI   GL2 1622  14.690  17.909   9.150 -0.0555  0.1982 -0.0906
  102loPI   C1A 1623  14.907  17.509   8.945  0.4415 -0.0749  0.0467
  102loPI   C2A 1624  14.907  17.487   8.534 -0.1236 -0.1617 -0.2317
  102loPI   C3A 1625  14.714  17.624   8.117  0.0507 -0.3389 -0.3496
  102loPI   C4A 1626  14.478  17.633   7.768 -0.2010 -0.2870  0.2692
  102loPI   C5A 1627  14.348  17.605   7.365  0.1461 -0.3402 -0.2698
  102loPI   C6A 1628  14.285  17.781   6.953 -0.2377  0.0126 -0.2369
  102loPI   C1B 1629  14.656  17.988   8.693 -0.1990 -0.1470 -0.2581
  102loPI   C2B 1630  14.876  18.038   8.332 -0.1229 -0.2875 -0.0101
  102loPI   C3B 1631  14.955  18.086   7.905  0.5588  0.0249 -0.0964
  102loPI   C4B 1632  14.910  18.282   7.526 -0.1413  0.2568 -0.0698
  103loPI    C1 1633   3.722   3.037  11.414  0.0222 -0.0133  0.0487
  103loPI    C2 1634   3.443   2.759  11.484 -0.1826  0.2007  0.0951
  103loPI    C3 1635   3.350   3.147  11.511  0.0919  0.2756 -0.0029
  103loPI   PO4 1636   3.865   3.010  11.071  0.1750 -0.2874  0.2259
  103loPI   GL1 1637   3.774   3.137  10.699 -0.0560  0.2961  0.0093
  103loPI   GL2 1638   4.091   3.289  10.642 -0.1050 -0.1367 -0.0158
  103loPI   C1A 1639   3.602   3.078  10.267 -0.2966  0.0714  0.0580
  103loPI   C2A 1640   3.640   3.151   9.875 -0.1950 -0.0871  0.0189
  103loPI   C3A 1641   3.595   3.180   9.342  0.1237  0.0110 -0.1664
  103loPI   C4A 1642   3.638   3.159   8.930 -0.2439  0.2800 -0.1852
  103loPI   C5A 1643   3.593   3.065   8.543 -0.0798 -0.0395  0.1864
  103loPI   C6A 1644   3.474   2.791   8.290  0.0023 -0.0214 -0.4068
  103loPI   C1B 1645   4.147   3.474  10.298 -0.2154  0.0828  0.4683
  103loPI   C2B 1646   3.901   3.532   9.909  0.4599  0.2378  0.1619
  103loPI   C3B 1647   3.912   3.534   9.564 -0.1803 -0.3656 -0.3262
  103loPI   C4B 1648   3.936   3.489   9.153  0.0433 -0.1379 -0.0244
  104loPI    C1 1649  13.973   9.105  10.432 -0.1785 -0.3390  0.1325
  104loPI    C2 1650  13.937   9.227  10.812 -0.1102 -0.3212  0.1334
  104loPI    C3 1651  14.120   8.880  10.729  0.0091 -0.2525  0.1069
  104loPI   PO4 1652  13.747   9.160  10.315 -0.0361  0.1161 -0.0901
  104loPI   GL1 1653  13.611   8.882   9.965  0.3404  0.3240 -0.0389
  104loPI   GL2 1654  13.331   8.942   9.696 -0.0762 -0.2454 -0.1191
  104loPI   C1A 1655  13.837   8.855   9.572  0.0973  0.0196 -0.1196
  104loPI   C2A 1656  13.776   8.854   9.148 -0.0255 -0.0549  0.1372
  104loPI   C3A 1657  13.820   8.867   8.772 -0.0892  0.0048  0.0153
  104loPI   C4A 1658  13.836   8.722   8.332 -0.2224  0.1244  0.3014
  104loPI   C5A 1659  13.608   8.708   7.931 -0.1488  0.0732 -0.5160
  104loPI   C6A 1660  13.450   8.957   7.559  0.2863 -0.1692 -0.0132
  104loPI   C1B 1661  13.337   9.037   9.338 -0.1134 -0.2102 -0.3483
  104loPI   C2B 1662  13.287   8.954   8.935  0.0857  0.0706 -0.1520
  104loPI   C3B 1663  13.373   8.846   8.482 -0.0440  0.1422 -0.0240
  104loPI   C4B 1664  13.200   8.901   8.046 -0.1058 -0.0929 -0.1695
  105loPI    C1 1665  16.482   1.175  10.007  0.2324 -0.0174 -0.0732
  105loPI    C2 1666  16.514   1.478  10.266 -0.1074 -0.0264 -0.0156
  105loPI    C3 1667  16.449   1.106  10.400 -0.0024 -0.0762 -0.1013
  105loPI   PO4 1668  16.633   1.298   9.786 -0.1368 -0.0589  0.1453
  105loPI   GL1 1669  16.783   1.216   9.478 -0.2239 -0.2584  0.1431
  105loPI   GL2 1670  17.136   1.342   9.330  0.1066 -0.2165 -0.1634
  105loPI   C1A 1671  16.766   1.234   9.118 -0.1083  0.2911  0.0540
  105loPI   C2A 1672  16.828   1.193   8.714  0.1003 -0.3181 -0.2334
  105loPI   C3A 1673  16.934   1.211   8.265 -0.0428 -0.0409  0.0562
  105loPI   C4A 1674  16.978   1.247   7.852 -0.3043 -0.2551  0.1299
  105loPI   C5A 1675  16.930   1.151   7.458 -0.0254  0.3872  0.2288
  105loPI   C6A 1676  16.824   1.045   7.137  0.2123 -0.1221 -0.0443
  105loPI   C1B 1677  17.274   1.478   8.875 -0.0204 -0.2695  0.2899
  105loPI   C2B 1678  17.217   1.585   8.487 -0.2335  0.3378 -0.1019
  105loPI   C3B 1679  17.278   1.571   8.086 -0.0362 -0.2743  0.0981
  105loPI   C4B 1680  17.265   1.659   7.685  0.3082  0.2930 -0.0699
  106loPI    C1 1681  17.710  14.545  10.212 -0.1468  0.0053  0.0418
  106loPI    C2 1682  17.797  14.880  10.411  0.0260  0.0022 -0.0268
  106loPI    C3 1683  17.720  14.543  10.611 -0.0565  0.0605  0.0401
  106loPI   PO4 1684  17.702  14.557  10.003 -0.0199  0.0054  0.0129
  106loPI   GL1 1685  17.420  14.481   9.585  0.1078 -0.0186 -0.1011
  106loPI   GL2 1686  17.601  14.377   9.479 -0.1137 -0.0309  0.0428
  106loPI   C1A 1687  17.505  14.814   9.183 -0.0219  0.0586 -0.2902
  106loPI   C2A 1688  17.457  14.894   8.679  0.0328  0.1163  0.3058
  106loPI   C3A 1689  17.413  14.887   8.230 -0.2207 -0.1902 -0.0391
  106loPI   C4A 1690  17.291  15.050   7.835 -0.3042  0.0400 -0.0432
  106loPI   C5A 1691  17.202  15.352   7.409  0.1498 -0.1400 -0.0125
  106loPI   C6A 1692  17.101  15.597   7.155 -0.0298  0.0400 -0.0798
  106loPI   C1B 1693  17.798  14.412   9.084 -0.1328  0.0492  0.2935
  106loPI   C2B 1694  17.940  14.565   8.597  0.3153 -0.0536 -0.1963
  106loPI   C3B 1695  18.004  14.629   8.280  0.0536  0.3883  0.0040
  106loPI   C4B 1696  18.275  14.645   7.931  0.2939  0.0447  0.0603
  107loPI    C1 1697   6.798   6.371  11.054  0.1003 -0.1577 -0.1799
  107loPI    C2 1698   6.928   6.747  11.094  0.1233 -0.1596 -0.2359
  107loPI    C3 1699   7.105   6.452  11.297 -0.0703 -0.1030  0.0195
  107loPI   PO4 1700   6.805   6.318  10.884 -0.2233  0.2686  0.1180
  107loPI   GL1 1701   6.879   6.316  10.517  0.2199 -0.0575 -0.1299
  107loPI   GL2 1702   7.126   6.147  10.478 -0.1336  0.1361 -0.0531
  107loPI   C1A 1703   6.814   6.244  10.079  0.3553 -0.0164  0.0149
  107loPI   C2A 1704   6.738   6.249   9.668 -0.1547 -0.0488 -0.2228
  107loPI   C3A 1705   6.743   6.201   9.279 -0.0116 -0.1248 -0.1253
  107loPI   C4A 1706   6.754   6.242   8.766 -0.4133 -0.3504 -0.0270
  107loPI   C5A 1707   6.727   6.270   8.313  0.1147  0.1386  0.1260
  107loPI   C6A 1708   6.599   6.382   7.868 -0.0785 -0.0596  0.1456
  107loPI   C1B 1709   7.294   6.073   9.978  0.2417  0.0554  0.0337
  107loPI   C2B 1710   7.238   6.002   9.583  0.1296 -0.3449  0.1183
  107loPI   C3B 1711   7.214   6.029   9.168  0.0979 -0.0632  0.3843
  107loPI   C4B 1712   7.359   6.113   8.771  0.3263 -0.3683  0.1872
  108loPI    C1 1713   8.024   1.389  10.907  0.3074  0.1519  0.1856
  108loPI    C2 1714   8.040   1.044  11.109  0.2152  0.0792  0.0697
  108loPI    C3 1715   8.130   1.387  11.293 -0.0356  0.0337  0.2829
  108loPI   PO4 1716   8.069   1.304  10.691 -0.0515 -0.1724 -0.3078
  108loPI   GL1 1717   7.943   1.317  10.348 -0.2662 -0.3429  0.0485
  108loPI   GL2 1718   8.013   0.976  10.180 -0.0674  0.1559 -0.0990
  108loPI   C1A 1719   8.031   1.354   9.818  0.0749  0.1007 -0.1806
  108loPI   C2A 1720   8.108   1.437   9.307  0.0446 -0.0865 -0.2562
  108loPI   C3A 1721   7.928   1.442   8.924  0.0263  0.2253  0.0844
  108loPI   C4A 1722   7.868   1.570   8.490 -0.0629  0.1675 -0.0068
  108loPI   C5A 1723   7.996   1.534   8.088  0.2742  0.0613 -0.1704
  108loPI   C6A 1724   8.377   1.487   7.938 -0.0702 -0.0021  0.3101
  108loPI   C1B 1725   8.034   0.828   9.719  0.2329 -0.0632 -0.4117
  108loPI   C2B 1726   8.058   0.929   9.351  0.0325 -0.0625 -0.0287
  108loPI   C3B 1727   8.017   0.866   8.919  0.0936 -0.0434 -0.1628
  108loPI   C4B 1728   8.042   0.991   8.520  0.0183 -0.1134 -0.0600
  109loPI    C1 1729   8.297   6.496  11.077  0.1848 -0.0310 -0.1409
  109loPI    C2 1730   8.150   6.234  11.341 -0.0917  0.0780 -0.1834
  109loPI    C3 1731   8.484   6.437  11.425 -0.0165 -0.1013 -0.0430
  109loPI   PO4 1732   8.430   6.360  10.843  0.0854 -0.2869 -0.0403
  109loPI   GL1 1733   8.471   6.433  10.405  0.3110  0.4383  0.1466
  109loPI   GL2 1734   8.212   6.610  10.442 -0.0602 -0.3638 -0.0079
  109loPI   C1A 1735   8.417   6.331   9.969  0.3562  0.2110 -0.0955
  109loPI   C2A 1736   8.530   6.421   9.534  0.0603 -0.0577  0.1393
  109loPI   C3A 1737   8.622   6.438   9.105  0.4194 -0.1558  0.0395
  109loPI   C4A 1738   8.583   6.455   8.679  0.0024 -0.0028 -0.0194
  109loPI   C5A 1739   8.532   6.534   8.325  0.0288 -0.3975 -0.1526
  109loPI   C6A 1740   8.382   6.259   8.009 -0.2362 -0.1975  0.3199
  109loPI   C1B 1741   8.074   6.643   9.982  0.0153 -0.0932  0.3403
  109loPI   C2B 1742   7.998   6.588   9.495 -0.0216  0.0001  0.0227
  109loPI   C3B 1743   8.093   6.648   9.124  0.1343  0.1441 -0.0412
  109loPI   C4B 1744   8.078   6.684   8.733 -0.1064  0.3822  0.0421
  110loPI    C1 1745   4.877   3.475  11.334 -0.0068  0.1652  0.1066
  110loPI    C2 1746   5.216   3.280  11.417  0.0079  0.0872 -0.1282
  110loPI    C3 1747   5.199   3.677  11.457  0.0222  0.0564  0.2108
  110loPI   PO4 1748   4.803   3.406  11.072 -0.1764 -0.0352 -0.0651
  110loPI   GL1 1749   4.720   3.185  10.735 -0.3027  0.1818 -0.0118
  110loPI   GL2 1750   5.037   3.374  10.566  0.1955 -0.2506  0.1165
  110loPI   C1A 1751   4.623   3.069  10.325  0.3237 -0.2243  0.2520
  110loPI   C2A 1752   4.468   3.231   9.913  0.0139 -0.0282 -0.1889
  110loPI   C3A 1753   4.439   3.274   9.519  0.0502  0.0718  0.1427
  110loPI   C4A 1754   4.533   3.194   9.009 -0.3457  0.0331 -0.1377
  110loPI   C5A 1755   4.764   3.356   8.687 -0.0347 -0.1158 -0.2533
  110loPI   C6A 1756   4.922   3.778   8.544 -0.0348 -0.0795 -0.1110
  110loPI   C1B 1757   5.072   3.784  10.429  0.0947  0.2023 -0.1691
  110loPI   C2B 1758   5.261   3.921  10.046  0.0126  0.1341 -0.1365
  110loPI   C3B 1759   5.297   3.809   9.646 -0.0233  0.0407 -0.0617
  110loPI   C4B 1760   5.352   3.865   9.293 -0.0674  0.1678 -0.0681
  111loPI    C1 1761   6.556   5.897  11.094  0.1345  0.1028 -0.2355
  111loPI    C2 1762   6.313   6.181  10.950 -0.1692 -0.0518 -0.0394
  111loPI    C3 1763   6.414   6.182  11.337 -0.0344 -0.1152 -0.0739
  111loPI   PO4 1764   6.372   5.646  10.921 -0.0804 -0.1438  0.0007
  111loPI   GL1 1765   6.082   5.708  10.519  0.3275 -0.0055  0.0128
  111loPI   GL2 1766   5.942   6.002  10.664 -0.1120  0.2210 -0.0160
  111loPI   C1A 1767   5.943   5.513  10.243 -0.1163 -0.1682  0.1661
  111loPI   C2A 1768   5.914   5.525   9.930  0.0634  0.1671  0.2007
  111loPI   C3A 1769   5.963   5.623   9.459  0.1266 -0.2789 -0.1423
  111loPI   C4A 1770   5.921   5.538   9.002  0.0508 -0.3084 -0.1935
  111loPI   C5A 1771   6.000   5.556   8.613  0.0310 -0.0187 -0.0204
  111loPI   C6A 1772   6.216   5.854   8.271 -0.1095 -0.1033 -0.2645
  111loPI   C1B 1773   5.866   6.086  10.164 -0.3266  0.2965 -0.2438
  111loPI   C2B 1774   5.887   6.131   9.671  0.0082  0.1583  0.1106
  111loPI   C3B 1775   5.912   6.071   9.251  0.2814  0.0676 -0.2170
  111loPI   C4B 1776   5.948   6.048   8.771  0.2788 -0.0312 -0.2460
  112loPI    C1 1777  12.431  18.468  10.167 -0.2131  0.0958  0.0316
  112loPI    C2 1778  12.356  18.856  10.103  0.0779  0.1512  0.0152
  112loPI    C3 1779  12.723  18.737  10.209 -0.0756 -0.0897  0.2948
  112loPI   PO4 1780  12.374  18.339   9.918  0.2025  0.0095  0.0317
  112loPI   GL1 1781  12.308  18.499   9.547 -0.0182  0.1621 -0.1613
  112loPI   GL2 1782  12.229  18.765   9.622  0.0153  0.2093  0.0878
  112loPI   C1A 1783  12.565  18.496   9.165 -0.1851  0.1816  0.0689
  112loPI   C2A 1784  12.359  18.622   8.697  0.1166 -0.0150  0.0395
  112loPI   C3A 1785  12.235  18.586   8.284  0.0489 -0.4125  0.1514
  112loPI   C4A 1786  12.210  18.819   7.789 -0.1412  0.0047 -0.2775
  112loPI   C5A 1787  11.917  18.915   7.450 -0.0158  0.1357  0.0338
  112loPI   C6A 1788  11.682  18.747   7.241  0.1373 -0.1140 -0.1614
  112loPI   C1B 1789  12.045  18.702   9.188 -0.0924 -0.1626  0.0547
  112loPI   C2B 1790  11.903  18.734   8.727  0.0826 -0.1765  0.0578
  112loPI   C3B 1791  11.682  18.743   8.390 -0.1637 -0.0217  0.1186
  112loPI   C4B 1792  11.704  18.744   7.967  0.0834  0.1638 -0.1887
  113loPI    C1 1793   2.496   6.147  11.058 -0.0280 -0.2460 -0.0256
  113loPI    C2 1794   2.129   6.112  11.214 -0.0049 -0.1705  0.0462
  113loPI    C3 1795   2.288   6.474  11.156 -0.0423 -0.1946 -0.2219
  113loPI   PO4 1796   2.524   6.064  10.898  0.1220  0.1229 -0.4696
  113loPI   GL1 1797   2.740   5.900  10.523 -0.3168  0.0598  0.1712
  113loPI   GL2 1798   3.021   5.745  10.452 -0.1085  0.0522  0.0025
  113loPI   C1A 1799   2.760   5.909  10.039  0.0808 -0.2423  0.0189
  113loPI   C2A 1800   2.743   5.895   9.571 -0.0362 -0.3549  0.1157
  113loPI   C3A 1801   2.762   5.850   9.107 -0.2080 -0.2976  0.0924
  113loPI   C4A 1802   2.822   6.049   8.724  0.1216 -0.3298 -0.1307
  113loPI   C5A 1803   2.733   5.999   8.398  0.0022 -0.0544  0.2089
  113loPI   C6A 1804   2.773   5.829   8.020  0.0010  0.0054 -0.0384
  113loPI   C1B 1805   3.198   5.715  10.010  0.0729 -0.0737  0.2673
  113loPI   C2B 1806   3.182   5.689   9.611 -0.1928 -0.1028  0.0527
  113loPI   C3B 1807   3.266   5.693   9.202 -0.1659 -0.2947  0.1279
  113loPI   C4B 1808   3.305   5.628   8.857  0.0888  0.1366  0.2324
  114loPI    C1 1809  10.680   4.522  10.903 -0.1486  0.0845  0.1052
  114loPI    C2 1810  10.388   4.311  11.077 -0.0921 -0.1409 -0.0676
  114loPI    C3 1811  10.770   4.235  11.167 -0.0772  0.0074 -0.0020
  114loPI   PO4 1812  10.542   4.495  10.572 -0.2064  0.1025  0.0472
  114loPI   GL1 1813  10.819   4.374  10.191 -0.1389  0.0491 -0.0324
  114loPI   GL2 1814  10.684   4.667  10.156 -0.0381 -0.0948  0.3340
  114loPI   C1A 1815  10.834   4.121   9.780  0.0404  0.0113  0.1526
  114loPI   C2A 1816  10.773   4.063   9.363  0.1050  0.2699  0.0922
  114loPI   C3A 1817  10.689   4.256   9.000  0.1304 -0.0199  0.0242
  114loPI   C4A 1818  10.667   4.107   8.704 -0.1990 -0.0163  0.0130
  114loPI   C5A 1819  10.694   3.974   8.334 -0.2255 -0.0544 -0.3557
  114loPI   C6A 1820  10.661   4.066   7.903 -0.0447 -0.0131  0.1968
  114loPI   C1B 1821  10.729   4.743   9.659  0.0709  0.1267 -0.0251
  114loPI   C2B 1822  10.697   4.725   9.221  0.0640  0.0617 -0.2308
  114loPI   C3B 1823  10.581   4.657   8.733 -0.2420 -0.1428 -0.0546
  114loPI   C4B 1824  10.454   4.932   8.403 -0.2258 -0.2891  0.2663
  115loPI    C1 1825   6.340   6.973  11.500  0.1115 -0.0559  0.0608
  115loPI    C2 1826   5.948   6.896  11.515  0.0865  0.0531 -0.0182
  115loPI    C3 1827   6.167   6.885  11.850  0.0246 -0.0499  0.0195
  115loPI   PO4 1828   6.461   6.687  11.298  0.0739 -0.0840 -0.0325
  115loPI   GL1 1829   6.358   6.658  10.804 -0.1833 -0.0526  0.0478
  115loPI   GL2 1830   6.312   6.905  10.621  0.2301  0.1363 -0.1168
  115loPI   C1A 1831   6.264   6.377  10.362 -0.2301  0.1971  0.0438
  115loPI   C2A 1832   6.339   6.399   9.976 -0.1937 -0.3106  0.0967
  115loPI   C3A 1833   6.311   6.418   9.519 -0.1469 -0.4113  0.0829
  115loPI   C4A 1834   6.361   6.432   9.051  0.0269  0.0309 -0.3999
  115loPI   C5A 1835   6.302   6.371   8.584  0.1739  0.0191  0.1159
  115loPI   C6A 1836   6.217   6.517   8.205  0.1622  0.1353  0.1281
  115loPI   C1B 1837   6.289   6.868  10.081 -0.6223  0.3315 -0.0565
  115loPI   C2B 1838   6.136   6.860   9.698  0.2265  0.1910  0.0328
  115loPI   C3B 1839   6.249   6.888   9.269 -0.2487 -0.1006 -0.0573
  115loPI   C4B 1840   6.272   6.875   8.766  0.1283 -0.2074 -0.2562
  116loPI    C1 1841  17.750  17.851  10.122 -0.0973 -0.0158  0.1549
  116loPI    C2 1842  17.474  17.630   9.936  0.1307 -0.0390 -0.1661
  116loPI    C3 1843  17.641  17.498  10.275 -0.2110 -0.0469  0.0042
  116loPI   PO4 1844  17.850  18.002   9.917 -0.0226 -0.0170  0.1298
  116loPI   GL1 1845  17.987  18.189   9.496  0.3417 -0.2084 -0.2941
  116loPI   GL2 1846  17.732  18.466   9.482 -0.2112  0.0435 -0.1940
  116loPI   C1A 1847  18.229  18.105   9.186  0.0373  0.0627  0.0268
  116loPI   C2A 1848  18.320  18.190   8.805  0.1832  0.4532  0.2055
  116loPI   C3A 1849  18.569  18.241   8.449 -0.0773  0.1821  0.1110
  116loPI   C4A 1850  18.672  18.215   8.061 -0.3986  0.2074  0.1690
  116loPI   C5A 1851  18.672  17.892   7.796 -0.2162 -0.2094 -0.1714
  116loPI   C6A 1852  18.755  18.036   7.395  0.0235 -0.3858 -0.2134
  116loPI   C1B 1853  17.820  18.326   9.026  0.1835 -0.0065  0.0780
  116loPI   C2B 1854  17.873  18.367   8.632 -0.1085  0.0158  0.2049
  116loPI   C3B 1855  18.025  18.254   8.200 -0.2019  0.0842  0.0894
  116loPI   C4B 1856  18.213  18.221   7.847 -0.3320 -0.1206  0.1411
  117loPI    C1 1857  11.655   3.502  10.500  0.0960  0.1262 -0.2759
  117loPI    C2 1858  11.371   3.328  10.722 -0.0389  0.4649 -0.1768
  117loPI    C3 1859  11.753   3.219  10.765 -0.1231  0.1772 -0.1381
  117loPI   PO4 1860  11.580   3.477  10.269 -0.0914  0.1993 -0.2250
  117loPI   GL1 1861  11.725   3.457   9.936  0.0105 -0.2879  0.0290
  117loPI   GL2 1862  11.590   3.158   9.875  0.0864 -0.0046 -0.0931
  117loPI   C1A 1863  11.776   3.692   9.617 -0.1937 -0.1756  0.3003
  117loPI   C2A 1864  11.790   3.704   9.143  0.3028 -0.3937  0.3360
  117loPI   C3A 1865  11.798   3.753   8.757 -0.2611  0.3480  0.0296
  117loPI   C4A 1866  11.691   3.744   8.299 -0.0506  0.0585 -0.5075
  117loPI   C5A 1867  11.840   3.773   7.885 -0.2281 -0.2790 -0.1105
  117loPI   C6A 1868  11.823   3.577   7.419 -0.2395  0.2567 -0.2999
  117loPI   C1B 1869  11.810   3.280   9.363 -0.0852 -0.1821 -0.0125
  117loPI   C2B 1870  11.809   3.236   8.902  0.1863  0.0595 -0.1754
  117loPI   C3B 1871  11.806   3.287   8.461  0.1925  0.1182 -0.2186
  117loPI   C4B 1872  11.740   3.301   8.031 -0.0568  0.1297  0.1213
  118loPI    C1 1873   7.751   3.179  10.979 -0.1405  0.0850 -0.0377
  118loPI    C2 1874   7.475   3.037  11.231  0.0622  0.1422  0.2223
  118loPI    C3 1875   7.797   3.226  11.374  0.2401  0.0719 -0.0762
  118loPI   PO4 1876   7.640   3.161  10.736  0.0962 -0.1299  0.1878
  118loPI   GL1 1877   7.742   3.394  10.365 -0.0289 -0.2276 -0.2193
  118loPI   GL2 1878   7.924   3.719  10.536 -0.1017  0.0584  0.0284
  118loPI   C1A 1879   7.698   3.500   9.817  0.0694 -0.0266  0.0315
  118loPI   C2A 1880   7.692   3.460   9.401  0.3460  0.0326 -0.0175
  118loPI   C3A 1881   7.716   3.513   8.980  0.0793 -0.0044  0.0288
  118loPI   C4A 1882   7.730   3.566   8.551 -0.0049  0.2836  0.0060
  118loPI   C5A 1883   7.410   3.529   8.306  0.0554  0.1561 -0.0184
  118loPI   C6A 1884   6.939   3.434   8.397 -0.0313  0.1848 -0.0183
  118loPI   C1B 1885   8.032   3.764  10.094 -0.0112  0.1905 -0.0206
  118loPI   C2B 1886   8.079   3.832   9.732  0.2002  0.0388  0.1466
  118loPI   C3B 1887   8.078   3.788   9.228  0.0006  0.0433 -0.3145
  118loPI   C4B 1888   8.018   3.950   8.827  0.0492 -0.4038  0.1765
  119loPI    C1 1889   4.725  16.658  11.144 -0.2521  0.2448  0.2544
  119loPI    C2 1890   4.453  16.521  10.885 -0.2064  0.1525  0.2552
  119loPI    C3 1891   4.617  16.273  11.153  0.1575  0.1176  0.0089
  119loPI   PO4 1892   4.848  16.843  11.014  0.0857  0.2903 -0.2173
  119loPI   GL1 1893   4.757  16.768  10.620 -0.3511 -0.0403  0.0817
  119loPI   GL2 1894   5.087  16.862  10.589  0.2333  0.1254  0.1275
  119loPI   C1A 1895   4.631  16.720  10.238  0.2045 -0.2256 -0.0557
  119loPI   C2A 1896   4.774  16.714   9.744 -0.1434  0.2218  0.2179
  119loPI   C3A 1897   4.738  16.818   9.403 -0.2378  0.0947 -0.0146
  119loPI   C4A 1898   4.866  16.829   8.985 -0.1296 -0.0442 -0.2376
  119loPI   C5A 1899   4.821  16.929   8.548 -0.4194  0.2095 -0.1128
  119loPI   C6A 1900   4.524  16.856   8.208  0.1108 -0.0582 -0.0323
  119loPI   C1B 1901   5.096  16.937  10.124 -0.1509 -0.3392  0.0729
  119loPI   C2B 1902   5.070  17.075   9.751  0.0743  0.1711 -0.2309
  119loPI   C3B 1903   5.197  17.059   9.373  0.1208 -0.2024  0.1791
  119loPI   C4B 1904   5.267  17.228   8.949 -0.1805 -0.0813  0.0289
  120loPI    C1 1905  10.086  13.815  10.313 -0.0475 -0.0236 -0.0738
  120loPI    C2 1906   9.870  13.769  10.646  0.1132  0.3218  0.0831
  120loPI    C3 1907   9.733  13.998  10.349  0.0015  0.0693 -0.0632
  120loPI   PO4 1908  10.115  13.572  10.232  0.2266 -0.2469 -0.3231
  120loPI   GL1 1909  10.252  13.449   9.874  0.2760  0.1297 -0.0470
  120loPI   GL2 1910   9.926  13.326   9.858  0.4073  0.2919 -0.1423
  120loPI   C1A 1911  10.295  13.508   9.457 -0.1949 -0.1107  0.0322
  120loPI   C2A 1912  10.259  13.599   9.101 -0.4082  0.3546 -0.1237
  120loPI   C3A 1913  10.235  13.438   8.812  0.1203 -0.2144  0.1853
  120loPI   C4A 1914  10.156  13.419   8.358  0.1293  0.1302 -0.2721
  120loPI   C5A 1915  10.073  13.537   7.977 -0.0664  0.1532  0.1853
  120loPI   C6A 1916   9.905  13.571   7.535 -0.2285  0.0400  0.0105
  120loPI   C1B 1917   9.891  13.145   9.440  0.4234 -0.0155 -0.1577
  120loPI   C2B 1918   9.854  13.145   9.003 -0.2043  0.3480  0.0389
  120loPI   C3B 1919   9.756  13.135   8.579 -0.1860  0.2011 -0.1163
  120loPI   C4B 1920   9.732  13.150   8.035  0.1702 -0.0158 -0.0526
  121loPI    C1 1921  10.732  12.680  10.240 -0.0625 -0.0313  0.1895
  121loPI    C2 1922  10.827  12.979  10.488  0.1022  0.0508  0.0294
  121loPI    C3 1923  11.111  12.731  10.355 -0.0075 -0.0767  0.0310
  121loPI   PO4 1924  10.457  12.752  10.190  0.3765  0.1079 -0.1136
  121loPI   GL1 1925  10.030  12.590   9.942  0.3471  0.0357  0.2585
  121loPI   GL2 1926  10.327  12.439   9.820  0.2638  0.1113  0.2239
  121loPI   C1A 1927   9.924  12.672   9.615 -0.0450 -0.0512 -0.0195
  121loPI   C2A 1928   9.927  12.597   9.304 -0.1893  0.1240  0.0904
  121loPI   C3A 1929   9.913  12.662   8.922 -0.0200  0.0979 -0.2845
  121loPI   C4A 1930   9.932  12.531   8.453  0.0275 -0.5188 -0.4744
  121loPI   C5A 1931  10.307  12.327   8.134 -0.0801  0.1030  0.0442
  121loPI   C6A 1932  10.179  12.093   7.776  0.0860 -0.2197  0.0098
  121loPI   C1B 1933  10.708  12.484   9.560  0.0934 -0.3060 -0.1330
  121loPI   C2B 1934  10.703  12.468   9.108  0.0329 -0.0454 -0.2045
  121loPI   C3B 1935  10.751  12.739   8.635 -0.1794 -0.0880  0.1826
  121loPI   C4B 1936  10.688  12.731   8.155 -0.4583  0.1203  0.1348
  122loPI    C1 1937  12.367   1.087  10.098 -0.2114  0.1510 -0.2452
  122loPI    C2 1938  12.209   1.146  10.461  0.0790 -0.0523 -0.0820
  122loPI    C3 1939  12.590   1.246  10.389  0.0670 -0.1496 -0.2885
  122loPI   PO4 1940  12.279   0.890   9.938 -0.0202 -0.1235  0.0948
  122loPI   GL1 1941  12.172   0.755   9.476  0.0306  0.0270  0.0357
  122loPI   GL2 1942  12.524   0.550   9.280  0.2985 -0.3218 -0.0497
  122loPI   C1A 1943  11.881   0.705   9.121 -0.1160  0.2522 -0.2874
  122loPI   C2A 1944  11.773   0.924   8.710  0.0541 -0.3052  0.0644
  122loPI   C3A 1945  11.760   0.767   8.280  0.0941  0.0217 -0.0063
  122loPI   C4A 1946  11.729   0.783   7.846 -0.0223 -0.2654  0.0470
  122loPI   C5A 1947  11.654   0.843   7.425  0.1037  0.0513 -0.0269
  122loPI   C6A 1948  11.314   0.860   7.215 -0.0412  0.2324  0.2576
  122loPI   C1B 1949  12.327   0.539   8.937  0.0467 -0.2351  0.0917
  122loPI   C2B 1950  12.152   0.611   8.551 -0.0981 -0.1337  0.2067
  122loPI   C3B 1951  12.195   0.617   8.209 -0.3391  0.0911  0.1565
  122loPI   C4B 1952  12.227   0.865   7.755 -0.0419  0.2825  0.1547
  123loPI    C1 1953  13.908  11.990  10.208 -0.0657  0.2514  0.1385
  123loPI    C2 1954  13.907  11.695  10.477 -0.1730  0.0819 -0.0455
  123loPI    C3 1955  14.147  12.010  10.528  0.0673 -0.1157  0.0673
  123loPI   PO4 1956  13.882  11.830   9.935  0.0359 -0.0489 -0.0508
  123loPI   GL1 1957  13.549  11.710   9.606  0.0782  0.2745 -0.3151
  123loPI   GL2 1958  13.799  11.893   9.419 -0.0290  0.2673 -0.2930
  123loPI   C1A 1959  13.288  11.714   9.279 -0.4402  0.0825  0.0187
  123loPI   C2A 1960  13.239  11.707   8.874  0.0235  0.2588 -0.1533
  123loPI   C3A 1961  13.476  11.722   8.574 -0.2816 -0.1537  0.2850
  123loPI   C4A 1962  13.616  11.536   8.115  0.2668 -0.0632 -0.0155
  123loPI   C5A 1963  13.877  11.497   7.729  0.2191 -0.0276  0.0896
  123loPI   C6A 1964  14.113  11.760   7.389 -0.0505  0.1922 -0.3502
  123loPI   C1B 1965  13.920  11.879   8.974  0.0851  0.3668 -0.0801
  123loPI   C2B 1966  13.910  11.989   8.612 -0.3029  0.1360 -0.0416
  123loPI   C3B 1967  14.044  12.110   8.242 -0.0644  0.1946 -0.1228
  123loPI   C4B 1968  14.062  11.942   7.858 -0.3603 -0.0050  0.3244
  124loPI    C1 1969  11.210  10.910  10.585 -0.0418 -0.0805 -0.0850
  124loPI    C2 1970  10.968  11.093  10.846  0.0205 -0.3414  0.1606
  124loPI    C3 1971  11.365  11.123  10.885  0.0378  0.1342 -0.2756
  124loPI   PO4 1972  11.142  10.948  10.336  0.3024  0.3377  0.0303
  124loPI   GL1 1973  11.216  10.643  10.071  0.1467  0.1344 -0.1508
  124loPI   GL2 1974  11.490  10.690   9.806  0.2685  0.0159  0.0534
  124loPI   C1A 1975  10.985  10.555   9.714  0.1584 -0.1241  0.1126
  124loPI   C2A 1976  10.719  10.512   9.426 -0.0411 -0.0551 -0.1018
  124loPI   C3A 1977  10.751  10.530   8.861  0.2760  0.0209  0.0148
  124loPI   C4A 1978  10.807  10.585   8.456 -0.3029  0.0845 -0.0305
  124loPI   C5A 1979  10.670  10.951   8.200  0.2600  0.1228  0.0424
  124loPI   C6A 1980  10.377  11.230   8.006  0.2334 -0.0899  0.2009
  124loPI   C1B 1981  11.376  10.698   9.376  0.1095  0.0438 -0.1899
  124loPI   C2B 1982  11.265  10.587   8.961  0.0313 -0.0246 -0.3322
  124loPI   C3B 1983  11.274  10.336   8.580 -0.0865 -0.1035 -0.3786
  124loPI   C4B 1984  11.264  10.301   8.192 -0.0474  0.2964 -0.2219
  125loPI    C1 1985   4.667   1.749  11.264 -0.1597 -0.1632 -0.0725
  125loPI    C2 1986   4.916   1.514  11.471 -0.0297  0.0862  0.0587
  125loPI    C3 1987   4.603   1.684  11.653 -0.1035  0.0434 -0.0274
  125loPI   PO4 1988   4.679   1.675  11.005 -0.1794 -0.1744 -0.1521
  125loPI   GL1 1989   4.889   1.524  10.730  0.4602  0.1350 -0.1282
  125loPI   GL2 1990   5.022   1.753  10.620 -0.1975  0.2160  0.0975
  125loPI   C1A 1991   4.965   1.211  10.436  0.1704  0.3631  0.0897
  125loPI   C2A 1992   4.911   1.184  10.004 -0.0807  0.3426  0.0197
  125loPI   C3A 1993   4.907   1.140   9.604 -0.0564 -0.0734 -0.1619
  125loPI   C4A 1994   4.822   1.173   9.150 -0.2042  0.1983  0.1724
  125loPI   C5A 1995   4.753   1.361   8.714  0.0455 -0.3690 -0.1594
  125loPI   C6A 1996   4.712   1.768   8.471 -0.0967 -0.0457 -0.2324
  125loPI   C1B 1997   4.871   1.751  10.278 -0.0684 -0.0525 -0.1049
  125loPI   C2B 1998   4.808   1.664   9.901  0.1380  0.1105 -0.0160
  125loPI   C3B 1999   4.706   1.667   9.537  0.1723  0.0408  0.2140
  125loPI   C4B 2000   4.667   1.767   9.064 -0.1427  0.0773 -0.1311
  126loPI    C1 2001  17.926   3.632  10.358  0.0353 -0.2995 -0.1006
  126loPI    C2 2002  18.192   3.546  10.643  0.0829  0.1751  0.0065
  126loPI    C3 2003  17.843   3.715  10.740  0.0255  0.1774 -0.1997
  126loPI   PO4 2004  18.018   3.419  10.179  0.0719 -0.0009  0.1095
  126loPI   GL1 2005  18.241   3.529   9.757  0.2282  0.0043 -0.1114
  126loPI   GL2 2006  18.238   3.130   9.729 -0.0581 -0.0870  0.2663
  126loPI   C1A 2007  18.295   3.721   9.428  0.0132 -0.0713  0.0483
  126loPI   C2A 2008  18.320   3.670   8.954 -0.1187  0.3289  0.0554
  126loPI   C3A 2009  18.348   3.697   8.446  0.1776 -0.1956 -0.1098
  126loPI   C4A 2010  18.406   3.721   8.020 -0.0471  0.0189 -0.1615
  126loPI   C5A 2011  18.076   3.727   7.626  0.1186 -0.0098 -0.1220
  126loPI   C6A 2012  17.958   3.413   7.479 -0.1101  0.1478  0.0072
  126loPI   C1B 2013  18.364   3.083   9.304 -0.1835  0.0960 -0.1091
  126loPI   C2B 2014  18.402   3.122   8.941  0.2459 -0.1029  0.0298
  126loPI   C3B 2015  18.404   3.192   8.534  0.2019  0.2892  0.0305
  126loPI   C4B 2016  18.564   3.026   8.146 -0.0608  0.1279  0.0713
  127loPI    C1 2017   9.612  12.057  10.782 -0.0167  0.1415  0.2290
  127loPI    C2 2018   9.945  12.014  10.999  0.0059  0.0974  0.1858
  127loPI    C3 2019   9.588  12.019  11.179  0.0394  0.3112  0.2494
  127loPI   PO4 2020   9.649  12.248  10.542  0.2011  0.2901  0.0219
  127loPI   GL1 2021   9.924  12.158  10.140 -0.0613 -0.5185 -0.0141
  127loPI   GL2 2022   9.549  12.008  10.053  0.1244 -0.0378 -0.0507
  127loPI   C1A 2023  10.017  12.159   9.587  0.0326 -0.2987 -0.2774
  127loPI   C2A 2024   9.877  12.158   9.140  0.0656  0.0293 -0.2810
  127loPI   C3A 2025   9.873  12.126   8.730 -0.0905  0.1218 -0.2586
  127loPI   C4A 2026  10.131  11.993   8.380 -0.1489  0.1527  0.0251
  127loPI   C5A 2027  10.432  11.759   8.066  0.0098 -0.1444 -0.1781
  127loPI   C6A 2028  10.844  11.665   8.131  0.1849  0.1627 -0.1057
  127loPI   C1B 2029   9.568  11.929   9.608 -0.1834  0.1540  0.2356
  127loPI   C2B 2030   9.484  11.816   9.157 -0.0103 -0.2442 -0.3075
  127loPI   C3B 2031   9.433  11.815   8.702 -0.2179  0.1255  0.0191
  127loPI   C4B 2032   9.517  11.901   8.356  0.2708 -0.0625 -0.4064
  128loPI    C1 2033   3.517  14.975  10.595 -0.0498 -0.1871 -0.2299
  128loPI    C2 2034   3.772  14.911  10.896  0.0618 -0.3216 -0.3523
  128loPI    C3 2035   3.394  14.784  10.924  0.0107 -0.1341 -0.1765
  128loPI   PO4 2036   3.638  15.228  10.560  0.1190  0.0143  0.0163
  128loPI   GL1 2037   3.832  15.367  10.246  0.1406  0.0727 -0.0916
  128loPI   GL2 2038   3.740  15.084  10.078 -0.0994  0.0307 -0.0036
  128loPI   C1A 2039   3.967  15.471   9.843  0.1082 -0.0842 -0.0356
  128loPI   C2A 2040   4.051  15.583   9.404  0.0554  0.0447 -0.1047
  128loPI   C3A 2041   4.165  15.451   8.962  0.0276  0.0900  0.1588
  128loPI   C4A 2042   4.114  15.627   8.614 -0.2003  0.4402  0.2606
  128loPI   C5A 2043   3.963  15.687   8.199 -0.2092  0.0984  0.1793
  128loPI   C6A 2044   3.824  16.040   7.960 -0.2169 -0.0468  0.3017
  128loPI   C1B 2045   3.652  15.257   9.583 -0.1827 -0.0296 -0.1137
  128loPI   C2B 2046   3.696  15.315   9.202 -0.0873  0.1793  0.1108
  128loPI   C3B 2047   3.679  15.286   8.764 -0.0604 -0.1063 -0.0212
  128loPI   C4B 2048   3.554  15.231   8.370  0.1901  0.1583 -0.1099
  129loPI    C1 2049  13.513   2.276  10.253 -0.0815  0.1742  0.2227
  129loPI    C2 2050  13.818   2.078  10.086 -0.2185  0.0991  0.0583
  129loPI    C3 2051  13.684   1.971  10.448 -0.1736  0.0084  0.0485
  129loPI   PO4 2052  13.402   2.350  10.054  0.1637  0.4091  0.0312
  129loPI   GL1 2053  13.529   2.365   9.619  0.0533  0.0779 -0.1660
  129loPI   GL2 2054  13.642   2.112   9.546  0.0717  0.1115  0.2604
  129loPI   C1A 2055  13.446   2.555   9.311  0.0171  0.2104 -0.0353
  129loPI   C2A 2056  13.330   2.674   8.928 -0.3147 -0.0778 -0.1512
  129loPI   C3A 2057  13.315   2.659   8.473  0.0973  0.0237  0.1346
  129loPI   C4A 2058  13.128   2.701   8.070 -0.3378 -0.1451  0.1404
  129loPI   C5A 2059  12.971   2.371   7.692 -0.1280  0.2474  0.2184
  129loPI   C6A 2060  12.646   2.531   7.411 -0.1748 -0.1027 -0.1723
  129loPI   C1B 2061  13.516   2.083   9.206 -0.1462 -0.1299 -0.1800
  129loPI   C2B 2062  13.418   2.085   8.793  0.0354 -0.4919  0.0941
  129loPI   C3B 2063  13.413   2.094   8.397  0.0503 -0.1217 -0.5889
  129loPI   C4B 2064  13.254   2.232   8.096 -0.0739 -0.1570 -0.2408
  130loPI    C1 2065  14.934   2.232  10.187 -0.0357 -0.2019  0.0138
  130loPI    C2 2066  14.757   1.873  10.193  0.2901 -0.3646  0.2124
  130loPI    C3 2067  14.759   2.101  10.522  0.0402 -0.1548  0.0723
  130loPI   PO4 2068  15.169   2.097   9.987 -0.1633  0.4201 -0.1421
  130loPI   GL1 2069  15.193   2.060   9.526 -0.4428  0.1515 -0.3243
  130loPI   GL2 2070  15.304   2.344   9.357  0.1082  0.2862  0.0960
  130loPI   C1A 2071  15.327   1.774   9.184  0.0552  0.1069 -0.0764
  130loPI   C2A 2072  15.363   1.864   8.713 -0.1067  0.1743  0.0560
  130loPI   C3A 2073  15.397   1.944   8.263  0.1190 -0.1005  0.0099
  130loPI   C4A 2074  15.387   2.190   7.767  0.1324  0.2391  0.1484
  130loPI   C5A 2075  15.028   2.387   7.574  0.0349 -0.2299  0.0593
  130loPI   C6A 2076  14.719   2.583   7.371  0.1062  0.0177  0.3061
  130loPI   C1B 2077  15.363   2.317   8.930  0.2056 -0.1044  0.0403
  130loPI   C2B 2078  15.328   2.386   8.533 -0.3156  0.0933  0.5049
  130loPI   C3B 2079  15.188   2.505   8.107  0.3223 -0.1881 -0.3266
  130loPI   C4B 2080  14.947   2.764   7.873  0.0237  0.0856  0.2391
  131loPI    C1 2081  13.999  13.037   9.706 -0.2745  0.1453 -0.0863
  131loPI    C2 2082  13.871  12.996  10.083  0.1067  0.1156  0.0447
  131loPI    C3 2083  14.209  12.816   9.966 -0.0541  0.0534 -0.3377
  131loPI   PO4 2084  13.952  13.266   9.670 -0.0830 -0.0686  0.0611
  131loPI   GL1 2085  13.722  13.353   9.347  0.2734 -0.2430  0.1671
  131loPI   GL2 2086  13.786  13.626   9.345 -0.0424 -0.1235 -0.1503
  131loPI   C1A 2087  13.615  13.116   9.012  0.0145  0.0131 -0.0426
  131loPI   C2A 2088  13.576  13.096   8.674  0.4885  0.2728  0.3917
  131loPI   C3A 2089  13.463  13.048   8.315  0.1969  0.3232 -0.1287
  131loPI   C4A 2090  13.436  13.091   7.806 -0.1173  0.1046  0.2079
  131loPI   C5A 2091  13.494  13.030   7.354  0.1275  0.2357  0.3519
  131loPI   C6A 2092  13.299  12.869   7.093  0.0394 -0.0220  0.0470
  131loPI   C1B 2093  13.448  13.561   8.978  0.0147 -0.0987  0.0072
  131loPI   C2B 2094  13.352  13.587   8.672 -0.0839 -0.0371 -0.2266
  131loPI   C3B 2095  13.271  13.483   8.247  0.1740  0.0044 -0.0889
  131loPI   C4B 2096  13.138  13.482   7.817  0.0148  0.1228  0.3444
  132loPI    C1 2097  17.251   5.924  10.930 -0.1813 -0.0205  0.0737
  132loPI    C2 2098  17.584   5.892  11.149 -0.0467  0.0984 -0.1103
  132loPI    C3 2099  17.377   6.235  11.149 -0.2704 -0.0326  0.1425
  132loPI   PO4 2100  17.331   5.817  10.720 -0.2204  0.0129  0.0074
  132loPI   GL1 2101  17.233   5.780  10.355  0.2808 -0.0154 -0.0259
  132loPI   GL2 2102  17.419   6.005  10.233  0.1506 -0.2590 -0.1493
  132loPI   C1A 2103  17.139   5.592   9.914  0.1532  0.0118 -0.0478
  132loPI   C2A 2104  17.059   5.630   9.495  0.0036  0.0310 -0.1239
  132loPI   C3A 2105  16.987   5.607   9.058 -0.0462 -0.2688 -0.2206
  132loPI   C4A 2106  17.092   5.539   8.635 -0.0317 -0.0195 -0.3102
  132loPI   C5A 2107  16.946   5.503   8.252  0.1038  0.0605  0.2733
  132loPI   C6A 2108  16.711   5.581   7.910  0.0917 -0.1149  0.1368
  132loPI   C1B 2109  17.522   5.944   9.745  0.2572 -0.0292 -0.0080
  132loPI   C2B 2110  17.452   5.890   9.353 -0.0638  0.0630 -0.2046
  132loPI   C3B 2111  17.479   5.843   8.919 -0.0387  0.0497  0.0084
  132loPI   C4B 2112  17.386   5.891   8.426  0.0115 -0.3531  0.1099
  133loPI    C1 2113   9.371   8.438  10.435 -0.0635 -0.2658 -0.0568
  133loPI    C2 2114   9.435   8.471  10.828 -0.2586  0.2469 -0.0604
  133loPI    C3 2115   9.180   8.196  10.689 -0.1431  0.0228  0.1631
  133loPI   PO4 2116   9.367   8.786  10.380  0.2579 -0.0936  0.0109
  133loPI   GL1 2117   9.694   9.121  10.155  0.0335 -0.3135  0.3039
  133loPI   GL2 2118   9.466   8.972   9.864 -0.1670 -0.0219  0.1752
  133loPI   C1A 2119   9.810   9.268   9.728  0.2349 -0.0405 -0.1205
  133loPI   C2A 2120   9.893   9.291   9.318  0.1205 -0.1510  0.0887
  133loPI   C3A 2121   9.957   9.219   8.879 -0.0229 -0.1932  0.2242
  133loPI   C4A 2122  10.079   9.381   8.528 -0.0536  0.1793  0.0776
  133loPI   C5A 2123  10.070   9.385   8.084 -0.2819  0.2350  0.3566
  133loPI   C6A 2124  10.416   9.611   7.922  0.1706 -0.0687  0.0475
  133loPI   C1B 2125   9.511   8.930   9.400 -0.0948  0.0929 -0.0347
  133loPI   C2B 2126   9.569   8.950   9.016  0.0577 -0.0291 -0.0106
  133loPI   C3B 2127   9.624   8.961   8.597 -0.0664 -0.2619 -0.2823
  133loPI   C4B 2128   9.690   8.998   8.114  0.2064 -0.3160 -0.1714
  134loPI    C1 2129   2.455   2.083  10.939  0.1760 -0.1056 -0.0651
  134loPI    C2 2130   2.566   2.414  11.134  0.0626 -0.0808 -0.0419
  134loPI    C3 2131   2.521   2.070  11.333 -0.4055  0.0239  0.0457
  134loPI   PO4 2132   2.314   2.162  10.781 -0.3963  0.1198  0.0471
  134loPI   GL1 2133   2.375   2.040  10.343  0.3208 -0.0752  0.1572
  134loPI   GL2 2134   2.674   2.212  10.446 -0.4064 -0.3111 -0.1447
  134loPI   C1A 2135   2.268   2.175   9.962 -0.3845 -0.0341  0.4625
  134loPI   C2A 2136   2.362   2.227   9.572  0.0465  0.1676 -0.3317
  134loPI   C3A 2137   2.379   2.206   9.172  0.3577  0.0576 -0.2679
  134loPI   C4A 2138   2.300   2.170   8.630  0.1299  0.1122 -0.0515
  134loPI   C5A 2139   2.358   2.130   8.231 -0.2096  0.0177  0.0388
  134loPI   C6A 2140   2.252   2.180   7.899  0.2667 -0.1103 -0.1719
  134loPI   C1B 2141   2.646   2.443  10.119  0.1857 -0.0271 -0.0180
  134loPI   C2B 2142   2.838   2.538   9.723  0.0958 -0.1472  0.1173
  134loPI   C3B 2143   2.734   2.513   9.289 -0.0132  0.1229 -0.2443
  134loPI   C4B 2144   2.861   2.528   8.824 -0.2928 -0.0759 -0.1413
  135loPI    C1 2145   0.195   4.017  10.653 -0.1554  0.2082  0.0906
  135loPI    C2 2146   0.304   4.194  10.995 -0.0709  0.0459  0.1486
  135loPI    C3 2147  -0.032   3.977  10.980 -0.2651  0.3491  0.0326
  135loPI   PO4 2148   0.210   4.104  10.439  0.2330 -0.1204 -0.1383
  135loPI   GL1 2149   0.070   4.238  10.149  0.4184  0.0266 -0.0666
  135loPI   GL2 2150   0.125   4.541  10.046 -0.2001  0.1840  0.1748
  135loPI   C1A 2151   0.135   4.035   9.762 -0.3104  0.1882 -0.2336
  135loPI   C2A 2152   0.175   4.092   9.310 -0.2341  0.2670  0.0271
  135loPI   C3A 2153   0.235   3.981   8.872 -0.0879  0.2380  0.0565
  135loPI   C4A 2154   0.186   4.014   8.520 -0.0023  0.1020 -0.1359
  135loPI   C5A 2155   0.245   4.199   8.118 -0.4172 -0.0375  0.2403
  135loPI   C6A 2156  -0.059   4.064   7.704 -0.3194 -0.0334  0.1402
  135loPI   C1B 2157   0.112   4.539   9.547 -0.0607 -0.2184 -0.1770
  135loPI   C2B 2158   0.130   4.553   9.036  0.0242 -0.1266 -0.4521
  135loPI   C3B 2159   0.159   4.547   8.559  0.1300  0.1893  0.1291
  135loPI   C4B 2160   0.193   4.764   8.207  0.3060  0.1621  0.1305
  136loPI    C1 2161  10.789   3.847  10.788  0.2774  0.0868  0.0777
  136loPI    C2 2162  10.928   3.474  10.825 -0.2228 -0.1115  0.0366
  136loPI    C3 2163  10.862   3.695  11.151 -0.0445 -0.1020  0.0673
  136loPI   PO4 2164  10.768   3.863  10.400  0.0426 -0.0086  0.4772
  136loPI   GL1 2165  10.410   3.803  10.158 -0.2489 -0.0376 -0.0218
  136loPI   GL2 2166  10.688   3.631   9.944  0.1619 -0.1154  0.3030
  136loPI   C1A 2167  10.349   3.924   9.788  0.2201  0.0138 -0.2404
  136loPI   C2A 2168  10.323   3.807   9.377 -0.0344  0.3075  0.0102
  136loPI   C3A 2169  10.357   3.714   8.957  0.2278 -0.1469 -0.0623
  136loPI   C4A 2170  10.258   3.884   8.612  0.1856  0.0417 -0.0202
  136loPI   C5A 2171  10.293   4.309   8.334 -0.3423 -0.1632  0.2276
  136loPI   C6A 2172  10.249   4.294   7.940  0.1362  0.2712 -0.0404
  136loPI   C1B 2173  10.797   3.601   9.512 -0.1195  0.1277  0.0490
  136loPI   C2B 2174  10.834   3.416   9.087  0.0081 -0.0479 -0.2430
  136loPI   C3B 2175  10.772   3.572   8.648 -0.1817  0.2241 -0.2791
  136loPI   C4B 2176  10.894   3.557   8.158  0.2341  0.0924 -0.2174
  137loPI    C1 2177  17.039   0.823  10.062 -0.2691  0.0426  0.1530
  137loPI    C2 2178  16.915   1.150  10.256  0.0846  0.2478  0.0434
  137loPI    C3 2179  17.036   0.830  10.462 -0.1101  0.2428  0.1526
  137loPI   PO4 2180  16.949   0.818   9.820  0.0053 -0.1044  0.1230
  137loPI   GL1 2181  16.964   0.742   9.347  0.1000  0.0465  0.1686
  137loPI   GL2 2182  17.297   0.860   9.388 -0.1631 -0.0708  0.1418
  137loPI   C1A 2183  16.819   0.753   8.997  0.3798  0.2056 -0.1196
  137loPI   C2A 2184  16.890   0.703   8.593  0.3034  0.1154 -0.2786
  137loPI   C3A 2185  16.891   0.701   8.205 -0.2193  0.1260 -0.4744
  137loPI   C4A 2186  17.099   0.734   7.850  0.1378  0.1763 -0.0154
  137loPI   C5A 2187  17.390   0.864   7.586  0.0985 -0.2242 -0.0104
  137loPI   C6A 2188  17.722   0.844   7.369  0.1427 -0.3698  0.3191
  137loPI   C1B 2189  17.286   1.003   9.007 -0.0105  0.0456 -0.1588
  137loPI   C2B 2190  17.407   1.140   8.558  0.3103  0.1393 -0.0289
  137loPI   C3B 2191  17.463   1.083   8.057  0.1703  0.2055  0.0713
  137loPI   C4B 2192  17.618   1.254   7.631  0.1209 -0.1590  0.0367
  138loPI    C1 2193  12.465  14.655  10.140  0.1887  0.1042  0.2079
  138loPI    C2 2194  12.795  14.842  10.013  0.1814 -0.0115  0.0136
  138loPI    C3 2195  12.804  14.449  10.091  0.0911 -0.0136  0.0143
  138loPI   PO4 2196  12.314  14.621   9.921  0.0676  0.1346 -0.1724
  138loPI   GL1 2197  12.385  14.638   9.472  0.1829 -0.0099 -0.0925
  138loPI   GL2 2198  12.095  14.777   9.473 -0.3522  0.3817  0.1263
  138loPI   C1A 2199  12.380  14.611   9.050 -0.1125 -0.1361  0.2226
  138loPI   C2A 2200  12.440  14.482   8.649 -0.3886 -0.0793  0.1947
  138loPI   C3A 2201  12.395  14.522   8.208  0.2383  0.0538 -0.0221
  138loPI   C4A 2202  12.459  14.780   7.820  0.4095  0.0914  0.2846
  138loPI   C5A 2203  12.486  14.671   7.343 -0.2425 -0.2096 -0.0677
  138loPI   C6A 2204  12.204  14.280   7.199 -0.0929 -0.2033  0.0239
  138loPI   C1B 2205  11.891  14.780   9.042 -0.0526 -0.1999 -0.0807
  138loPI   C2B 2206  11.928  14.752   8.691 -0.0635 -0.0856 -0.2623
  138loPI   C3B 2207  11.861  14.822   8.297  0.2147  0.1014 -0.1403
  138loPI   C4B 2208  11.789  14.663   7.928 -0.3167 -0.1444 -0.0672
  139loPI    C1 2209  10.320   8.078  10.795  0.1813 -0.2200 -0.0792
  139loPI    C2 2210  10.350   8.446  10.951 -0.1757 -0.2019 -0.0450
  139loPI    C3 2211  10.570   8.147  11.100 -0.1837 -0.0887  0.1979
  139loPI   PO4 2212  10.338   8.166  10.518 -0.1420 -0.0183  0.1489
  139loPI   GL1 2213  10.350   7.960  10.047  0.1833 -0.1280  0.1487
  139loPI   GL2 2214  10.499   7.663  10.119 -0.0661  0.1317 -0.1998
  139loPI   C1A 2215  10.141   7.848   9.604  0.0486 -0.2422 -0.2346
  139loPI   C2A 2216  10.125   7.700   9.247  0.1882  0.0551  0.3487
  139loPI   C3A 2217  10.181   7.687   8.826 -0.3073 -0.1471  0.0907
  139loPI   C4A 2218  10.318   7.799   8.416  0.0950  0.0643 -0.0012
  139loPI   C5A 2219  10.521   7.849   7.992 -0.1722  0.2026  0.0515
  139loPI   C6A 2220  10.970   7.689   7.840  0.0191 -0.1564 -0.0084
  139loPI   C1B 2221  10.325   7.354   9.771  0.2170 -0.1703  0.3339
  139loPI   C2B 2222  10.255   7.249   9.339 -0.0063  0.1937  0.0219
  139loPI   C3B 2223  10.226   7.160   8.940 -0.3142 -0.2078  0.2029
  139loPI   C4B 2224  10.362   7.291   8.511  0.2957 -0.0420 -0.3472
  140loPI    C1 2225  17.827  10.754  10.541  0.1243 -0.0370  0.0693
  140loPI    C2 2226  17.692  10.646  10.901  0.1353 -0.2122  0.0223
  140loPI    C3 2227  18.057  10.806  10.864 -0.0091  0.1552  0.1349
  140loPI   PO4 2228  17.709  10.687  10.410  0.1831 -0.3222  0.0473
  140loPI   GL1 2229  17.737  10.496  10.034  0.0160  0.0605  0.1187
  140loPI   GL2 2230  17.453  10.329  10.043  0.0017  0.1433  0.0019
  140loPI   C1A 2231  17.973  10.480   9.597 -0.1997 -0.6310  0.1618
  140loPI   C2A 2232  18.052  10.504   9.135  0.1134 -0.0327  0.0882
  140loPI   C3A 2233  18.110  10.434   8.706 -0.2422  0.1990 -0.3642
  140loPI   C4A 2234  18.181  10.374   8.259 -0.0115  0.0470 -0.0986
  140loPI   C5A 2235  17.922  10.351   7.911 -0.2280 -0.1231 -0.2363
  140loPI   C6A 2236  17.877  10.514   7.486 -0.1853  0.3595  0.3541
  140loPI   C1B 2237  17.576  10.160   9.599  0.0545  0.2239 -0.0189
  140loPI   C2B 2238  17.712  10.134   9.130  0.0155 -0.0027  0.0341
  140loPI   C3B 2239  17.797  10.052   8.693  0.3586 -0.1991 -0.0720
  140loPI   C4B 2240  17.767  10.111   8.334 -0.0096 -0.1346  0.0678
  141loPI    C1 2241  11.558   4.447  10.845 -0.0505 -0.0226 -0.0448
  141loPI    C2 2242  11.213   4.567  11.009  0.0473 -0.0538  0.1882
  141loPI    C3 2243  11.531   4.497  11.241  0.2705  0.1678 -0.0437
  141loPI   PO4 2244  11.498   4.342  10.570  0.2017  0.1371 -0.1706
  141loPI   GL1 2245  11.371   4.379  10.205 -0.0906  0.0302 -0.2888
  141loPI   GL2 2246  11.197   4.038  10.110  0.1146 -0.0277 -0.0567
  141loPI   C1A 2247  11.160   4.524   9.858 -0.3196 -0.2238 -0.1355
  141loPI   C2A 2248  11.213   4.413   9.468  0.1166 -0.2084  0.1871
  141loPI   C3A 2249  11.158   4.428   9.033  0.4367  0.1231 -0.0647
  141loPI   C4A 2250  11.133   4.378   8.593 -0.2700  0.0273  0.1660
  141loPI   C5A 2251  11.171   4.271   8.126  0.0717 -0.0644 -0.0162
  141loPI   C6A 2252  11.355   3.996   8.032 -0.4355  0.1357 -0.3030
  141loPI   C1B 2253  11.383   3.967   9.725 -0.1295  0.0418  0.2612
  141loPI   C2B 2254  11.246   3.979   9.276 -0.1858  0.1061 -0.1806
  141loPI   C3B 2255  11.138   3.919   8.862  0.0233  0.1148  0.0663
  141loPI   C4B 2256  11.204   3.840   8.507  0.2175 -0.1713 -0.1153
  142loPI    C1 2257   8.832   9.209  10.609  0.1083  0.2621 -0.0635
  142loPI    C2 2258   8.475   9.249  10.787  0.0652 -0.1004 -0.0611
  142loPI    C3 2259   8.785   9.097  10.991  0.1199 -0.1452 -0.1766
  142loPI   PO4 2260   8.774   9.056  10.340 -0.5482  0.0516 -0.0617
  142loPI   GL1 2261   8.863   9.209   9.894  0.0977 -0.3108 -0.1249
  142loPI   GL2 2262   9.073   9.142   9.625 -0.0340  0.0028 -0.3578
  142loPI   C1A 2263   8.595   9.396   9.674  0.1034 -0.0678 -0.2152
  142loPI   C2A 2264   8.484   9.346   9.243  0.0213 -0.0013  0.2693
  142loPI   C3A 2265   8.630   9.347   8.852  0.2480 -0.2023  0.0284
  142loPI   C4A 2266   8.699   9.279   8.391  0.1253 -0.0031  0.2757
  142loPI   C5A 2267   8.439   9.336   8.022  0.0925  0.0595  0.2515
  142loPI   C6A 2268   8.010   9.303   7.748 -0.0772 -0.0153 -0.0488
  142loPI   C1B 2269   9.010   9.202   9.184 -0.2350  0.0203 -0.1937
  142loPI   C2B 2270   9.189   9.185   8.738  0.4941  0.2313 -0.0405
  142loPI   C3B 2271   9.180   9.077   8.356 -0.0985 -0.3094  0.0653
  142loPI   C4B 2272   9.289   8.733   7.943 -0.4582 -0.0720  0.0696
  143loPI    C1 2273   4.141   4.588  11.151 -0.2021 -0.0970  0.0022
  143loPI    C2 2274   4.303   4.884  11.367  0.1978 -0.1404 -0.2287
  143loPI    C3 2275   4.383   4.503  11.458 -0.0386 -0.1719 -0.1457
  143loPI   PO4 2276   3.909   4.745  11.045  0.1095 -0.1858  0.3990
  143loPI   GL1 2277   3.951   4.769  10.561 -0.4413 -0.2747  0.0961
  143loPI   GL2 2278   3.682   4.955  10.509 -0.1720 -0.0302 -0.2899
  143loPI   C1A 2279   4.112   4.801  10.192  0.0944  0.3216 -0.0934
  143loPI   C2A 2280   4.183   4.870   9.788 -0.2299 -0.3368  0.0973
  143loPI   C3A 2281   4.208   4.768   9.315  0.1940  0.1032 -0.0770
  143loPI   C4A 2282   4.388   4.674   8.890  0.4895  0.2071 -0.0174
  143loPI   C5A 2283   4.326   4.637   8.465  0.1678  0.1375  0.1276
  143loPI   C6A 2284   4.212   4.663   8.070 -0.2527  0.2962 -0.1570
  143loPI   C1B 2285   3.640   4.979  10.153 -0.1160  0.1753 -0.0248
  143loPI   C2B 2286   3.730   5.037   9.697  0.0603  0.1377 -0.2314
  143loPI   C3B 2287   3.734   4.944   9.261  0.3289  0.0791  0.1733
  143loPI   C4B 2288   3.845   4.988   8.820  0.1603 -0.0265 -0.1344
  144loPI    C1 2289  18.475  17.374  10.292 -0.0786  0.2499 -0.1204
  144loPI    C2 2290  18.547  17.102  10.576  0.1380  0.1938 -0.2270
  144loPI    C3 2291  18.229  17.343  10.606  0.0333  0.0370 -0.0521
  144loPI   PO4 2292  18.742  17.271  10.123 -0.0606  0.2179 -0.1095
  144loPI   GL1 2293  18.592  17.149   9.752 -0.0876 -0.1814  0.2199
  144loPI   GL2 2294  18.280  17.186   9.570  0.1783  0.0921 -0.1708
  144loPI   C1A 2295  18.829  17.368   9.402  0.1713  0.2684 -0.2292
  144loPI   C2A 2296  19.083  17.410   8.968 -0.1177  0.1697  0.1901
  144loPI   C3A 2297  19.166  17.559   8.544  0.2626 -0.1395 -0.3418
  144loPI   C4A 2298  19.292  17.486   8.210 -0.2493 -0.1766 -0.1517
  144loPI   C5A 2299  19.095  17.513   7.791  0.1149  0.0091 -0.2483
  144loPI   C6A 2300  19.078  17.396   7.286 -0.2114 -0.4184  0.1965
  144loPI   C1B 2301  18.350  17.597   9.267 -0.0390  0.2228  0.2769
  144loPI   C2B 2302  18.423  17.619   8.860 -0.2002  0.3997  0.3978
  144loPI   C3B 2303  18.729  17.633   8.633 -0.0702  0.1016 -0.5022
  144loPI   C4B 2304  18.807  17.717   8.227 -0.0817 -0.1797  0.1037
  145loPI    C1 2305   1.163   6.794  10.611  0.0191  0.0268 -0.2286
  145loPI    C2 2306   1.338   6.840  10.968 -0.0376 -0.4217 -0.1374
  145loPI    C3 2307   1.261   7.160  10.741  0.2614 -0.1568  0.1238
  145loPI   PO4 2308   0.942   6.654  10.710 -0.1888  0.1813  0.1968
  145loPI   GL1 2309   0.736   6.591  10.278 -0.0639 -0.0334  0.1010
  145loPI   GL2 2310   1.018   6.536  10.235 -0.1033  0.2231 -0.3361
  145loPI   C1A 2311   0.678   6.682   9.802 -0.2540 -0.0033  0.0480
  145loPI   C2A 2312   0.691   6.741   9.314  0.1667 -0.2197 -0.1180
  145loPI   C3A 2313   0.732   6.670   8.890 -0.3227 -0.3209 -0.0868
  145loPI   C4A 2314   0.670   6.644   8.533  0.2014  0.0827 -0.3383
  145loPI   C5A 2315   0.770   6.431   8.201  0.0231 -0.2059  0.0982
  145loPI   C6A 2316   0.700   5.990   8.123 -0.0428  0.0318  0.0772
  145loPI   C1B 2317   1.177   6.497   9.880  0.1792 -0.2754  0.0146
  145loPI   C2B 2318   1.176   6.458   9.414  0.1395  0.0649  0.1844
  145loPI   C3B 2319   1.268   6.513   9.041  0.2045  0.0820  0.0223
  145loPI   C4B 2320   1.176   6.520   8.632 -0.0075 -0.3385 -0.2072
  146loPI    C1 2321  17.207   0.036   9.937  0.0783 -0.1486 -0.1044
  146loPI    C2 2322  17.491  -0.201  10.090  0.1952  0.1706  0.1866
  146loPI    C3 2323  17.181  -0.089  10.316 -0.0996 -0.0685 -0.0888
  146loPI   PO4 2324  17.148  -0.057   9.667  0.1547  0.0544 -0.3751
  146loPI   GL1 2325  17.257  -0.116   9.257 -0.1826 -0.2920  0.0038
  146loPI   GL2 2326  17.412  -0.416   9.044 -0.0325 -0.2169 -0.0085
  146loPI   C1A 2327  17.385   0.053   8.847  0.2156 -0.0156 -0.2103
  146loPI   C2A 2328  17.531  -0.005   8.356 -0.2083 -0.0130 -0.0761
  146loPI   C3A 2329  17.582   0.063   7.936 -0.0883 -0.0946  0.0180
  146loPI   C4A 2330  17.856  -0.039   7.548  0.0888 -0.1544 -0.3289
  146loPI   C5A 2331  18.092   0.091   7.285  0.1525 -0.0490 -0.0983
  146loPI   C6A 2332  18.060   0.477   7.210 -0.1767  0.0205  0.3436
  146loPI   C1B 2333  17.534  -0.512   8.678 -0.2619 -0.0426  0.0548
  146loPI   C2B 2334  17.602  -0.521   8.278 -0.0053  0.1516 -0.4872
  146loPI   C3B 2335  17.691  -0.538   7.853 -0.1232 -0.4922 -0.0431
  146loPI   C4B 2336  17.739  -0.545   7.417  0.0062  0.1179 -0.1479
  147loPI    C1 2337   6.951   3.646  11.232 -0.1960  0.0698 -0.0893
  147loPI    C2 2338   6.955   3.973  11.001 -0.0933 -0.0360 -0.2398
  147loPI    C3 2339   6.919   4.008  11.398 -0.2361  0.1496 -0.2678
  147loPI   PO4 2340   6.808   3.502  11.035  0.2583 -0.1672  0.0795
  147loPI   GL1 2341   6.871   3.582  10.593  0.1623 -0.1637  0.1276
  147loPI   GL2 2342   7.226   3.452  10.507  0.2665 -0.0022  0.2379
  147loPI   C1A 2343   6.711   3.641  10.222 -0.1002  0.1307 -0.2756
  147loPI   C2A 2344   6.625   3.804   9.782  0.2852  0.0677  0.2613
  147loPI   C3A 2345   6.637   3.842   9.338 -0.1122  0.0081  0.0659
  147loPI   C4A 2346   6.753   3.919   8.913 -0.2366  0.0003 -0.0639
  147loPI   C5A 2347   6.593   3.967   8.525 -0.0358 -0.1506 -0.0922
  147loPI   C6A 2348   6.473   4.052   8.062  0.0798 -0.0188 -0.0784
  147loPI   C1B 2349   7.259   3.547  10.046  0.1919 -0.3174  0.1526
  147loPI   C2B 2350   7.192   3.695   9.600 -0.0035  0.2451  0.1108
  147loPI   C3B 2351   7.198   3.652   9.154  0.0753 -0.1654 -0.2231
  147loPI   C4B 2352   7.260   3.568   8.765  0.0222  0.2598  0.0198
  148loPI    C1 2353   7.325   9.449  11.162 -0.0243  0.2596 -0.1276
  148loPI    C2 2354   7.561   9.360  11.473  0.0013 -0.0299 -0.2269
  148loPI    C3 2355   7.433   9.735  11.419  0.4777  0.1425 -0.1985
  148loPI   PO4 2356   7.384   9.356  10.934 -0.1264 -0.3673 -0.0973
  148loPI   GL1 2357   7.472   9.507  10.626  0.4136  0.2236  0.1211
  148loPI   GL2 2358   7.593   9.291  10.441  0.2764 -0.0123  0.0608
  148loPI   C1A 2359   7.550   9.755  10.318  0.1824  0.1206  0.3006
  148loPI   C2A 2360   7.523   9.728   9.864  0.0597  0.1059 -0.2529
  148loPI   C3A 2361   7.489   9.830   9.390  0.0190 -0.0801 -0.1488
  148loPI   C4A 2362   7.605   9.757   9.007  0.2138 -0.1571 -0.1627
  148loPI   C5A 2363   7.591   9.761   8.581 -0.2905  0.0122 -0.1138
  148loPI   C6A 2364   7.388   9.863   8.226  0.1680 -0.2762  0.0236
  148loPI   C1B 2365   7.552   9.190   9.907  0.1820  0.0333  0.0198
  148loPI   C2B 2366   7.602   9.320   9.539  0.2079  0.0293  0.3516
  148loPI   C3B 2367   7.666   9.218   9.007  0.1169  0.3842 -0.1328
  148loPI   C4B 2368   7.713   9.263   8.625  0.3899 -0.0206  0.1875
  149loPI    C1 2369   7.509  13.307  10.860 -0.0358 -0.1402 -0.0777
  149loPI    C2 2370   7.390  13.445  10.504 -0.0344  0.3628  0.1072
  149loPI    C3 2371   7.184  13.154  10.685 -0.1650  0.2600 -0.2003
  149loPI   PO4 2372   7.713  13.262  10.842  0.1930 -0.0209  0.1800
  149loPI   GL1 2373   7.807  13.222  10.310 -0.1902 -0.2395 -0.1925
  149loPI   GL2 2374   7.677  13.088  10.099 -0.3512 -0.0773 -0.3882
  149loPI   C1A 2375   8.055  13.540   9.958  0.0976  0.0654  0.1694
  149loPI   C2A 2376   8.071  13.543   9.548  0.0815 -0.1922  0.0690
  149loPI   C3A 2377   8.092  13.471   9.062 -0.2277  0.1428 -0.0819
  149loPI   C4A 2378   8.017  13.423   8.609  0.2619  0.2750  0.2495
  149loPI   C5A 2379   7.910  13.546   8.241  0.2568 -0.1309 -0.2409
  149loPI   C6A 2380   7.753  13.773   7.941 -0.1228 -0.1017  0.1615
  149loPI   C1B 2381   7.567  13.216   9.682  0.0114 -0.1391 -0.1619
  149loPI   C2B 2382   7.707  13.215   9.358 -0.0482 -0.0619 -0.0837
  149loPI   C3B 2383   7.630  13.195   8.854  0.0889 -0.2716  0.2329
  149loPI   C4B 2384   7.515  13.268   8.427  0.1215  0.1390 -0.0373
  150loPI    C1 2385  10.259   8.905  10.702 -0.0695  0.0981 -0.3367
  150loPI    C2 2386   9.861   8.917  10.669 -0.1128 -0.0643  0.0728
  150loPI    C3 2387  10.030   8.853  11.026  0.2838  0.0792 -0.0845
  150loPI   PO4 2388  10.297   8.675  10.538  0.0156 -0.0329  0.2851
  150loPI   GL1 2389  10.128   8.559  10.187 -0.1582 -0.2659 -0.2096
  150loPI   GL2 2390   9.817   8.623  10.107  0.0935 -0.1073 -0.5009
  150loPI   C1A 2391  10.132   8.302   9.851 -0.1381  0.1112 -0.0082
  150loPI   C2A 2392  10.101   8.342   9.501 -0.1482  0.3925 -0.1380
  150loPI   C3A 2393  10.110   8.305   9.115 -0.1382  0.2325 -0.2882
  150loPI   C4A 2394  10.196   8.251   8.693 -0.3470  0.1171  0.2848
  150loPI   C5A 2395  10.091   8.337   8.345  0.3029  0.1475 -0.0642
  150loPI   C6A 2396  10.034   7.997   7.977  0.2351  0.0578  0.0734
  150loPI   C1B 2397   9.517   8.518   9.721 -0.3234 -0.4047  0.0301
  150loPI   C2B 2398   9.548   8.385   9.336  0.0663  0.0576 -0.1818
  150loPI   C3B 2399   9.671   8.459   8.997 -0.0983  0.2304 -0.2262
  150loPI   C4B 2400   9.651   8.394   8.625 -0.0870  0.2509  0.1870
  151loPI    C1 2401   6.053   4.012  11.500  0.3237 -0.1824  0.1504
  151loPI    C2 2402   6.046   4.368  11.682  0.1440 -0.2515  0.2816
  151loPI    C3 2403   5.733   4.121  11.713  0.0701 -0.2292 -0.1971
  151loPI   PO4 2404   6.047   4.089  11.189  0.0552 -0.1420 -0.0818
  151loPI   GL1 2405   6.054   3.938  10.724  0.1895  0.2471 -0.3081
  151loPI   GL2 2406   6.117   4.115  10.453  0.1275 -0.0908 -0.2237
  151loPI   C1A 2407   6.063   3.552  10.421 -0.2189  0.1307  0.1139
  151loPI   C2A 2408   6.186   3.504   9.966 -0.0133 -0.1655  0.5765
  151loPI   C3A 2409   6.261   3.505   9.544 -0.2955 -0.2435 -0.1740
  151loPI   C4A 2410   6.235   3.406   9.060  0.0338 -0.0780  0.2566
  151loPI   C5A 2411   6.184   3.609   8.656 -0.0339  0.3366 -0.1317
  151loPI   C6A 2412   6.008   3.907   8.377  0.3418 -0.1845  0.0086
  151loPI   C1B 2413   6.308   3.929  10.126  0.1068 -0.5057  0.1631
  151loPI   C2B 2414   6.146   4.046   9.684 -0.1836 -0.1337  0.1131
  151loPI   C3B 2415   6.209   4.007   9.226  0.3249 -0.0952 -0.0180
  151loPI   C4B 2416   6.204   4.091   8.784 -0.4421 -0.1173 -0.2019
  152loPI    C1 2417   5.373   8.247  10.879  0.0404  0.0236  0.0352
  152loPI    C2 2418   5.445   8.179  11.267 -0.2637  0.1315  0.1128
  152loPI    C3 2419   5.104   8.051  11.101 -0.0568 -0.0711 -0.1639
  152loPI   PO4 2420   5.563   8.180  10.715 -0.1097 -0.3269  0.1172
  152loPI   GL1 2421   5.574   8.268  10.342  0.1436 -0.0656 -0.3264
  152loPI   GL2 2422   5.435   8.426  10.228 -0.1759  0.0644  0.1370
  152loPI   C1A 2423   5.609   8.027   9.918  0.1554 -0.3203 -0.0305
  152loPI   C2A 2424   5.620   8.055   9.425  0.4590 -0.2121 -0.1763
  152loPI   C3A 2425   5.562   8.058   9.032  0.0439 -0.0728  0.1022
  152loPI   C4A 2426   5.610   8.144   8.625  0.5022 -0.1632 -0.1750
  152loPI   C5A 2427   5.670   8.147   8.218 -0.2024 -0.1370 -0.2653
  152loPI   C6A 2428   5.586   8.451   7.929 -0.0101 -0.0017 -0.3002
  152loPI   C1B 2429   5.958   8.491   9.903 -0.0568 -0.2662 -0.0190
  152loPI   C2B 2430   5.992   8.459   9.514  0.0267  0.0347  0.0599
  152loPI   C3B 2431   5.953   8.423   9.040 -0.0800 -0.2474 -0.1825
  152loPI   C4B 2432   6.055   8.541   8.657  0.1072  0.3365  0.1450
  153loPI    C1 2433  11.106  15.866  10.045  0.1423 -0.0675  0.0254
  153loPI    C2 2434  11.444  16.049   9.935 -0.0318  0.1273 -0.1962
  153loPI    C3 2435  11.251  16.167  10.265  0.1160  0.0130 -0.0670
  153loPI   PO4 2436  11.074  15.760   9.799 -0.2542 -0.3621  0.2308
  153loPI   GL1 2437  10.916  15.948   9.493  0.1346  0.1341 -0.3739
  153loPI   GL2 2438  10.754  16.163   9.369  0.1673  0.0425  0.1587
  153loPI   C1A 2439  10.906  15.736   9.092  0.3247  0.2923 -0.3991
  153loPI   C2A 2440  10.901  15.616   8.612 -0.1064 -0.3939 -0.0728
  153loPI   C3A 2441  10.863  15.628   8.157  0.3289  0.0079 -0.1397
  153loPI   C4A 2442  10.806  15.601   7.696 -0.3888  0.1207  0.0030
  153loPI   C5A 2443  10.518  15.358   7.502 -0.0445 -0.2726 -0.0543
  153loPI   C6A 2444  10.293  15.040   7.265  0.3225  0.3514  0.0084
  153loPI   C1B 2445  10.562  16.087   9.058  0.1177 -0.1019  0.0390
  153loPI   C2B 2446  10.509  16.008   8.734 -0.1146 -0.0916  0.1057
  153loPI   C3B 2447  10.296  15.880   8.352 -0.2171 -0.1571 -0.0403
  153loPI   C4B 2448  10.427  15.806   7.974  0.1246  0.1379 -0.2983
  154loPI    C1 2449  16.006   7.399  10.306 -0.2708  0.0495  0.1812
  154loPI    C2 2450  16.198   7.334  10.651  0.1270 -0.1314 -0.0672
  154loPI    C3 2451  15.821   7.210  10.606  0.0437 -0.0338  0.3274
  154loPI   PO4 2452  16.177   7.340  10.118  0.0006 -0.0554  0.1346
  154loPI   GL1 2453  16.417   7.395   9.768 -0.0621  0.0990  0.0289
  154loPI   GL2 2454  16.573   7.680   9.868  0.3244 -0.0813 -0.2873
  154loPI   C1A 2455  16.382   7.327   9.321  0.0707  0.0620 -0.0863
  154loPI   C2A 2456  16.386   7.301   8.865 -0.1439  0.1367 -0.0966
  154loPI   C3A 2457  16.336   7.262   8.474 -0.0082 -0.1331  0.2766
  154loPI   C4A 2458  16.309   7.593   8.225 -0.0096 -0.2834  0.1170
  154loPI   C5A 2459  16.177   7.920   7.859 -0.0629  0.1741 -0.2132
  154loPI   C6A 2460  15.924   8.196   7.614 -0.0801  0.0895  0.2314
  154loPI   C1B 2461  16.778   7.679   9.494  0.1944  0.0675 -0.1655
  154loPI   C2B 2462  16.793   7.730   9.056  0.0491  0.0569 -0.2071
  154loPI   C3B 2463  16.658   7.625   8.601 -0.4012  0.4008 -0.0479
  154loPI   C4B 2464  16.804   7.608   8.270  0.2030 -0.0158  0.1434
  155loPI    C1 2465   5.986   1.969  11.122  0.3121 -0.2747  0.0886
  155loPI    C2 2466   5.711   1.996  11.411  0.0717 -0.0180 -0.1575
  155loPI    C3 2467   6.097   2.053  11.497 -0.0045  0.1266  0.0999
  155loPI   PO4 2468   5.925   1.971  10.897  0.1115 -0.0743  0.0034
  155loPI   GL1 2469   5.688   2.330  10.614 -0.0576  0.2115 -0.1449
  155loPI   GL2 2470   5.790   2.084  10.404 -0.3197 -0.2659  0.3187
  155loPI   C1A 2471   5.550   2.549  10.201 -0.0875 -0.0975 -0.0667
  155loPI   C2A 2472   5.580   2.789   9.793 -0.1364 -0.0122 -0.2488
  155loPI   C3A 2473   5.447   2.876   9.341  0.1230 -0.0788 -0.4475
  155loPI   C4A 2474   5.466   2.829   8.930 -0.0231  0.1704 -0.0874
  155loPI   C5A 2475   5.431   2.803   8.552  0.2434  0.4240  0.2317
  155loPI   C6A 2476   5.679   2.955   8.267 -0.0707 -0.0446  0.1614
  155loPI   C1B 2477   5.677   2.135  10.043 -0.1137 -0.1087 -0.1214
  155loPI   C2B 2478   5.603   2.302   9.666  0.0278 -0.1228 -0.2383
  155loPI   C3B 2479   5.545   2.387   9.230  0.1697 -0.1394 -0.0270
  155loPI   C4B 2480   5.552   2.304   8.752  0.2161  0.1108 -0.0602
  156loPI    C1 2481   5.871  10.346  10.936  0.0183  0.1302  0.1694
  156loPI    C2 2482   5.802  10.043  10.684  0.3216  0.1439  0.0660
  156loPI    C3 2483   5.664  10.026  11.059 -0.2000  0.1569 -0.1170
  156loPI   PO4 2484   6.140  10.450  10.796 -0.1204  0.1939  0.0402
  156loPI   GL1 2485   6.187  10.556  10.333 -0.1900  0.1625  0.3117
  156loPI   GL2 2486   5.962  10.328  10.325  0.0726 -0.0105 -0.0950
  156loPI   C1A 2487   6.480  10.633  10.042 -0.0789 -0.2081 -0.0835
  156loPI   C2A 2488   6.427  10.673   9.629 -0.0971 -0.4674  0.0596
  156loPI   C3A 2489   6.495  10.668   9.279  0.0662 -0.0292  0.4121
  156loPI   C4A 2490   6.528  10.676   8.892  0.2829 -0.0440  0.1035
  156loPI   C5A 2491   6.650  10.471   8.456 -0.2195 -0.4222 -0.5087
  156loPI   C6A 2492   6.504  10.535   8.067  0.0788 -0.1626  0.1788
  156loPI   C1B 2493   6.085  10.365   9.893  0.1672  0.2490 -0.0154
  156loPI   C2B 2494   6.046  10.348   9.480 -0.0820 -0.3454  0.0164
  156loPI   C3B 2495   6.126  10.412   9.066  0.0000  0.2162 -0.0390
  156loPI   C4B 2496   6.193  10.291   8.612 -0.1072  0.2929  0.1593
  157loPI    C1 2497  17.595   6.269  10.708  0.1449 -0.0936 -0.1332
  157loPI    C2 2498  17.807   5.946  10.604  0.1799 -0.0761 -0.1164
  157loPI    C3 2499  17.920   6.167  10.917  0.1213 -0.0819 -0.0909
  157loPI   PO4 2500  17.516   6.418  10.494  0.1638 -0.1667  0.0738
  157loPI   GL1 2501  17.598   6.552  10.138 -0.0046  0.0847 -0.5323
  157loPI   GL2 2502  17.896   6.285  10.256 -0.0064 -0.3283  0.0192
  157loPI   C1A 2503  17.755   6.808   9.684 -0.0470 -0.0765  0.1029
  157loPI   C2A 2504  17.802   6.753   9.214 -0.3184  0.1205  0.1007
  157loPI   C3A 2505  17.832   6.805   8.856  0.0112  0.0460 -0.1659
  157loPI   C4A 2506  17.713   6.670   8.421  0.1808 -0.1486  0.1816
  157loPI   C5A 2507  17.711   6.694   7.946 -0.0507  0.2069 -0.1185
  157loPI   C6A 2508  17.500   6.885   7.579 -0.0727 -0.2651 -0.0017
  157loPI   C1B 2509  17.903   6.305   9.766 -0.0809  0.0329 -0.0253
  157loPI   C2B 2510  17.847   6.201   9.321 -0.2439  0.0894  0.1798
  157loPI   C3B 2511  17.829   6.255   8.990 -0.1708  0.1841 -0.1152
  157loPI   C4B 2512  17.737   6.198   8.557 -0.1285 -0.1068  0.0575
  158loPI    C1 2513   0.242   0.223   9.956  0.0428  0.2943 -0.1653
  158loPI    C2 2514   0.242   0.371  10.327 -0.0315  0.2008 -0.1277
  158loPI    C3 2515  -0.072   0.161  10.196  0.1320 -0.0452 -0.1314
  158loPI   PO4 2516   0.429   0.040   9.926  0.1119  0.0630  0.1408
  158loPI   GL1 2517   0.874   0.136   9.791  0.2271  0.0897  0.0907
  158loPI   GL2 2518   1.205   0.114   9.889 -0.2081  0.0190  0.1893
  158loPI   C1A 2519   0.847   0.351   9.410  0.1541  0.0479  0.1626
  158loPI   C2A 2520   0.892   0.360   9.042 -0.0254 -0.1711 -0.0717
  158loPI   C3A 2521   0.909   0.428   8.593 -0.0793  0.4227 -0.0008
  158loPI   C4A 2522   1.056   0.446   8.186 -0.1546  0.0374  0.0546
  158loPI   C5A 2523   1.223   0.668   7.881  0.2224  0.0002  0.0201
  158loPI   C6A 2524   1.377   1.002   7.993  0.1133 -0.0289  0.1783
  158loPI   C1B 2525   1.350   0.165   9.488  0.2289 -0.0796 -0.3190
  158loPI   C2B 2526   1.356   0.172   9.061  0.0565 -0.3744  0.2713
  158loPI   C3B 2527   1.475   0.130   8.619  0.2468 -0.2623  0.0676
  158loPI   C4B 2528   1.572   0.213   8.205  0.0230  0.0734 -0.1605
  159loPI    C1 2529  11.749   6.487  10.702 -0.1935  0.1857 -0.2110
  159loPI    C2 2530  11.519   6.760  10.882 -0.5305 -0.2311  0.0091
  159loPI    C3 2531  11.854   6.632  11.060 -0.2246  0.2260 -0.2182
  159loPI   PO4 2532  11.785   6.624  10.378 -0.0082 -0.1874 -0.1535
  159loPI   GL1 2533  11.760   6.780   9.964  0.2068 -0.0603  0.0824
  159loPI   GL2 2534  12.062   6.921   9.911  0.0115 -0.2358 -0.1756
  159loPI   C1A 2535  11.728   6.739   9.570  0.4660 -0.0693  0.2599
  159loPI   C2A 2536  11.785   6.691   9.169  0.0888  0.2975 -0.1397
  159loPI   C3A 2537  11.769   6.724   8.737 -0.2638  0.1318 -0.3958
  159loPI   C4A 2538  11.729   6.772   8.399 -0.2021  0.0370  0.0559
  159loPI   C5A 2539  11.906   6.739   7.942 -0.3434 -0.1898  0.1459
  159loPI   C6A 2540  11.891   6.457   7.572  0.0572 -0.2764  0.1989
  159loPI   C1B 2541  12.178   6.982   9.514 -0.0079  0.1316  0.1845
  159loPI   C2B 2542  12.151   7.010   8.989 -0.2448 -0.2701 -0.5020
  159loPI   C3B 2543  12.206   7.091   8.574  0.0093 -0.3168 -0.0362
  159loPI   C4B 2544  12.299   7.093   8.123  0.1982 -0.1369  0.1154
  160loPI    C1 2545  12.695  10.790  10.279  0.1675  0.3249 -0.0040
  160loPI    C2 2546  12.336  10.756  10.451  0.2569  0.0163  0.1303
  160loPI    C3 2547  12.632  10.945  10.642  0.1877  0.2089  0.0496
  160loPI   PO4 2548  12.638  10.793  10.041  0.2707 -0.0053 -0.2610
  160loPI   GL1 2549  12.537  10.910   9.669 -0.0087  0.1840  0.2013
  160loPI   GL2 2550  12.918  10.861   9.592 -0.0112 -0.0366 -0.2019
  160loPI   C1A 2551  12.325  10.827   9.273 -0.0170 -0.0648 -0.1123
  160loPI   C2A 2552  12.300  10.645   8.849  0.3839  0.3351  0.0981
  160loPI   C3A 2553  12.405  10.728   8.454  0.0615  0.0858 -0.5885
  160loPI   C4A 2554  12.501  10.627   8.045 -0.1388  0.4155 -0.0901
  160loPI   C5A 2555  12.310  10.648   7.616  0.1563  0.1319  0.2367
  160loPI   C6A 2556  11.917  10.830   7.521  0.1806 -0.1082 -0.3285
  160loPI   C1B 2557  12.803  10.837   9.119  0.1065 -0.3068  0.1012
  160loPI   C2B 2558  12.836  10.831   8.683 -0.4124 -0.2828 -0.0071
  160loPI   C3B 2559  12.879  10.918   8.278 -0.1876  0.0895  0.1148
  160loPI   C4B 2560  12.918  10.861   7.849 -0.0581  0.2525 -0.0762
  161loPI    C1 2561   6.174   5.067  11.288  0.0124 -0.2164 -0.2351
  161loPI    C2 2562   6.368   4.808  11.522 -0.2481 -0.2050 -0.0003
  161loPI    C3 2563   6.114   4.674  11.243 -0.1837 -0.2083 -0.0579
  161loPI   PO4 2564   6.305   5.197  11.127 -0.1040 -0.1787  0.1919
  161loPI   GL1 2565   6.377   5.118  10.712 -0.0293  0.2310 -0.0598
  161loPI   GL2 2566   6.445   5.370  10.543 -0.2176 -0.1280  0.1792
  161loPI   C1A 2567   6.496   4.885  10.359  0.1675 -0.2381 -0.1838
  161loPI   C2A 2568   6.484   4.786   9.998  0.2096  0.0644 -0.2050
  161loPI   C3A 2569   6.427   4.831   9.596  0.2446 -0.0428  0.0320
  161loPI   C4A 2570   6.458   4.838   9.218 -0.3393  0.4090 -0.2292
  161loPI   C5A 2571   6.580   4.941   8.829 -0.3161 -0.0995  0.1697
  161loPI   C6A 2572   6.759   4.896   8.505  0.0764 -0.0716 -0.1010
  161loPI   C1B 2573   6.429   5.347  10.105  0.0263 -0.1336  0.1692
  161loPI   C2B 2574   6.417   5.319   9.618 -0.1653 -0.4009 -0.1596
  161loPI   C3B 2575   6.367   5.432   9.272  0.1280  0.3012  0.1075
  161loPI   C4B 2576   6.414   5.444   8.872 -0.2492  0.3392 -0.0464
  162loPI    C1 2577  10.629  13.906  10.319 -0.0555 -0.2950 -0.3311
  162loPI    C2 2578  10.506  13.669  10.616 -0.1612 -0.0536 -0.1792
  162loPI    C3 2579  10.414  14.058  10.620 -0.0747 -0.0279 -0.4763
  162loPI   PO4 2580  10.550  13.811  10.108  0.3198 -0.0928  0.2233
  162loPI   GL1 2581  10.318  13.941   9.883  0.0518 -0.2191  0.0850
  162loPI   GL2 2582   9.974  13.938   9.877 -0.1792 -0.1552 -0.3610
  162loPI   C1A 2583  10.265  14.150   9.551  0.0925 -0.0292 -0.1449
  162loPI   C2A 2584  10.194  14.116   9.140  0.1365 -0.0042  0.0401
  162loPI   C3A 2585  10.257  14.005   8.796 -0.1105 -0.3908 -0.2955
  162loPI   C4A 2586  10.150  13.945   8.411  0.2430 -0.0154 -0.1174
  162loPI   C5A 2587  10.137  13.958   8.126 -0.0844 -0.2186 -0.3780
  162loPI   C6A 2588  10.302  13.894   7.675  0.0602 -0.2246 -0.4214
  162loPI   C1B 2589   9.907  13.788   9.571 -0.1316  0.2060 -0.2938
  162loPI   C2B 2590   9.776  13.685   9.276 -0.2751  0.3251 -0.0051
  162loPI   C3B 2591   9.797  13.604   8.850  0.1091 -0.2517 -0.0284
  162loPI   C4B 2592   9.741  13.710   8.446 -0.1192  0.2815 -0.0502
  163loPI    C1 2593   7.172   0.122  10.877  0.4667 -0.2278 -0.2221
  163loPI    C2 2594   7.133  -0.184  11.131  0.2687 -0.1295 -0.1319
  163loPI    C3 2595   7.382   0.117  11.217  0.0103  0.0303  0.0749
  163loPI   PO4 2596   7.157   0.061  10.614  0.1074  0.0823 -0.1070
  163loPI   GL1 2597   7.354  -0.082  10.288  0.1221  0.0599 -0.0267
  163loPI   GL2 2598   7.470  -0.376  10.226  0.0802 -0.2578 -0.0047
  163loPI   C1A 2599   7.320   0.071   9.904  0.0583  0.1266 -0.0829
  163loPI   C2A 2600   7.332   0.143   9.372 -0.2253  0.2089 -0.1131
  163loPI   C3A 2601   7.241   0.166   8.923 -0.0684  0.2568 -0.1034
  163loPI   C4A 2602   7.212  -0.061   8.521 -0.1432  0.0746  0.1741
  163loPI   C5A 2603   6.992  -0.400   8.306 -0.2013  0.0221  0.0694
  163loPI   C6A 2604   6.786  -0.806   8.353 -0.0963  0.1225 -0.0511
  163loPI   C1B 2605   7.393  -0.578  10.003 -0.2724 -0.1356 -0.2942
  163loPI   C2B 2606   7.428  -0.387   9.668 -0.0708  0.0117 -0.2546
  163loPI   C3B 2607   7.330  -0.308   9.236 -0.0005  0.2223  0.1695
  163loPI   C4B 2608   7.481  -0.417   8.860 -0.0632 -0.0477 -0.0949
  164loPI    C1 2609   5.857   1.461  11.345  0.1340 -0.0282 -0.0826
  164loPI    C2 2610   5.781   1.094  11.484  0.0402  0.0318  0.0259
  164loPI    C3 2611   6.049   1.327  11.669  0.1982 -0.0306 -0.1212
  164loPI   PO4 2612   5.695   1.516  11.169  0.0054 -0.1097  0.0626
  164loPI   GL1 2613   5.576   1.492  10.722  0.0178 -0.3260  0.3637
  164loPI   GL2 2614   5.837   1.543  10.418  0.1039 -0.1124 -0.0568
  164loPI   C1A 2615   5.347   1.536  10.272 -0.0745  0.1496 -0.0932
  164loPI   C2A 2616   5.261   1.500   9.882 -0.0724 -0.4004 -0.3332
  164loPI   C3A 2617   5.240   1.590   9.433 -0.0334  0.3441  0.2584
  164loPI   C4A 2618   5.129   1.618   9.119 -0.1201 -0.1557 -0.0795
  164loPI   C5A 2619   5.201   1.627   8.628 -0.1887  0.0037  0.1508
  164loPI   C6A 2620   5.555   1.825   8.360  0.3145 -0.0170 -0.1631
  164loPI   C1B 2621   5.720   1.643   9.990 -0.2784 -0.1085 -0.0392
  164loPI   C2B 2622   5.602   1.857   9.612  0.0603  0.0445  0.0024
  164loPI   C3B 2623   5.664   1.859   9.200 -0.0800 -0.1748 -0.0518
  164loPI   C4B 2624   5.587   1.810   8.823 -0.0456  0.0006 -0.0610
  165loPI    C1 2625   4.627   2.388  11.349 -0.0666 -0.2543 -0.2834
  165loPI    C2 2626   4.347   2.167  11.530  0.1229 -0.1847  0.1055
  165loPI    C3 2627   4.452   2.521  11.684  0.2784 -0.1161 -0.1535
  165loPI   PO4 2628   4.562   2.399  11.134 -0.2445  0.2566 -0.0096
  165loPI   GL1 2629   4.550   2.307  10.805  0.1566 -0.1345  0.0366
  165loPI   GL2 2630   4.609   1.995  10.557 -0.0711 -0.3851 -0.2933
  165loPI   C1A 2631   4.591   2.519  10.477  0.1670 -0.0465  0.1745
  165loPI   C2A 2632   4.504   2.644   9.962  0.0295  0.0578  0.1988
  165loPI   C3A 2633   4.615   2.798   9.572  0.0932 -0.2817  0.0714
  165loPI   C4A 2634   4.612   2.730   9.035  0.2155  0.2461  0.0209
  165loPI   C5A 2635   4.615   2.719   8.664 -0.4461 -0.2286 -0.0696
  165loPI   C6A 2636   4.857   2.932   8.410  0.1787 -0.1840  0.0454
  165loPI   C1B 2637   4.615   2.121  10.151 -0.1916 -0.2801 -0.0620
  165loPI   C2B 2638   4.673   2.232   9.737 -0.1481 -0.0716 -0.1267
  165loPI   C3B 2639   4.636   2.271   9.278  0.0584 -0.2052  0.0300
  165loPI   C4B 2640   4.657   2.200   8.832 -0.0422 -0.0593  0.2955
  166loPI    C1 2641   0.855   8.912  10.976 -0.0998 -0.0268 -0.1084
  166loPI    C2 2642   0.476   8.793  11.025 -0.0851 -0.2224 -0.4433
  166loPI    C3 2643   0.777   8.554  11.136 -0.0560 -0.0312 -0.0970
  166loPI   PO4 2644   0.827   9.099  10.697 -0.0946 -0.1180  0.3812
  166loPI   GL1 2645   0.950   8.833  10.291  0.3243  0.3653 -0.0692
  166loPI   GL2 2646   1.184   8.862  10.128 -0.0138 -0.1761 -0.0197
  166loPI   C1A 2647   0.828   9.167   9.839 -0.1970 -0.1811 -0.1661
  166loPI   C2A 2648   0.747   9.048   9.433  0.1536  0.1609  0.1275
  166loPI   C3A 2649   0.788   9.006   9.002 -0.0494  0.0529  0.2658
  166loPI   C4A 2650   0.870   8.941   8.519 -0.0950  0.1436  0.1564
  166loPI   C5A 2651   0.770   8.989   8.123 -0.0474 -0.4143  0.0811
  166loPI   C6A 2652   0.788   8.835   7.757  0.3149  0.2281 -0.2154
  166loPI   C1B 2653   1.268   8.942   9.690  0.1433  0.0284 -0.1389
  166loPI   C2B 2654   1.250   8.936   9.287  0.2165  0.1513  0.4542
  166loPI   C3B 2655   1.297   8.861   8.861  0.0867 -0.2468  0.2711
  166loPI   C4B 2656   1.341   8.803   8.374 -0.2727 -0.0243 -0.2038
  167loPI    C1 2657   9.825   7.999  10.905 -0.0903  0.0778 -0.2381
  167loPI    C2 2658   9.657   8.009  11.268 -0.1124  0.0164 -0.2465
  167loPI    C3 2659   9.877   8.318  11.141  0.1075 -0.0690 -0.0795
  167loPI   PO4 2660   9.618   8.009  10.701  0.1558 -0.1675  0.0559
  167loPI   GL1 2661   9.548   8.013  10.284  0.0534 -0.3681 -0.0953
  167loPI   GL2 2662   9.802   8.111  10.229  0.1402  0.0638  0.0169
  167loPI   C1A 2663   9.281   8.220   9.989  0.0740 -0.1389  0.1302
  167loPI   C2A 2664   9.207   8.142   9.533  0.1695 -0.1042  0.0670
  167loPI   C3A 2665   9.219   8.128   9.058  0.0623  0.0871  0.3730
  167loPI   C4A 2666   9.197   8.108   8.605 -0.0091 -0.0543  0.1785
  167loPI   C5A 2667   9.513   8.233   8.157  0.2192 -0.4063 -0.1900
  167loPI   C6A 2668   9.845   8.532   7.887  0.0380 -0.1379 -0.3801
  167loPI   C1B 2669   9.645   7.953   9.747  0.0048  0.1202  0.2629
  167loPI   C2B 2670   9.603   7.913   9.304 -0.1828  0.0444 -0.0315
  167loPI   C3B 2671   9.755   7.978   8.960 -0.0370  0.0737 -0.2200
  167loPI   C4B 2672   9.840   7.912   8.542  0.1171 -0.3993 -0.3356
  168loPI    C1 2673  14.150  16.530   9.916 -0.1755 -0.1602  0.0872
  168loPI    C2 2674  13.811  16.355  10.035 -0.0258 -0.3337  0.2661
  168loPI    C3 2675  14.121  16.381  10.286  0.0467 -0.0487  0.1513
  168loPI   PO4 2676  14.321  16.600   9.657  0.1667 -0.0097 -0.0133
  168loPI   GL1 2677  14.322  16.672   9.323 -0.0705 -0.3103  0.2027
  168loPI   GL2 2678  14.528  16.684   9.167 -0.2443  0.0331  0.2527
  168loPI   C1A 2679  14.071  16.733   8.946 -0.0953  0.1902  0.1836
  168loPI   C2A 2680  14.131  16.819   8.531  0.1824  0.1421 -0.1654
  168loPI   C3A 2681  14.139  16.774   8.052  0.3196 -0.2136 -0.0681
  168loPI   C4A 2682  13.824  16.830   7.686  0.0680 -0.1991 -0.1895
  168loPI   C5A 2683  13.689  17.150   7.450 -0.1242  0.1611 -0.1230
  168loPI   C6A 2684  13.434  17.243   7.059  0.2553 -0.2130  0.1512
  168loPI   C1B 2685  14.608  16.558   8.757 -0.0758  0.2988  0.3407
  168loPI   C2B 2686  14.596  16.667   8.356  0.0882  0.0453 -0.1394
  168loPI   C3B 2687  14.535  16.452   8.028 -0.1295 -0.2229  0.1531
  168loPI   C4B 2688  14.464  16.026   7.882 -0.0079 -0.1445  0.1130
  169loPI    C1 2689   0.892   3.283  10.567  0.0252  0.0335  0.1222
  169loPI    C2 2690   0.926   3.387  10.951 -0.1661  0.3132  0.0664
  169loPI    C3 2691   0.603   3.188  10.826  0.1389 -0.2541  0.1473
  169loPI   PO4 2692   1.201   3.278  10.464 -0.1414 -0.0720 -0.0263
  169loPI   GL1 2693   1.295   3.456  10.096 -0.4735  0.3635 -0.1615
  169loPI   GL2 2694   1.578   3.299  10.113  0.1057 -0.1568  0.0248
  169loPI   C1A 2695   1.142   3.515   9.665  0.1637  0.1637  0.1497
  169loPI   C2A 2696   1.146   3.550   9.149 -0.4071 -0.1434 -0.1996
  169loPI   C3A 2697   1.182   3.694   8.763  0.0621 -0.1324  0.0279
  169loPI   C4A 2698   1.325   3.675   8.268 -0.2898  0.0906  0.1024
  169loPI   C5A 2699   1.681   3.912   7.985 -0.4465 -0.3158 -0.1539
  169loPI   C6A 2700   2.163   3.793   7.817 -0.1181  0.2294  0.0401
  169loPI   C1B 2701   1.646   3.382   9.643 -0.0783  0.0739 -0.2906
  169loPI   C2B 2702   1.738   3.357   9.238  0.1039  0.3176 -0.0400
  169loPI   C3B 2703   1.598   3.473   8.960  0.3139 -0.0356 -0.1153
  169loPI   C4B 2704   1.726   3.505   8.573  0.2631  0.2871  0.0490
  170loPI    C1 2705  14.911  13.427   9.889  0.2189 -0.1818 -0.0052
  170loPI    C2 2706  15.008  13.327  10.264 -0.1850  0.0147  0.1575
  170loPI    C3 2707  15.091  13.693  10.127 -0.2635  0.0258  0.1392
  170loPI   PO4 2708  14.913  13.220   9.657 -0.0664 -0.1132  0.1624
  170loPI   GL1 2709  14.685  13.297   9.233 -0.1137  0.0204 -0.0107
  170loPI   GL2 2710  14.921  13.623   9.341  0.0084  0.0858  0.0925
  170loPI   C1A 2711  14.511  13.425   8.883  0.0626  0.0901 -0.1882
  170loPI   C2A 2712  14.445  13.407   8.407  0.1120  0.0034  0.0703
  170loPI   C3A 2713  14.311  13.472   7.967 -0.2574  0.0132 -0.2110
  170loPI   C4A 2714  14.388  13.373   7.498  0.1694 -0.1604  0.0452
  170loPI   C5A 2715  14.570  13.315   7.052 -0.0154  0.0451  0.2512
  170loPI   C6A 2716  14.548  13.529   6.681  0.1418 -0.3454 -0.0309
  170loPI   C1B 2717  15.039  13.488   8.895 -0.0828 -0.2539 -0.1283
  170loPI   C2B 2718  14.953  13.458   8.543 -0.5061 -0.1577 -0.2319
  170loPI   C3B 2719  14.841  13.325   8.109 -0.1047  0.3396  0.1242
  170loPI   C4B 2720  14.876  13.387   7.662  0.3804 -0.0082  0.2302
  171loPI    C1 2721   6.083  12.492  10.948  0.2778 -0.0636  0.0884
  171loPI    C2 2722   5.726  12.671  10.962  0.0131 -0.5572 -0.0937
  171loPI    C3 2723   5.904  12.555  11.300  0.1566 -0.0297  0.0213
  171loPI   PO4 2724   6.112  12.579  10.633  0.0586  0.3194  0.3664
  171loPI   GL1 2725   6.463  12.636  10.221 -0.4590 -0.0286 -0.1171
  171loPI   GL2 2726   6.197  12.640  10.094  0.1033  0.0649 -0.1326
  171loPI   C1A 2727   6.650  12.530   9.799 -0.2237 -0.0784  0.0097
  171loPI   C2A 2728   6.788  12.626   9.448  0.0738 -0.1257  0.0816
  171loPI   C3A 2729   6.722  12.589   8.907 -0.0921 -0.1036 -0.3322
  171loPI   C4A 2730   6.689  12.612   8.549 -0.1320  0.0406 -0.1650
  171loPI   C5A 2731   6.887  12.205   8.189  0.0495  0.1369  0.1707
  171loPI   C6A 2732   6.792  11.772   8.210 -0.2242  0.0056  0.0277
  171loPI   C1B 2733   6.236  12.752   9.683 -0.0208 -0.0421  0.1286
  171loPI   C2B 2734   6.289  12.782   9.279  0.1239  0.2161  0.2332
  171loPI   C3B 2735   6.240  12.760   8.861  0.1097 -0.1950 -0.2242
  171loPI   C4B 2736   6.242  12.693   8.389 -0.0096 -0.2936 -0.1632
  172loPI    C1 2737   7.126   1.711  10.753  0.0558 -0.0539  0.2077
  172loPI    C2 2738   7.008   1.344  10.644 -0.1406 -0.0245  0.3188
  172loPI    C3 2739   7.121   1.414  11.021  0.0734 -0.0130  0.2535
  172loPI   PO4 2740   7.202   1.780  10.506  0.2594  0.2979  0.3864
  172loPI   GL1 2741   7.305   1.620  10.119 -0.1419  0.1934  0.1757
  172loPI   GL2 2742   7.557   1.521   9.987 -0.3842  0.1920 -0.1312
  172loPI   C1A 2743   7.154   1.713   9.674 -0.0624 -0.3282  0.0193
  172loPI   C2A 2744   6.987   1.714   9.269 -0.0778  0.1042  0.0615
  172loPI   C3A 2745   6.894   1.789   8.867 -0.0260  0.0433 -0.2347
  172loPI   C4A 2746   6.884   1.969   8.387 -0.1354  0.0581 -0.3530
  172loPI   C5A 2747   6.853   1.692   8.127 -0.2643  0.2111  0.0320
  172loPI   C6A 2748   6.830   1.445   7.688  0.1857 -0.0584 -0.1643
  172loPI   C1B 2749   7.608   1.602   9.587  0.2600  0.0311  0.1861
  172loPI   C2B 2750   7.443   1.516   9.160  0.3003  0.0738  0.0254
  172loPI   C3B 2751   7.356   1.640   8.735  0.0548 -0.1224  0.2823
  172loPI   C4B 2752   7.379   1.795   8.408  0.1719  0.0825  0.1415
  173loPI    C1 2753   1.330  11.795  10.363  0.1909 -0.2120  0.0138
  173loPI    C2 2754   1.611  12.008  10.553  0.0201  0.1078 -0.0846
  173loPI    C3 2755   1.445  11.691  10.732  0.2284  0.0959  0.0920
  173loPI   PO4 2756   1.196  11.940  10.287 -0.4007 -0.1973 -0.1163
  173loPI   GL1 2757   0.898  12.051   9.999 -0.0618  0.1769 -0.1729
  173loPI   GL2 2758   1.065  12.371  10.027  0.0120  0.1334 -0.0235
  173loPI   C1A 2759   0.821  12.233   9.610 -0.2500  0.2256 -0.0264
  173loPI   C2A 2760   0.921  12.220   9.236  0.3828  0.3686  0.2019
  173loPI   C3A 2761   0.945  12.139   8.764 -0.1950 -0.1423  0.1024
  173loPI   C4A 2762   0.981  11.928   8.282  0.0027 -0.0496 -0.2209
  173loPI   C5A 2763   1.024  11.557   8.016 -0.1813  0.2331 -0.0499
  173loPI   C6A 2764   1.086  11.595   7.582 -0.1670 -0.3215 -0.2055
  173loPI   C1B 2765   1.305  12.542   9.648 -0.1702  0.1686 -0.0798
  173loPI   C2B 2766   1.381  12.499   9.190 -0.0924  0.1119  0.5112
  173loPI   C3B 2767   1.359  12.414   8.708  0.3083  0.2438  0.0810
  173loPI   C4B 2768   1.358  12.228   8.286 -0.1302  0.2157  0.1881
  174loPI    C1 2769   3.473   1.316  10.997  0.0889 -0.1780  0.1160
  174loPI    C2 2770   3.162   1.096  11.119  0.0493 -0.1103  0.1370
  174loPI    C3 2771   3.239   1.448  11.293 -0.0933  0.0548 -0.1275
  174loPI   PO4 2772   3.503   1.179  10.755 -0.0322 -0.2286 -0.0527
  174loPI   GL1 2773   3.385   1.023  10.356  0.0016  0.2275 -0.1166
  174loPI   GL2 2774   3.363   1.349  10.276 -0.1161 -0.1189  0.0360
  174loPI   C1A 2775   3.478   0.839   9.846  0.1602  0.1097  0.1986
  174loPI   C2A 2776   3.562   0.774   9.428 -0.1977 -0.2683  0.0070
  174loPI   C3A 2777   3.490   0.763   9.052  0.0106 -0.0374 -0.0433
  174loPI   C4A 2778   3.555   0.724   8.642 -0.2799 -0.3997 -0.2417
  174loPI   C5A 2779   3.641   0.849   8.235  0.1461 -0.1587 -0.0424
  174loPI   C6A 2780   3.747   1.200   8.036  0.1620 -0.1142  0.0015
  174loPI   C1B 2781   3.290   1.253   9.849 -0.1832 -0.0954 -0.1717
  174loPI   C2B 2782   3.444   1.307   9.394  0.0978 -0.0711 -0.3225
  174loPI   C3B 2783   3.378   1.260   8.971 -0.0699 -0.0655  0.3866
  174loPI   C4B 2784   3.339   1.313   8.521 -0.1430 -0.2423 -0.0041
  175loPI    C1 2785   2.350  17.158  10.882  0.1999 -0.0143 -0.3222
  175loPI    C2 2786   2.403  17.522  10.726 -0.2690  0.1436 -0.1319
  175loPI    C3 2787   2.408  17.472  11.123  0.0255 -0.1021 -0.1629
  175loPI   PO4 2788   2.463  17.015  10.731 -0.1619 -0.2348 -0.0332
  175loPI   GL1 2789   2.840  17.020  10.573  0.1191  0.0589  0.1340
  175loPI   GL2 2790   2.653  17.292  10.346 -0.0527 -0.5214 -0.2800
  175loPI   C1A 2791   2.893  16.929  10.103  0.0889  0.2430 -0.0978
  175loPI   C2A 2792   2.900  17.093   9.676  0.3594  0.3328 -0.0509
  175loPI   C3A 2793   2.943  16.999   9.252  0.1260 -0.1957  0.1065
  175loPI   C4A 2794   3.004  17.039   8.799  0.4668 -0.0184  0.0308
  175loPI   C5A 2795   3.068  17.091   8.268 -0.1381  0.3452 -0.2865
  175loPI   C6A 2796   3.262  16.793   7.972  0.1293  0.1186 -0.0441
  175loPI   C1B 2797   2.457  17.135   9.891  0.2191 -0.1262 -0.0792
  175loPI   C2B 2798   2.492  17.178   9.394 -0.1134  0.1245 -0.3430
  175loPI   C3B 2799   2.524  17.273   8.910 -0.0772  0.1207  0.0244
  175loPI   C4B 2800   2.556  17.147   8.384  0.2767  0.1094 -0.2003
  176loPI    C1 2801  16.790   3.894  10.491  0.0412  0.2368 -0.1496
  176loPI    C2 2802  16.478   3.759  10.703  0.0779  0.3227 -0.0398
  176loPI    C3 2803  16.843   3.612  10.771  0.0425  0.1276 -0.2592
  176loPI   PO4 2804  16.582   4.056  10.308  0.2108  0.3737 -0.2096
  176loPI   GL1 2805  16.391   4.003   9.856  0.0045 -0.1930  0.2319
  176loPI   GL2 2806  16.231   3.713   9.835 -0.1426  0.1242  0.1449
  176loPI   C1A 2807  16.336   4.365   9.675  0.0568 -0.0040  0.2684
  176loPI   C2A 2808  16.314   4.433   9.279  0.0382 -0.2464 -0.2392
  176loPI   C3A 2809  16.345   4.416   8.846 -0.2381  0.0231  0.1234
  176loPI   C4A 2810  16.319   4.333   8.400 -0.1611 -0.1129  0.1530
  176loPI   C5A 2811  16.572   4.607   7.990 -0.1148  0.0811 -0.3416
  176loPI   C6A 2812  16.822   4.281   7.758  0.2384 -0.0484 -0.1506
  176loPI   C1B 2813  16.376   3.929   9.397 -0.1199  0.3702  0.0834
  176loPI   C2B 2814  16.506   3.935   8.911 -0.1122 -0.1115 -0.2979
  176loPI   C3B 2815  16.432   3.836   8.505 -0.0139 -0.0370 -0.3270
  176loPI   C4B 2816  16.555   3.980   7.986 -0.0709  0.2868 -0.0303
  177loPI    C1 2817  10.133  18.401  10.356  0.1785  0.0646 -0.1911
  177loPI    C2 2818  10.086  18.758  10.531  0.0173 -0.0441 -0.0083
  177loPI    C3 2819  10.352  18.497  10.677  0.1044 -0.0167 -0.1160
  177loPI   PO4 2820   9.895  18.263  10.312 -0.2128 -0.0250  0.0537
  177loPI   GL1 2821   9.775  17.967   9.993  0.2544 -0.1306  0.1239
  177loPI   GL2 2822   9.484  17.867  10.052 -0.0075  0.0276  0.0547
  177loPI   C1A 2823   9.775  17.639   9.713  0.0764 -0.2133  0.1979
  177loPI   C2A 2824   9.792  17.515   9.229  0.3815 -0.3302 -0.2342
  177loPI   C3A 2825   9.710  17.708   8.865 -0.1758  0.0222 -0.4396
  177loPI   C4A 2826   9.760  17.640   8.494 -0.2244 -0.1981 -0.1016
  177loPI   C5A 2827  10.027  17.677   8.161 -0.2732  0.3330 -0.0864
  177loPI   C6A 2828   9.983  17.937   7.778 -0.0578 -0.2110  0.0192
  177loPI   C1B 2829   9.361  17.874   9.527 -0.0499 -0.1833 -0.1960
  177loPI   C2B 2830   9.219  17.966   9.084 -0.1955 -0.3709 -0.0248
  177loPI   C3B 2831   9.254  17.901   8.697  0.0566 -0.0474  0.2976
  177loPI   C4B 2832   9.299  17.837   8.331 -0.0200  0.4099 -0.3114
  178loPI    C1 2833   5.431   6.681  11.166 -0.1412 -0.0145  0.0944
  178loPI    C2 2834   5.504   6.650  11.558 -0.0236  0.1309  0.0849
  178loPI    C3 2835   5.182   6.850  11.430  0.1256  0.3834  0.0987
  178loPI   PO4 2836   5.699   6.781  11.076  0.0428  0.0940 -0.1601
  178loPI   GL1 2837   5.799   6.808  10.760 -0.0983  0.3239 -0.0275
  178loPI   GL2 2838   5.455   6.827  10.653  0.0512 -0.1004  0.1299
  178loPI   C1A 2839   5.887   6.696  10.380  0.0261  0.2784  0.3407
  178loPI   C2A 2840   5.854   6.565   9.983 -0.2447 -0.0795  0.1781
  178loPI   C3A 2841   5.777   6.561   9.464  0.0727  0.0493 -0.2448
  178loPI   C4A 2842   5.903   6.562   9.042  0.1279 -0.2143 -0.0710
  178loPI   C5A 2843   5.800   6.570   8.686  0.1364  0.2914 -0.2426
  178loPI   C6A 2844   5.688   6.749   8.320  0.0916  0.0469  0.1337
  178loPI   C1B 2845   5.420   6.756  10.227  0.0769 -0.1820 -0.2395
  178loPI   C2B 2846   5.398   6.687   9.768  0.0851 -0.3535  0.0689
  178loPI   C3B 2847   5.323   6.750   9.312 -0.0656  0.0490  0.5150
  178loPI   C4B 2848   5.357   6.750   8.943 -0.1232  0.1104  0.2908
  179loPI    C1 2849  12.557   3.209  10.663  0.1384  0.1323 -0.1475
  179loPI    C2 2850  12.235   3.198  10.901  0.1106 -0.0713 -0.1930
  179loPI    C3 2851  12.275   2.931  10.606  0.1090  0.2233 -0.4658
  179loPI   PO4 2852  12.602   3.429  10.559  0.3412 -0.1550  0.0306
  179loPI   GL1 2853  12.776   3.501  10.014 -0.2036  0.1844 -0.0283
  179loPI   GL2 2854  12.636   3.787  10.016  0.1171  0.0939  0.0785
  179loPI   C1A 2855  12.585   3.328   9.647  0.1896 -0.1374  0.2232
  179loPI   C2A 2856  12.676   3.350   9.270  0.0197 -0.1305 -0.0571
  179loPI   C3A 2857  12.652   3.376   8.859  0.1208  0.1748 -0.2487
  179loPI   C4A 2858  12.665   3.326   8.417  0.0035  0.1224  0.4408
  179loPI   C5A 2859  12.680   3.583   7.901 -0.0621  0.0589 -0.3375
  179loPI   C6A 2860  12.811   3.887   7.578  0.0150  0.0105  0.3693
  179loPI   C1B 2861  12.596   3.851   9.568 -0.3455  0.1852  0.0723
  179loPI   C2B 2862  12.616   3.935   9.185  0.1077  0.3265 -0.0621
  179loPI   C3B 2863  12.702   3.852   8.786 -0.1373 -0.1105  0.0350
  179loPI   C4B 2864  12.622   3.941   8.370  0.0928  0.1358 -0.3052
  180loPI    C1 2865   5.967   8.300  11.053 -0.0050  0.3086 -0.3079
  180loPI    C2 2866   5.936   8.327  11.451 -0.2948 -0.1074 -0.2958
  180loPI    C3 2867   6.250   8.489  11.263 -0.0509 -0.0832  0.1216
  180loPI   PO4 2868   5.941   8.076  11.022  0.1821 -0.3862 -0.3396
  180loPI   GL1 2869   5.900   7.879  10.647 -0.0678  0.0080 -0.0724
  180loPI   GL2 2870   5.704   7.753  10.503  0.0423  0.0768 -0.3572
  180loPI   C1A 2871   6.057   7.972  10.203  0.1066 -0.2692 -0.1640
  180loPI   C2A 2872   6.079   7.938   9.780 -0.1390  0.1687 -0.1831
  180loPI   C3A 2873   6.098   7.934   9.257  0.3008 -0.2494 -0.1369
  180loPI   C4A 2874   6.072   7.988   8.870 -0.0772  0.1345 -0.2513
  180loPI   C5A 2875   5.986   7.819   8.502 -0.1494 -0.0567 -0.0548
  180loPI   C6A 2876   6.380   7.789   8.322  0.0813 -0.0021  0.0795
  180loPI   C1B 2877   5.702   7.583   9.985  0.1599  0.0477  0.0520
  180loPI   C2B 2878   5.669   7.522   9.495 -0.0532 -0.0821  0.0935
  180loPI   C3B 2879   5.704   7.575   9.102  0.2235 -0.0674  0.0857
  180loPI   C4B 2880   5.540   7.693   8.671 -0.1889 -0.1784 -0.1599
  181loPI    C1 2881  16.492   5.583  10.911 -0.0284 -0.1320  0.0095
  181loPI    C2 2882  16.848   5.606  10.731  0.0041  0.0790  0.0981
  181loPI    C3 2883  16.822   5.646  11.128 -0.1311  0.1838  0.0796
  181loPI   PO4 2884  16.390   5.340  10.678 -0.3548  0.1015  0.0564
  181loPI   GL1 2885  16.602   5.093  10.344 -0.1574 -0.1633  0.0380
  181loPI   GL2 2886  17.041   5.160  10.133 -0.0918  0.3401 -0.2301
  181loPI   C1A 2887  16.604   5.253   9.851  0.2309  0.0189  0.0397
  181loPI   C2A 2888  16.716   5.282   9.331  0.2839 -0.1336  0.2530
  181loPI   C3A 2889  16.693   5.224   8.941 -0.1506 -0.1397  0.2559
  181loPI   C4A 2890  16.616   5.287   8.525 -0.0349 -0.2007 -0.0100
  181loPI   C5A 2891  16.509   5.146   8.122  0.0593 -0.0723  0.1809
  181loPI   C6A 2892  16.356   4.940   7.728 -0.2359 -0.3257 -0.0092
  181loPI   C1B 2893  17.050   5.105   9.731 -0.1113  0.1672  0.0845
  181loPI   C2B 2894  17.267   5.088   9.337  0.2484  0.0843 -0.3008
  181loPI   C3B 2895  17.165   5.140   8.966  0.0978 -0.0028  0.1054
  181loPI   C4B 2896  17.146   5.071   8.512  0.0502  0.1335  0.0705
  182loPI    C1 2897   0.862  11.295  10.564  0.1787 -0.1666 -0.0221
  182loPI    C2 2898   1.091  11.328  10.890  0.0393 -0.2715  0.0877
  182loPI    C3 2899   0.922  10.977  10.800 -0.0256 -0.2111 -0.0282
  182loPI   PO4 2900   0.955  11.478  10.379  0.0589  0.2249  0.1466
  182loPI   GL1 2901   1.038  11.550   9.917 -0.2482 -0.2308  0.2269
  182loPI   GL2 2902   0.926  11.245   9.895  0.2595  0.0946  0.1748
  182loPI   C1A 2903   0.979  11.650   9.533  0.1646 -0.2761  0.0202
  182loPI   C2A 2904   0.900  11.393   9.067 -0.0985 -0.1487  0.1599
  182loPI   C3A 2905   0.608  11.473   8.681 -0.1376 -0.2545 -0.2289
  182loPI   C4A 2906   0.569  11.451   8.225  0.2456  0.2558 -0.3215
  182loPI   C5A 2907   0.567  11.166   7.999  0.0718 -0.0592  0.0259
  182loPI   C6A 2908   0.794  11.107   7.568  0.0283 -0.1475 -0.3486
  182loPI   C1B 2909   0.976  11.172   9.519  0.0726  0.1573 -0.1761
  182loPI   C2B 2910   0.950  10.901   9.204 -0.3740 -0.0286  0.1832
  182loPI   C3B 2911   0.965  10.888   8.812  0.0108 -0.1606 -0.2857
  182loPI   C4B 2912   0.933  10.764   8.342  0.0211 -0.0830  0.5249
  183loPI    C1 2913  17.100   2.835  10.553 -0.0757 -0.2266 -0.2117
  183loPI    C2 2914  17.426   2.994  10.722 -0.0495 -0.4940 -0.0064
  183loPI    C3 2915  17.066   3.155  10.792  0.0249 -0.2603 -0.1518
  183loPI   PO4 2916  17.246   2.793  10.294 -0.1038 -0.2444 -0.2386
  183loPI   GL1 2917  17.273   3.005   9.932  0.0365  0.1589 -0.0838
  183loPI   GL2 2918  16.916   2.773   9.897 -0.0090  0.1162 -0.0524
  183loPI   C1A 2919  17.396   3.056   9.479 -0.2455 -0.3943 -0.0438
  183loPI   C2A 2920  17.478   3.109   9.084 -0.2795 -0.1461 -0.5355
  183loPI   C3A 2921  17.448   2.996   8.709  0.0975 -0.0123 -0.0478
  183loPI   C4A 2922  17.575   3.091   8.249  0.1534  0.0691  0.1726
  183loPI   C5A 2923  17.409   2.900   7.924  0.3415  0.0577  0.0112
  183loPI   C6A 2924  17.440   2.962   7.454 -0.0755  0.1641  0.0683
  183loPI   C1B 2925  17.012   2.747   9.473  0.2916 -0.2929 -0.0596
  183loPI   C2B 2926  17.043   2.839   9.101 -0.1147  0.0192 -0.3263
  183loPI   C3B 2927  17.109   2.683   8.738 -0.2748  0.3802 -0.0079
  183loPI   C4B 2928  17.172   2.539   8.295 -0.0158 -0.1346  0.3235
  184loPI    C1 2929  13.970   4.366  10.849  0.2001  0.1278  0.2187
  184loPI    C2 2930  13.702   4.641  10.963 -0.0577 -0.0324  0.0130
  184loPI    C3 2931  13.930   4.459  11.236 -0.3300 -0.0686  0.2201
  184loPI   PO4 2932  14.151   4.513  10.677  0.1693 -0.1213  0.1008
  184loPI   GL1 2933  14.128   4.658  10.180  0.1500 -0.1060 -0.0152
  184loPI   GL2 2934  14.165   4.867   9.897 -0.0633  0.2277 -0.0835
  184loPI   C1A 2935  14.184   4.322   9.874  0.1381  0.1721  0.0243
  184loPI   C2A 2936  14.002   4.176   9.533 -0.0308  0.3263 -0.2039
  184loPI   C3A 2937  14.029   4.340   9.054  0.1523 -0.1213 -0.2808
  184loPI   C4A 2938  13.938   4.327   8.584 -0.0626  0.1433 -0.0334
  184loPI   C5A 2939  14.063   4.247   8.200 -0.1867 -0.0286  0.1122
  184loPI   C6A 2940  14.354   4.070   7.867 -0.0544 -0.0080 -0.1313
  184loPI   C1B 2941  14.311   5.071   9.477  0.2961 -0.1275 -0.1265
  184loPI   C2B 2942  14.405   5.198   9.118 -0.2113 -0.0744 -0.1636
  184loPI   C3B 2943  14.303   5.241   8.743  0.0317 -0.2210 -0.0243
  184loPI   C4B 2944  14.212   5.110   8.345  0.1503  0.4160  0.0222
  185loPI    C1 2945   5.707  17.141  11.144  0.0381  0.1912 -0.0004
  185loPI    C2 2946   5.782  17.517  11.256 -0.1217  0.1897  0.1161
  185loPI    C3 2947   5.814  17.219  11.521  0.1712  0.0974 -0.0179
  185loPI   PO4 2948   5.913  17.141  10.898  0.0639  0.0050  0.4498
  185loPI   GL1 2949   6.021  16.963  10.459  0.3039 -0.1077 -0.1519
  185loPI   GL2 2950   5.915  17.354  10.480  0.3227  0.0882 -0.3390
  185loPI   C1A 2951   6.008  17.059   9.983 -0.1428  0.0186 -0.1015
  185loPI   C2A 2952   6.058  17.162   9.551  0.1878 -0.0976  0.2232
  185loPI   C3A 2953   6.079  17.210   9.178 -0.4804 -0.0544 -0.0174
  185loPI   C4A 2954   6.024  17.226   8.729  0.4886 -0.1148  0.0293
  185loPI   C5A 2955   5.889  17.355   8.333  0.1820 -0.1620 -0.1228
  185loPI   C6A 2956   5.625  17.604   8.046 -0.0433 -0.0531 -0.2860
  185loPI   C1B 2957   5.967  17.564  10.128 -0.1153 -0.2372  0.1982
  185loPI   C2B 2958   6.000  17.630   9.662  0.0556 -0.1013 -0.0152
  185loPI   C3B 2959   6.065  17.710   9.319  0.0226  0.1555 -0.1392
  185loPI   C4B 2960   6.041  17.780   8.839  0.1460 -0.1448  0.1775
  186loPI    C1 2961  16.583  16.498   9.987  0.0387  0.2339 -0.0798
  186loPI    C2 2962  16.352  16.212  10.145  0.1888  0.0882 -0.1215
  186loPI    C3 2963  16.404  16.557  10.340  0.2277 -0.0201  0.0624
  186loPI   PO4 2964  16.553  16.447   9.722 -0.0546 -0.1260 -0.2700
  186loPI   GL1 2965  16.709  16.493   9.344  0.0524  0.1457  0.0073
  186loPI   GL2 2966  17.020  16.357   9.495 -0.1876  0.0693  0.1525
  186loPI   C1A 2967  16.865  16.554   8.915  0.0961 -0.1779 -0.2862
  186loPI   C2A 2968  16.818  16.646   8.486 -0.3635  0.0810  0.0634
  186loPI   C3A 2969  16.974  16.710   8.086  0.3456  0.1499  0.0039
  186loPI   C4A 2970  17.233  16.804   7.738 -0.1743  0.1575  0.2187
  186loPI   C5A 2971  17.600  16.968   7.513 -0.0043  0.1451  0.4111
  186loPI   C6A 2972  17.933  16.926   7.099 -0.1570 -0.2458  0.0766
  186loPI   C1B 2973  17.081  16.161   9.129 -0.1764  0.2632 -0.2495
  186loPI   C2B 2974  17.134  16.167   8.662 -0.3883  0.2037  0.0968
  186loPI   C3B 2975  17.296  16.468   8.360  0.1187 -0.0718 -0.2144
  186loPI   C4B 2976  17.566  16.524   7.979  0.0904  0.1926  0.0794
  187loPI    C1 2977  14.137   7.529  10.774  0.0794  0.1155  0.1033
  187loPI    C2 2978  13.805   7.441  10.979  0.0636 -0.2702 -0.0783
  187loPI    C3 2979  14.092   7.663  11.148 -0.3244  0.1531  0.0457
  187loPI   PO4 2980  14.025   7.632  10.461  0.3162  0.0078 -0.4366
  187loPI   GL1 2981  13.980   7.405  10.017 -0.2005 -0.0103 -0.1757
  187loPI   GL2 2982  13.707   7.420   9.896  0.0969 -0.2946 -0.2070
  187loPI   C1A 2983  14.016   7.227   9.534  0.2790 -0.2456  0.1072
  187loPI   C2A 2984  14.162   7.159   9.114  0.5321  0.2805  0.0465
  187loPI   C3A 2985  13.973   7.241   8.780 -0.1643 -0.1462 -0.1764
  187loPI   C4A 2986  13.984   7.241   8.384  0.0374 -0.2840  0.0806
  187loPI   C5A 2987  13.836   7.226   8.032 -0.1355 -0.0775  0.1029
  187loPI   C6A 2988  13.649   7.293   7.602 -0.0216 -0.2974  0.0292
  187loPI   C1B 2989  13.570   7.466   9.470  0.0529  0.2937 -0.0623
  187loPI   C2B 2990  13.544   7.433   8.964 -0.1512  0.1343 -0.1956
  187loPI   C3B 2991  13.517   7.366   8.563  0.1289  0.2028  0.0707
  187loPI   C4B 2992  13.278   7.448   8.139  0.2842 -0.1176 -0.2108
  188loPI    C1 2993   1.743   2.881  10.688  0.2208 -0.1286  0.0411
  188loPI    C2 2994   1.919   3.019  10.357 -0.1290  0.0650 -0.0702
  188loPI    C3 2995   1.711   3.268  10.592 -0.0657 -0.1144  0.1802
  188loPI   PO4 2996   1.573   2.750  10.651  0.1230  0.0687 -0.0452
  188loPI   GL1 2997   1.435   2.859  10.259  0.1684  0.1708  0.2875
  188loPI   GL2 2998   1.246   2.552  10.193  0.0378 -0.2752 -0.0865
  188loPI   C1A 2999   1.769   2.893   9.937  0.1813 -0.4269  0.2754
  188loPI   C2A 3000   1.761   2.844   9.506  0.3164 -0.3510 -0.4025
  188loPI   C3A 3001   1.824   2.868   9.112  0.3757 -0.3208  0.1491
  188loPI   C4A 3002   1.842   2.941   8.655  0.0059  0.0492  0.1465
  188loPI   C5A 3003   2.103   2.776   8.232 -0.3419 -0.0998  0.0081
  188loPI   C6A 3004   1.964   2.584   7.807  0.1214 -0.1086  0.1202
  188loPI   C1B 3005   1.304   2.481   9.713 -0.1767 -0.0752  0.0469
  188loPI   C2B 3006   1.367   2.594   9.251 -0.2073 -0.2214 -0.0032
  188loPI   C3B 3007   1.433   2.643   8.814 -0.1164  0.4204  0.0140
  188loPI   C4B 3008   1.411   2.716   8.293  0.1469  0.3266  0.0344
  189loPI    C1 3009  15.309   7.171  10.128  0.0204 -0.0351  0.3855
  189loPI    C2 3010  14.965   7.164  10.333 -0.1436 -0.0123  0.1162
  189loPI    C3 3011  15.078   7.498  10.144 -0.0266 -0.0532  0.1134
  189loPI   PO4 3012  15.326   6.823  10.245  0.0689  0.1818  0.1007
  189loPI   GL1 3013  15.209   6.559  10.039 -0.0367  0.4047 -0.2645
  189loPI   GL2 3014  15.624   6.678   9.823  0.1018 -0.1351  0.4013
  189loPI   C1A 3015  15.099   6.365   9.632 -0.2027 -0.0440  0.0234
  189loPI   C2A 3016  15.056   6.322   9.195  0.0959  0.1224 -0.0775
  189loPI   C3A 3017  14.989   6.297   8.711 -0.0583 -0.1429 -0.2741
  189loPI   C4A 3018  15.003   6.413   8.376  0.0668  0.0648 -0.0526
  189loPI   C5A 3019  14.973   6.357   7.968 -0.0340 -0.0169 -0.0476
  189loPI   C6A 3020  14.627   6.272   7.660 -0.1370  0.0621  0.0077
  189loPI   C1B 3021  15.533   6.674   9.461  0.2110 -0.2871 -0.2425
  189loPI   C2B 3022  15.582   6.666   9.058  0.2802 -0.1867 -0.4377
  189loPI   C3B 3023  15.420   6.569   8.785  0.2709 -0.3589 -0.3247
  189loPI   C4B 3024  15.460   6.748   8.449  0.0020 -0.2445 -0.5811
  190loPI    C1 3025   5.169   6.273  11.195  0.0005  0.1746  0.2414
  190loPI    C2 3026   5.230   5.924  11.382 -0.2900  0.1244  0.2468
  190loPI    C3 3027   5.534   6.180  11.332 -0.0609 -0.1540  0.1897
  190loPI   PO4 3028   5.005   6.177  10.971  0.2305  0.3459 -0.1741
  190loPI   GL1 3029   5.143   6.357  10.646  0.1757 -0.0086 -0.3088
  190loPI   GL2 3030   4.937   6.482  10.444 -0.0032 -0.2415 -0.1037
  190loPI   C1A 3031   5.421   6.246  10.281 -0.2193 -0.0261  0.4443
  190loPI   C2A 3032   5.401   6.218   9.819 -0.0022  0.1015  0.2654
  190loPI   C3A 3033   5.447   6.229   9.337  0.0524 -0.1938  0.2809
  190loPI   C4A 3034   5.469   6.283   8.980 -0.0633  0.0214 -0.1838
  190loPI   C5A 3035   5.507   6.158   8.644  0.0109  0.1918 -0.1110
  190loPI   C6A 3036   5.705   5.958   8.309 -0.0250  0.3372 -0.0849
  190loPI   C1B 3037   4.977   6.382   9.994  0.0829  0.0429  0.1782
  190loPI   C2B 3038   4.993   6.373   9.523  0.1639 -0.1608 -0.0578
  190loPI   C3B 3039   5.007   6.418   9.091  0.3241 -0.0895 -0.3574
  190loPI   C4B 3040   4.990   6.511   8.699 -0.0061 -0.2560  0.0193
  191loPI    C1 3041   7.601   5.905  10.646  0.1437  0.0659 -0.0481
  191loPI    C2 3042   7.817   5.890  10.982 -0.0256 -0.0157  0.0585
  191loPI    C3 3043   7.850   5.599  10.710  0.0913  0.0363  0.0167
  191loPI   PO4 3044   7.627   6.133  10.591 -0.0281 -0.4053 -0.0683
  191loPI   GL1 3045   7.880   6.233  10.158  0.2819 -0.0298  0.2969
  191loPI   GL2 3046   8.068   6.009  10.108 -0.3402  0.0609  0.1358
  191loPI   C1A 3047   7.666   6.350   9.754 -0.3699 -0.1928  0.3248
  191loPI   C2A 3048   7.609   6.331   9.308  0.1903 -0.1043 -0.1100
  191loPI   C3A 3049   7.667   6.378   9.020  0.1822  0.0268 -0.0850
  191loPI   C4A 3050   7.722   6.383   8.548  0.1705  0.0886  0.0223
  191loPI   C5A 3051   7.493   6.207   8.223  0.0269 -0.0654 -0.0986
  191loPI   C6A 3052   7.194   6.218   8.003 -0.2607  0.0697 -0.2414
  191loPI   C1B 3053   8.084   6.072   9.676  0.2160  0.1824  0.2894
  191loPI   C2B 3054   8.111   6.151   9.292 -0.0565 -0.2828  0.0177
  191loPI   C3B 3055   8.099   6.176   8.916 -0.0868 -0.0130 -0.2009
  191loPI   C4B 3056   8.199   6.141   8.507  0.2147  0.1801 -0.0236
  192loPI    C1 3057  18.364  13.385  10.259  0.1619 -0.1794  0.1528
  192loPI    C2 3058  18.165  13.727  10.318  0.0079 -0.2481  0.0401
  192loPI    C3 3059  18.481  13.637  10.547  0.0253 -0.0498  0.0962
  192loPI   PO4 3060  18.268  13.310  10.016  0.0132  0.0395 -0.1850
  192loPI   GL1 3061  18.516  13.380   9.705  0.1041  0.1313 -0.1155
  192loPI   GL2 3062  18.864  13.559   9.654 -0.1455 -0.1074 -0.0559
  192loPI   C1A 3063  18.405  13.331   9.369 -0.2971  0.0257 -0.4289
  192loPI   C2A 3064  18.613  13.218   9.027 -0.0389 -0.0044  0.0362
  192loPI   C3A 3065  18.574  13.224   8.608  0.1220  0.0612  0.2318
  192loPI   C4A 3066  18.249  13.305   8.395  0.2241 -0.0810 -0.1442
  192loPI   C5A 3067  18.186  13.285   8.092 -0.0190 -0.1195 -0.0423
  192loPI   C6A 3068  18.255  13.301   7.660  0.1197  0.3142 -0.3426
  192loPI   C1B 3069  18.903  13.602   9.265 -0.0041  0.0972 -0.0081
  192loPI   C2B 3070  18.966  13.517   8.723 -0.0040  0.0766 -0.1581
  192loPI   C3B 3071  18.867  13.549   8.335  0.2910 -0.0242  0.0484
  192loPI   C4B 3072  18.755  13.199   8.098 -0.0005 -0.3981 -0.2437
  193loPI    C1 3073  13.533  10.811  10.482  0.0546 -0.0223  0.0550
  193loPI    C2 3074  13.760  10.620  10.751  0.0053 -0.0509  0.0763
  193loPI    C3 3075  13.465  10.862  10.873 -0.0044 -0.0487  0.0482
  193loPI   PO4 3076  13.478  10.495  10.352  0.0868 -0.1375  0.2905
  193loPI   GL1 3077  13.479  10.495   9.817 -0.1297 -0.1937  0.1876
  193loPI   GL2 3078  13.689  10.428   9.494 -0.0349 -0.3661 -0.1967
  193loPI   C1A 3079  13.214  10.510   9.360 -0.2212 -0.1900  0.1286
  193loPI   C2A 3080  13.198  10.506   8.954 -0.0569  0.0098 -0.0104
  193loPI   C3A 3081  13.048  10.405   8.546 -0.0524 -0.1656 -0.0227
  193loPI   C4A 3082  12.946  10.411   8.074 -0.2457  0.1951  0.2511
  193loPI   C5A 3083  12.740  10.339   7.725  0.3745 -0.1784  0.0689
  193loPI   C6A 3084  12.875  10.089   7.404 -0.1266 -0.3583 -0.2810
  193loPI   C1B 3085  13.620  10.357   9.004 -0.0099 -0.2282 -0.2020
  193loPI   C2B 3086  13.547  10.273   8.654  0.2614 -0.2752 -0.0505
  193loPI   C3B 3087  13.379  10.202   8.246  0.0035  0.2764 -0.0724
  193loPI   C4B 3088  13.376  10.112   7.920 -0.2094 -0.0328  0.3182
  194loPI    C1 3089   3.706   1.925  11.224 -0.1436 -0.1228  0.1142
  194loPI    C2 3090   3.545   2.253  11.387  0.1661  0.0539  0.0726
  194loPI    C3 3091   3.857   2.075  11.562  0.2862  0.0473 -0.1451
  194loPI   PO4 3092   3.746   1.981  10.995  0.1967 -0.3765  0.2624
  194loPI   GL1 3093   3.986   1.911  10.688  0.4041 -0.0690 -0.0899
  194loPI   GL2 3094   4.167   2.178  10.489 -0.2526  0.1517 -0.1733
  194loPI   C1A 3095   4.247   1.757  10.226  0.0037 -0.0485 -0.0665
  194loPI   C2A 3096   4.336   1.891   9.793  0.1341 -0.5082  0.2191
  194loPI   C3A 3097   4.261   1.906   9.503 -0.1462 -0.0897 -0.2137
  194loPI   C4A 3098   4.199   1.948   9.139 -0.1005  0.3534 -0.2315
  194loPI   C5A 3099   4.054   1.919   8.748  0.1709  0.0201 -0.1056
  194loPI   C6A 3100   3.944   1.829   8.254  0.0450 -0.0381  0.2149
  194loPI   C1B 3101   4.133   2.402  10.120  0.1535  0.0053  0.0313
  194loPI   C2B 3102   4.216   2.413   9.658 -0.0921  0.0606  0.1377
  194loPI   C3B 3103   4.149   2.427   9.242  0.3227  0.3135 -0.0555
  194loPI   C4B 3104   4.180   2.498   8.752  0.1292 -0.1291  0.2800
  195loPI    C1 3105   8.747  13.024  10.647 -0.0817 -0.1343 -0.0377
  195loPI    C2 3106   8.973  13.025  10.977 -0.0209 -0.1069 -0.0792
  195loPI    C3 3107   8.843  13.370  10.823 -0.0325 -0.1185 -0.0954
  195loPI   PO4 3108   8.945  12.775  10.467 -0.1442  0.0994 -0.0662
  195loPI   GL1 3109   9.110  12.965  10.155  0.0853 -0.1293  0.0711
  195loPI   GL2 3110   9.196  13.269  10.056  0.0744 -0.3187 -0.1725
  195loPI   C1A 3111   9.105  12.696   9.858  0.0268  0.2192 -0.4521
  195loPI   C2A 3112   9.069  12.633   9.431  0.3435  0.0867  0.3976
  195loPI   C3A 3113   9.004  12.597   9.035 -0.2294 -0.2082 -0.1611
  195loPI   C4A 3114   8.952  12.611   8.591 -0.3564 -0.1468 -0.1703
  195loPI   C5A 3115   8.978  12.521   8.301  0.2771  0.0260  0.0920
  195loPI   C6A 3116   9.251  12.291   8.095 -0.0365  0.1501  0.2677
  195loPI   C1B 3117   9.052  13.124   9.672  0.1779  0.1988 -0.1699
  195loPI   C2B 3118   8.950  13.106   9.270  0.1095 -0.1683  0.2208
  195loPI   C3B 3119   8.972  13.094   8.905 -0.0128  0.1528 -0.1951
  195loPI   C4B 3120   9.011  13.101   8.484 -0.2027  0.3011  0.1627
  196loPI    C1 3121  11.395  14.362  10.256  0.0315 -0.0578  0.0132
  196loPI    C2 3122  11.453  13.991  10.394  0.0761 -0.0754 -0.0522
  196loPI    C3 3123  11.531  14.306  10.628 -0.0308 -0.1084  0.0287
  196loPI   PO4 3124  11.361  14.435  10.015 -0.2917 -0.0916 -0.1523
  196loPI   GL1 3125  11.528  14.504   9.548  0.2814  0.0513  0.1212
  196loPI   GL2 3126  11.217  14.258   9.600 -0.0352 -0.1137  0.0892
  196loPI   C1A 3127  11.486  14.501   9.199  0.0118 -0.2778  0.2992
  196loPI   C2A 3128  11.511  14.453   8.755  0.1447  0.2685  0.0108
  196loPI   C3A 3129  11.421  14.368   8.282  0.0940 -0.1683 -0.4109
  196loPI   C4A 3130  11.478  14.287   7.902 -0.0245  0.2877 -0.2444
  196loPI   C5A 3131  11.750  14.262   7.574 -0.2776  0.0426  0.3797
  196loPI   C6A 3132  11.727  14.095   7.200  0.0335  0.1214  0.2873
  196loPI   C1B 3133  11.148  14.117   9.111  0.1041  0.0931  0.0386
  196loPI   C2B 3134  11.001  14.053   8.667  0.2351 -0.3043  0.2531
  196loPI   C3B 3135  11.010  13.983   8.310  0.0042 -0.1954 -0.2253
  196loPI   C4B 3136  10.966  14.047   7.872  0.0647 -0.0300 -0.0366
  197loPI    C1 3137  10.214   4.835  10.839 -0.0637  0.0694  0.1095
  197loPI    C2 3138   9.971   4.638  11.089  0.0703 -0.2112  0.0236
  197loPI    C3 3139  10.068   4.477  10.736 -0.0521  0.1451 -0.1778
  197loPI   PO4 3140   9.995   5.040  10.764  0.0194 -0.2237  0.0660
  197loPI   GL1 3141   9.709   4.999  10.334  0.0327  0.1531 -0.0585
  197loPI   GL2 3142   9.705   4.578  10.267  0.0566  0.0947 -0.1382
  197loPI   C1A 3143   9.646   5.025   9.831 -0.0497  0.3303 -0.0679
  197loPI   C2A 3144   9.607   5.125   9.503 -0.3121 -0.0769  0.3929
  197loPI   C3A 3145   9.679   5.140   9.085  0.0754  0.1083  0.1955
  197loPI   C4A 3146   9.552   5.038   8.712 -0.0295  0.0648 -0.2914
  197loPI   C5A 3147   9.406   5.170   8.400 -0.1982 -0.1904 -0.1928
  197loPI   C6A 3148   9.070   4.976   8.254  0.3140  0.0663  0.0646
  197loPI   C1B 3149   9.725   4.565   9.896  0.0908  0.3170 -0.6607
  197loPI   C2B 3150   9.721   4.556   9.440 -0.3373  0.3833 -0.1614
  197loPI   C3B 3151   9.760   4.471   9.091  0.1040  0.1281 -0.1709
  197loPI   C4B 3152   9.685   4.462   8.661  0.0325 -0.0138 -0.0097
  198loPI    C1 3153  11.785  13.990  10.019 -0.0745 -0.1105 -0.1453
  198loPI    C2 3154  11.912  13.611  10.029  0.0080 -0.0792  0.0163
  198loPI    C3 3155  12.021  13.867  10.317  0.0370  0.0944 -0.1471
  198loPI   PO4 3156  11.588  14.019   9.840 -0.1606  0.0079 -0.2239
  198loPI   GL1 3157  11.628  13.901   9.511 -0.0018  0.0648  0.1162
  198loPI   GL2 3158  11.747  13.556   9.588  0.3942 -0.2588 -0.2103
  198loPI   C1A 3159  11.608  13.808   8.994 -0.2331 -0.4235  0.0278
  198loPI   C2A 3160  11.601  13.833   8.561  0.0901  0.0052  0.1651
  198loPI   C3A 3161  11.448  13.761   8.082  0.0080  0.1767  0.1323
  198loPI   C4A 3162  11.309  13.807   7.638  0.0676  0.1739  0.1673
  198loPI   C5A 3163  11.283  14.124   7.370  0.0246 -0.0567 -0.0718
  198loPI   C6A 3164  11.403  14.499   7.252  0.3208 -0.1792  0.1127
  198loPI   C1B 3165  11.966  13.576   9.167 -0.2191  0.4227  0.2425
  198loPI   C2B 3166  12.028  13.630   8.734  0.1042 -0.0720 -0.1480
  198loPI   C3B 3167  11.934  13.679   8.266 -0.1400 -0.1684 -0.1159
  198loPI   C4B 3168  11.950  13.802   7.831 -0.1511  0.1115  0.1533
  199loPI    C1 3169  16.622   3.365  10.401 -0.2240 -0.0262  0.2574
  199loPI    C2 3170  16.727   2.999  10.276  0.2037  0.1528  0.0753
  199loPI    C3 3171  16.586   3.051  10.647  0.4162 -0.1556  0.2040
  199loPI   PO4 3172  16.464   3.483  10.234  0.0431 -0.0348 -0.1431
  199loPI   GL1 3173  16.371   3.191   9.897  0.0600 -0.1512  0.1883
  199loPI   GL2 3174  16.757   3.287   9.852 -0.0202  0.3281 -0.2458
  199loPI   C1A 3175  16.416   3.424   9.522 -0.2174  0.0450 -0.0375
  199loPI   C2A 3176  16.501   3.430   9.139  0.0120  0.0370 -0.0771
  199loPI   C3A 3177  16.559   3.456   8.783  0.1646  0.0015  0.4508
  199loPI   C4A 3178  16.535   3.359   8.318  0.0150  0.1162 -0.2120
  199loPI   C5A 3179  16.704   3.494   7.936  0.1321 -0.0670  0.0661
  199loPI   C6A 3180  17.126   3.364   7.900 -0.0765 -0.4100  0.0030
  199loPI   C1B 3181  16.916   3.248   9.438 -0.2967 -0.1090 -0.1885
  199loPI   C2B 3182  16.988   3.314   9.002  0.2635 -0.3001 -0.0459
  199loPI   C3B 3183  16.943   3.221   8.546 -0.0371  0.2593 -0.2695
  199loPI   C4B 3184  17.098   3.025   8.320 -0.0062 -0.3834  0.2070
  200loPI    C1 3185  10.316  16.597  10.343  0.0501  0.1417  0.0972
  200loPI    C2 3186  10.381  16.338  10.641 -0.0773  0.0519  0.0479
  200loPI    C3 3187  10.521  16.712  10.667  0.0045  0.0132  0.1723
  200loPI   PO4 3188  10.332  16.409  10.113  0.0375 -0.1067  0.0775
  200loPI   GL1 3189  10.461  16.410   9.727  0.0030 -0.2428 -0.1209
  200loPI   GL2 3190  10.564  16.087   9.819  0.6133 -0.0682  0.0468
  200loPI   C1A 3191  10.336  16.512   9.302  0.1286  0.2125 -0.0603
  200loPI   C2A 3192  10.367  16.467   8.773 -0.1982  0.2428 -0.1956
  200loPI   C3A 3193  10.304  16.417   8.327  0.0759  0.2796 -0.4069
  200loPI   C4A 3194  10.102  16.344   7.885  0.1773 -0.0176  0.0191
  200loPI   C5A 3195   9.870  16.684   7.730 -0.0468 -0.0504 -0.1224
  200loPI   C6A 3196   9.611  17.071   7.500  0.0029  0.3480  0.3045
  200loPI   C1B 3197  10.347  15.921   9.487  0.0042  0.1104  0.1759
  200loPI   C2B 3198  10.113  16.001   9.185  0.0051  0.0428 -0.2466
  200loPI   C3B 3199   9.969  16.065   8.808 -0.2668  0.1671  0.0769
  200loPI   C4B 3200   9.902  16.131   8.419  0.6068  0.3719 -0.0010
  201loPI    C1 3201  12.218   4.683  10.800  0.4036 -0.1363 -0.1921
  201loPI    C2 3202  12.287   4.660  11.193 -0.3962  0.0642 -0.0219
  201loPI    C3 3203  12.429   4.969  10.983  0.0393 -0.0465  0.1001
  201loPI   PO4 3204  12.032   4.699  10.728 -0.0031 -0.0369 -0.2805
  201loPI   GL1 3205  11.924   4.756  10.322  0.0441 -0.1716 -0.1794
  201loPI   GL2 3206  12.173   4.485  10.127  0.1593  0.3948  0.1583
  201loPI   C1A 3207  11.638   4.811   9.980 -0.1335  0.0531 -0.2912
  201loPI   C2A 3208  11.665   4.750   9.516 -0.0268 -0.2028  0.2312
  201loPI   C3A 3209  11.616   4.684   9.046  0.1513 -0.2066  0.0944
  201loPI   C4A 3210  11.510   4.698   8.668  0.2276  0.0376 -0.0079
  201loPI   C5A 3211  11.393   4.689   8.281  0.2268  0.3085  0.0497
  201loPI   C6A 3212  11.114   4.778   7.884  0.4223  0.0952  0.5204
  201loPI   C1B 3213  12.121   4.569   9.681  0.2151 -0.2751 -0.1553
  201loPI   C2B 3214  12.083   4.595   9.192  0.2189  0.2032  0.1994
  201loPI   C3B 3215  12.029   4.562   8.818  0.2705 -0.2258  0.0145
  201loPI   C4B 3216  11.986   4.637   8.482  0.1155 -0.3498  0.1152
  202loPI    C1 3217   9.945  12.852  10.917 -0.0189 -0.1309 -0.1492
  202loPI    C2 3218   9.766  12.504  10.998  0.0439 -0.1469 -0.0776
  202loPI    C3 3219  10.026  12.660  11.259  0.0276 -0.0540 -0.1167
  202loPI   PO4 3220   9.743  12.984  10.678  0.0465 -0.1350  0.1091
  202loPI   GL1 3221   9.564  12.834  10.293 -0.0927 -0.0983 -0.0447
  202loPI   GL2 3222   9.584  12.600  10.183 -0.3445 -0.1798  0.0846
  202loPI   C1A 3223   9.608  12.968   9.837  0.2646  0.1791 -0.1537
  202loPI   C2A 3224   9.497  12.850   9.491  0.1885  0.2214 -0.1104
  202loPI   C3A 3225   9.426  12.841   9.180  0.2493  0.2032 -0.1420
  202loPI   C4A 3226   9.347  12.861   8.771 -0.1913 -0.1458 -0.3587
  202loPI   C5A 3227   9.415  12.784   8.298 -0.2313 -0.0437  0.2632
  202loPI   C6A 3228   9.314  12.790   7.896  0.0208 -0.2496 -0.0465
  202loPI   C1B 3229   9.542  12.460   9.830  0.3338  0.0583  0.1769
  202loPI   C2B 3230   9.505  12.363   9.412 -0.1767 -0.4305 -0.0604
  202loPI   C3B 3231   9.464  12.361   8.992 -0.0455 -0.2439  0.0322
  202loPI   C4B 3232   9.407  12.345   8.603  0.1177  0.1175  0.4512
  203loPI    C1 3233  15.354  14.221   9.603 -0.0090  0.0932 -0.0712
  203loPI    C2 3234  15.135  13.889   9.652 -0.1534  0.1683 -0.1988
  203loPI    C3 3235  15.159  14.158   9.947  0.3196 -0.1583  0.0749
  203loPI   PO4 3236  15.592  14.081   9.449 -0.1296  0.1741 -0.0172
  203loPI   GL1 3237  15.428  13.649   9.196 -0.0238 -0.1567  0.3765
  203loPI   GL2 3238  15.328  13.961   9.071  0.3221  0.0924 -0.5168
  203loPI   C1A 3239  15.602  13.597   8.795 -0.3653  0.0110  0.2248
  203loPI   C2A 3240  15.647  13.579   8.378 -0.0362 -0.1197 -0.3715
  203loPI   C3A 3241  15.768  13.477   7.892 -0.0319 -0.1091 -0.3488
  203loPI   C4A 3242  15.781  13.299   7.492 -0.2221  0.1166 -0.1087
  203loPI   C5A 3243  15.595  13.095   7.222 -0.4277 -0.3042  0.1334
  203loPI   C6A 3244  15.454  13.065   6.786 -0.0403  0.0941 -0.1863
  203loPI   C1B 3245  15.277  13.899   8.678 -0.1180 -0.1064 -0.0998
  203loPI   C2B 3246  15.211  13.789   8.230  0.0576  0.1629 -0.4598
  203loPI   C3B 3247  15.313  13.631   7.961 -0.2779  0.2719 -0.0781
  203loPI   C4B 3248  15.383  13.655   7.435  0.1188  0.1316  0.1562
  204loPI    C1 3249   3.629  18.324  10.921  0.0638  0.1439  0.1576
  204loPI    C2 3250   3.454  18.199  11.258  0.0580 -0.0084  0.0989
  204loPI    C3 3251   3.851  18.243  11.244  0.0475  0.1083  0.1601
  204loPI   PO4 3252   3.505  18.263  10.750  0.1066 -0.2174 -0.2262
  204loPI   GL1 3253   3.617  18.091  10.333  0.2620 -0.1435 -0.5275
  204loPI   GL2 3254   3.551  17.850  10.474  0.0116  0.1958  0.1696
  204loPI   C1A 3255   3.620  18.153   9.825  0.2130  0.0212 -0.3242
  204loPI   C2A 3256   3.663  18.255   9.416 -0.2379 -0.0038 -0.2618
  204loPI   C3A 3257   3.680  18.246   9.031 -0.1816  0.1054 -0.3227
  204loPI   C4A 3258   3.727  18.159   8.686 -0.1332  0.0834  0.2086
  204loPI   C5A 3259   4.080  17.986   8.419 -0.1459 -0.1999 -0.0477
  204loPI   C6A 3260   3.944  17.995   7.953  0.1424 -0.0051 -0.3242
  204loPI   C1B 3261   3.271  17.824  10.068 -0.0222 -0.1739 -0.2549
  204loPI   C2B 3262   3.271  17.783   9.653  0.0288  0.0876  0.0808
  204loPI   C3B 3263   3.297  17.930   9.105  0.1021 -0.1562  0.1273
  204loPI   C4B 3264   3.340  17.855   8.653  0.0224 -0.1829 -0.1194
  205loPI    C1 3265   0.275   9.010  10.593  0.0696 -0.0950  0.1864
  205loPI    C2 3266  -0.112   8.911  10.607  0.0983 -0.2152  0.1392
  205loPI    C3 3267   0.044   9.146  10.890 -0.0495 -0.0189  0.0601
  205loPI   PO4 3268   0.367   8.841  10.389  0.1995  0.0134  0.3339
  205loPI   GL1 3269   0.518   8.870  10.020 -0.0668 -0.2176 -0.1611
  205loPI   GL2 3270   0.389   8.900   9.875  0.1917  0.2294 -0.0809
  205loPI   C1A 3271   0.833   8.654   9.837  0.0804  0.2836  0.2663
  205loPI   C2A 3272   0.873   8.553   9.380  0.0781 -0.2485  0.1372
  205loPI   C3A 3273   0.972   8.504   8.936  0.1754  0.0880  0.0455
  205loPI   C4A 3274   0.962   8.469   8.423 -0.1833 -0.0271 -0.2650
  205loPI   C5A 3275   0.691   8.479   8.188 -0.1376  0.3705  0.1991
  205loPI   C6A 3276   0.393   8.202   7.964 -0.0918 -0.3834  0.3154
  205loPI   C1B 3277   0.311   8.775   9.433 -0.0781 -0.3160  0.1300
  205loPI   C2B 3278   0.380   8.717   9.045 -0.0256  0.0793 -0.2415
  205loPI   C3B 3279   0.385   8.715   8.598 -0.3176  0.2011 -0.0845
  205loPI   C4B 3280   0.299   9.115   8.297 -0.2103 -0.4000 -0.3031
  206loPI    C1 3281   9.315  10.392  10.742  0.0118  0.0377 -0.2956
  206loPI    C2 3282   9.477  10.680  10.967  0.0663 -0.0835 -0.1784
  206loPI    C3 3283   9.713  10.424  10.770  0.0199 -0.2406 -0.0330
  206loPI   PO4 3284   9.199  10.473  10.509 -0.1905 -0.0298 -0.3246
  206loPI   GL1 3285   9.331  10.649  10.112  0.1301  0.0534 -0.0530
  206loPI   GL2 3286   9.271  10.979  10.007 -0.2136  0.0740  0.2708
  206loPI   C1A 3287   9.256  10.680   9.583  0.2641  0.2151  0.4693
  206loPI   C2A 3288   9.168  10.495   9.237  0.1579 -0.0092 -0.2419
  206loPI   C3A 3289   9.277  10.554   8.803  0.2900 -0.0809  0.1162
  206loPI   C4A 3290   9.159  10.516   8.381 -0.1712 -0.2240 -0.0714
  206loPI   C5A 3291   8.816  10.604   8.048 -0.0740  0.0711 -0.4130
  206loPI   C6A 3292   8.769  10.312   7.784  0.1184  0.1388  0.3662
  206loPI   C1B 3293   9.322  11.142   9.681  0.0038  0.3059 -0.0835
  206loPI   C2B 3294   9.224  11.132   9.234 -0.1394 -0.1840 -0.2218
  206loPI   C3B 3295   9.186  11.138   8.790  0.2766 -0.2665  0.0824
  206loPI   C4B 3296   9.544  10.917   8.461  0.2064  0.2393  0.0215
  207loPI    C1 3297  11.223   5.764  10.939 -0.1628 -0.2183  0.1070
  207loPI    C2 3298  11.289   5.897  11.311  0.0651 -0.0733  0.0169
  207loPI    C3 3299  10.916   5.820  11.190 -0.0251  0.0279  0.2254
  207loPI   PO4 3300  11.269   5.907  10.808  0.0975  0.1984  0.0132
  207loPI   GL1 3301  11.099   5.977  10.354  0.0804 -0.2176 -0.1400
  207loPI   GL2 3302  11.159   5.687  10.362  0.0493 -0.1757  0.1763
  207loPI   C1A 3303  10.955   6.127  10.034 -0.1069 -0.1407 -0.0268
  207loPI   C2A 3304  10.886   6.101   9.612  0.1862  0.4145  0.2059
  207loPI   C3A 3305  10.951   5.852   9.251 -0.1108 -0.2407  0.2242
  207loPI   C4A 3306  10.940   5.891   8.861  0.3963 -0.1326 -0.0010
  207loPI   C5A 3307  10.928   5.987   8.456  0.1050 -0.3049  0.0458
  207loPI   C6A 3308  10.616   5.906   8.175 -0.1626 -0.2942  0.0558
  207loPI   C1B 3309  11.106   5.570   9.936  0.1260  0.3119  0.3987
  207loPI   C2B 3310  11.075   5.474   9.531  0.1406 -0.0778 -0.2209
  207loPI   C3B 3311  11.037   5.426   8.997  0.0563 -0.2247 -0.2483
  207loPI   C4B 3312  10.983   5.492   8.592 -0.1769 -0.1161  0.3552
  208loPI    C1 3313   3.491   9.675  10.640 -0.2067  0.0810 -0.2424
  208loPI    C2 3314   3.119   9.594  10.765 -0.0125 -0.2572  0.1396
  208loPI    C3 3315   3.340   9.866  10.957 -0.0250 -0.1278 -0.0267
  208loPI   PO4 3316   3.493   9.622  10.358 -0.0629 -0.1135  0.0527
  208loPI   GL1 3317   3.781   9.526  10.142 -0.0499  0.0846  0.3156
  208loPI   GL2 3318   4.082   9.617  10.194  0.0183 -0.1411 -0.1277
  208loPI   C1A 3319   3.820   9.725   9.701  0.0021 -0.0557 -0.2056
  208loPI   C2A 3320   3.898   9.577   9.356 -0.0459 -0.2812 -0.2044
  208loPI   C3A 3321   3.872   9.732   8.867 -0.1479 -0.0225 -0.3890
  208loPI   C4A 3322   4.168   9.660   8.529 -0.1100 -0.0287  0.1189
  208loPI   C5A 3323   4.553   9.458   8.700  0.0463  0.0215 -0.0568
  208loPI   C6A 3324   4.471   9.366   9.191  0.0154 -0.0521  0.2698
  208loPI   C1B 3325   4.339   9.543   9.808  0.3566 -0.0280 -0.1015
  208loPI   C2B 3326   4.081   9.199   9.536 -0.1195  0.1486  0.0032
  208loPI   C3B 3327   3.972   9.117   9.213  0.1150 -0.1627  0.2177
  208loPI   C4B 3328   4.197   9.089   8.727 -0.2007 -0.3923 -0.0596
  209loPI    C1 3329   8.777   0.568  10.862  0.2725 -0.0434 -0.0018
  209loPI    C2 3330   8.646   0.674  11.224  0.0987  0.0448 -0.0893
  209loPI    C3 3331   8.541   0.321  11.070 -0.0438  0.1183 -0.1621
  209loPI   PO4 3332   8.744   0.704  10.608  0.1640  0.0546 -0.0622
  209loPI   GL1 3333   8.825   0.865  10.254  0.2391  0.1753 -0.1859
  209loPI   GL2 3334   9.047   1.010  10.105  0.1831  0.1411  0.1822
  209loPI   C1A 3335   8.774   0.727   9.809  0.3293  0.3409 -0.2130
  209loPI   C2A 3336   8.601   0.631   9.456  0.1275 -0.0784  0.0328
  209loPI   C3A 3337   8.501   0.606   9.040 -0.0255  0.1128 -0.1238
  209loPI   C4A 3338   8.431   0.521   8.607  0.1767 -0.0958 -0.0325
  209loPI   C5A 3339   8.793   0.515   8.198 -0.2659 -0.1848  0.0250
  209loPI   C6A 3340   8.854   0.663   7.787 -0.1845 -0.2292  0.2594
  209loPI   C1B 3341   9.108   0.995   9.668 -0.1992  0.0409 -0.0449
  209loPI   C2B 3342   8.990   0.922   9.281  0.2990 -0.1997 -0.0654
  209loPI   C3B 3343   8.987   0.970   8.820  0.0038  0.2800 -0.1969
  209loPI   C4B 3344   8.679   0.938   8.543 -0.1205  0.1415  0.4452
  210loPI    C1 3345   1.123   8.054  10.984  0.1805 -0.1465  0.3047
  210loPI    C2 3346   1.435   8.148  11.216  0.2234 -0.0410  0.2056
  210loPI    C3 3347   1.062   8.189  11.355  0.2509 -0.0668  0.2874
  210loPI   PO4 3348   1.112   8.174  10.713 -0.3453 -0.4318  0.3843
  210loPI   GL1 3349   1.235   8.050  10.383  0.0021  0.3396  0.1241
  210loPI   GL2 3350   1.001   8.313  10.239 -0.0051  0.0377 -0.1502
  210loPI   C1A 3351   1.388   7.979   9.940  0.0233  0.0829 -0.0879
  210loPI   C2A 3352   1.469   7.870   9.495 -0.3778 -0.1341  0.0156
  210loPI   C3A 3353   1.437   7.830   9.053  0.0536  0.4979 -0.0059
  210loPI   C4A 3354   1.494   7.820   8.619  0.4203  0.1096 -0.2553
  210loPI   C5A 3355   1.654   7.807   8.249  0.0061  0.4632 -0.0750
  210loPI   C6A 3356   1.914   7.603   8.053  0.0427 -0.0697  0.2518
  210loPI   C1B 3357   0.917   8.032   9.815  0.4892  0.0178  0.0650
  210loPI   C2B 3358   1.007   8.063   9.420 -0.0677  0.1243 -0.1165
  210loPI   C3B 3359   0.923   8.053   9.130 -0.1101  0.0515  0.2316
  210loPI   C4B 3360   1.028   7.961   8.618 -0.0319  0.1112 -0.1512
  211loPI    C1 3361   4.762  11.651  10.637 -0.2972  0.1750  0.0241
  211loPI    C2 3362   4.830  11.266  10.723 -0.2426  0.1277 -0.2216
  211loPI    C3 3363   4.643  11.500  10.988 -0.2268 -0.0530 -0.0479
  211loPI   PO4 3364   4.833  11.652  10.338  0.3759  0.1009 -0.0078
  211loPI   GL1 3365   4.937  11.489   9.997  0.1852  0.3255  0.0124
  211loPI   GL2 3366   5.084  11.265  10.129  0.0241 -0.1197 -0.0610
  211loPI   C1A 3367   5.046  11.248   9.684  0.2335 -0.0760 -0.0012
  211loPI   C2A 3368   5.140  11.351   9.204  0.0034  0.0137  0.0420
  211loPI   C3A 3369   5.082  11.180   8.782  0.2632 -0.2468  0.1099
  211loPI   C4A 3370   5.209  11.257   8.376  0.0314  0.4631  0.1142
  211loPI   C5A 3371   5.242  10.832   8.166 -0.0209 -0.1809 -0.1538
  211loPI   C6A 3372   5.036  10.512   8.187 -0.4721 -0.0293 -0.1442
  211loPI   C1B 3373   4.664  11.078   9.952  0.0079  0.1942  0.2557
  211loPI   C2B 3374   4.487  10.897   9.586 -0.2848 -0.3205  0.1270
  211loPI   C3B 3375   4.478  10.822   9.157 -0.3410  0.2031  0.0771
  211loPI   C4B 3376   4.705  10.783   8.776 -0.0085 -0.3421  0.1983
  212loPI    C1 3377   9.672   0.583  10.853 -0.0625  0.0310 -0.1782
  212loPI    C2 3378   9.619   0.969  10.944  0.1762  0.0770 -0.2296
  212loPI    C3 3379   9.898   0.754  11.135  0.1486 -0.0298 -0.3083
  212loPI   PO4 3380   9.697   0.580  10.632  0.1295  0.0706  0.0958
  212loPI   GL1 3381   9.551   0.689  10.219  0.0230  0.0207 -0.0688
  212loPI   GL2 3382   9.751   0.383  10.186  0.0805  0.0260 -0.3350
  212loPI   C1A 3383   9.545   0.703   9.708 -0.2667 -0.1819  0.0478
  212loPI   C2A 3384   9.463   0.805   9.248  0.2645  0.3697  0.0642
  212loPI   C3A 3385   9.466   0.698   8.845  0.0239 -0.0350 -0.0217
  212loPI   C4A 3386   9.195   0.632   8.445 -0.0046 -0.1529  0.3863
  212loPI   C5A 3387   9.090   1.004   8.273  0.0898 -0.0914  0.0650
  212loPI   C6A 3388   9.179   1.366   8.214  0.0777  0.0270 -0.4213
  212loPI   C1B 3389   9.745   0.273   9.790  0.0292  0.2108  0.0521
  212loPI   C2B 3390   9.619   0.277   9.316  0.0163  0.0335  0.2140
  212loPI   C3B 3391   9.610   0.265   9.011 -0.1468  0.2032  0.0646
  212loPI   C4B 3392   9.577   0.257   8.560 -0.1866 -0.3888  0.1184
  213loPI    C1 3393   8.420  12.670  10.862 -0.0021  0.0036  0.2754
  213loPI    C2 3394   8.503  12.280  10.888  0.0254 -0.0015  0.1176
  213loPI    C3 3395   8.792  12.550  10.945  0.1231 -0.0160 -0.2772
  213loPI   PO4 3396   8.270  12.785  10.617  0.1637 -0.3117  0.0802
  213loPI   GL1 3397   8.327  13.009  10.234 -0.0690  0.1509  0.1980
  213loPI   GL2 3398   8.669  12.901  10.033  0.2757 -0.3126 -0.1001
  213loPI   C1A 3399   8.101  13.022   9.831 -0.1972  0.1793 -0.0768
  213loPI   C2A 3400   8.122  13.019   9.387  0.0677 -0.2408  0.3235
  213loPI   C3A 3401   8.049  12.977   8.846 -0.2045  0.1818  0.0498
  213loPI   C4A 3402   8.146  12.971   8.451  0.1724  0.3447  0.0990
  213loPI   C5A 3403   8.257  13.191   8.132 -0.1646  0.0082 -0.0603
  213loPI   C6A 3404   8.055  13.299   7.817  0.3429 -0.0796  0.0246
  213loPI   C1B 3405   8.606  12.840   9.676 -0.1926 -0.3811 -0.0255
  213loPI   C2B 3406   8.522  12.725   9.264 -0.0860  0.1283 -0.0948
  213loPI   C3B 3407   8.500  12.690   8.779 -0.0558 -0.2200  0.2026
  213loPI   C4B 3408   8.612  12.846   8.313  0.0900 -0.1773  0.0254
  214loPI    C1 3409  10.131   2.414  10.796  0.0647  0.2519 -0.3583
  214loPI    C2 3410  10.509   2.410  10.926  0.0308 -0.0470 -0.2608
  214loPI    C3 3411  10.216   2.540  11.166  0.0387 -0.0659 -0.2408
  214loPI   PO4 3412  10.107   2.510  10.602 -0.2312 -0.0312  0.5033
  214loPI   GL1 3413  10.237   2.582  10.105  0.0369  0.1769 -0.0228
  214loPI   GL2 3414   9.916   2.536  10.106  0.1719 -0.0108  0.0107
  214loPI   C1A 3415  10.269   2.857   9.744 -0.2830  0.1118  0.0165
  214loPI   C2A 3416  10.372   2.755   9.323 -0.0140  0.1126 -0.3020
  214loPI   C3A 3417  10.429   2.660   8.895  0.5036  0.1119  0.1497
  214loPI   C4A 3418  10.582   2.811   8.587 -0.2510  0.3142  0.0010
  214loPI   C5A 3419  10.419   2.710   8.240  0.4269  0.2561 -0.0056
  214loPI   C6A 3420  10.064   2.643   8.011  0.1143  0.1483 -0.2753
  214loPI   C1B 3421   9.983   2.467   9.642  0.1163  0.0613  0.0139
  214loPI   C2B 3422   9.977   2.458   9.185 -0.0124 -0.1866 -0.1822
  214loPI   C3B 3423   9.996   2.440   8.792  0.2064 -0.0408  0.0611
  214loPI   C4B 3424  10.062   2.445   8.448 -0.3805  0.1056  0.2103
  215loPI    C1 3425  14.385  13.357   9.838  0.0312  0.1549 -0.1126
  215loPI    C2 3426  14.117  13.450  10.120 -0.1040 -0.3291 -0.0726
  215loPI    C3 3427  14.506  13.432  10.211 -0.1133 -0.1663  0.0023
  215loPI   PO4 3428  14.444  13.497   9.641 -0.4439  0.1848 -0.0203
  215loPI   GL1 3429  14.230  13.436   9.341 -0.2308  0.2538  0.2374
  215loPI   GL2 3430  14.089  13.082   9.182  0.1744 -0.1965  0.0972
  215loPI   C1A 3431  13.955  13.481   8.890  0.3285 -0.0464 -0.1606
  215loPI   C2A 3432  13.931  13.451   8.466 -0.0655 -0.2218  0.2113
  215loPI   C3A 3433  13.969  13.161   8.090 -0.5501 -0.0961  0.2799
  215loPI   C4A 3434  13.875  13.205   7.693  0.2558  0.0917 -0.0038
  215loPI   C5A 3435  13.965  13.286   7.246  0.0634 -0.1971 -0.0879
  215loPI   C6A 3436  13.757  13.242   6.887 -0.0821  0.0282  0.2488
  215loPI   C1B 3437  14.134  13.063   8.763  0.0123 -0.1885  0.1457
  215loPI   C2B 3438  14.249  12.902   8.402  0.0107 -0.1906 -0.1290
  215loPI   C3B 3439  14.437  12.979   8.036  0.2934  0.0978 -0.0396
  215loPI   C4B 3440  14.256  12.856   7.643  0.0734 -0.0720 -0.1864
  216loPI    C1 3441   3.376  17.432  11.140  0.1161 -0.1123  0.0517
  216loPI    C2 3442   3.511  17.711  11.393  0.1816 -0.1123  0.0171
  216loPI    C3 3443   3.532  17.323  11.492  0.0777 -0.1045  0.0713
  216loPI   PO4 3444   3.467  17.406  10.878 -0.0094  0.1159 -0.2531
  216loPI   GL1 3445   3.530  17.275  10.438  0.2184  0.0871 -0.1370
  216loPI   GL2 3446   3.300  17.088  10.315  0.2024  0.0977 -0.2826
  216loPI   C1A 3447   3.696  17.532  10.148  0.0315 -0.2248  0.0403
  216loPI   C2A 3448   3.722  17.657   9.762 -0.1024  0.2872 -0.1612
  216loPI   C3A 3449   3.677  17.705   9.333  0.0455 -0.0463 -0.0676
  216loPI   C4A 3450   3.774  17.653   8.937  0.0068 -0.0408 -0.1804
  216loPI   C5A 3451   3.940  17.488   8.565  0.0544  0.1502  0.0913
  216loPI   C6A 3452   3.973  17.333   8.135 -0.1816 -0.0227  0.1443
  216loPI   C1B 3453   3.288  17.346   9.967 -0.0740 -0.2172 -0.0579
  216loPI   C2B 3454   3.301  17.257   9.482 -0.2541 -0.0416 -0.1004
  216loPI   C3B 3455   3.334  17.371   9.051  0.0515 -0.4282  0.3686
  216loPI   C4B 3456   3.405  17.409   8.664 -0.1018  0.0734 -0.1930
  217loPI    C1 3457   0.540   6.366  10.944  0.0123 -0.0114 -0.1745
  217loPI    C2 3458   0.700   6.005  11.007 -0.0452 -0.0254 -0.1065
  217loPI    C3 3459   0.696   6.276  11.301 -0.0528  0.0114 -0.1403
  217loPI   PO4 3460   0.456   6.282  10.619  0.0553  0.0608 -0.0236
  217loPI   GL1 3461   0.468   6.043  10.247 -0.2330 -0.2036 -0.0426
  217loPI   GL2 3462   0.436   5.819  10.125 -0.1082  0.1319 -0.1760
  217loPI   C1A 3463   0.706   6.210   9.972 -0.0287  0.3137  0.0060
  217loPI   C2A 3464   0.751   6.135   9.556 -0.3184 -0.0101 -0.1028
  217loPI   C3A 3465   0.834   6.145   9.036  0.0194  0.3200  0.1169
  217loPI   C4A 3466   0.786   6.137   8.576 -0.1047 -0.0049  0.1278
  217loPI   C5A 3467   1.192   6.137   8.188 -0.0921 -0.3348 -0.0247
  217loPI   C6A 3468   1.480   5.985   7.903 -0.2571  0.1202 -0.1947
  217loPI   C1B 3469   0.373   5.884   9.727 -0.0282 -0.2784  0.0679
  217loPI   C2B 3470   0.343   5.865   9.332 -0.1106 -0.0531  0.1590
  217loPI   C3B 3471   0.395   5.836   8.899  0.1879 -0.0001  0.0298
  217loPI   C4B 3472   0.331   5.830   8.561 -0.3686 -0.0351  0.0031
  218loPI    C1 3473   9.446   3.337  10.819 -0.2544  0.1263  0.1588
  218loPI    C2 3474   9.669   3.667  10.784 -0.1744  0.0477 -0.0954
  218loPI    C3 3475   9.800   3.359  11.003 -0.2531  0.1855  0.1496
  218loPI   PO4 3476   9.334   3.163  10.507  0.0685 -0.3498  0.1993
  218loPI   GL1 3477   9.082   3.443  10.185 -0.0656 -0.3237  0.0365
  218loPI   GL2 3478   9.275   3.661  10.396 -0.2411 -0.1632 -0.1374
  218loPI   C1A 3479   9.044   3.465   9.715 -0.0859  0.0764  0.1524
  218loPI   C2A 3480   8.950   3.490   9.227 -0.0442  0.3041  0.2080
  218loPI   C3A 3481   9.049   3.367   8.863  0.0095  0.2875  0.0319
  218loPI   C4A 3482   9.146   3.413   8.400  0.0912 -0.0500 -0.0028
  218loPI   C5A 3483   8.944   3.758   8.206  0.1987  0.2117 -0.0850
  218loPI   C6A 3484   8.862   4.084   7.794 -0.1386 -0.1965  0.6364
  218loPI   C1B 3485   9.464   3.750   9.966  0.1580  0.1212  0.6010
  218loPI   C2B 3486   9.380   3.831   9.565  0.1284  0.2929 -0.2430
  218loPI   C3B 3487   9.423   3.686   9.174 -0.4014  0.0910  0.0661
  218loPI   C4B 3488   9.467   3.642   8.667  0.1412  0.0714  0.1167
  219loPI    C1 3489   2.273   1.605  10.923 -0.0688  0.2760 -0.1487
  219loPI    C2 3490   2.055   1.869  11.129 -0.0680  0.1353  0.0349
  219loPI    C3 3491   2.303   1.621  11.322 -0.0157  0.0485 -0.1424
  219loPI   PO4 3492   2.088   1.708  10.638  0.1971  0.0354 -0.2148
  219loPI   GL1 3493   2.212   1.596  10.230  0.0506 -0.2823 -0.0697
  219loPI   GL2 3494   2.333   1.364  10.220 -0.1607  0.2536 -0.0355
  219loPI   C1A 3495   2.435   1.694   9.827 -0.1034  0.0449  0.1203
  219loPI   C2A 3496   2.416   1.734   9.453 -0.0936  0.0924 -0.0436
  219loPI   C3A 3497   2.431   1.753   8.978 -0.0773 -0.2496  0.0778
  219loPI   C4A 3498   2.457   1.703   8.518 -0.0109  0.1773  0.3708
  219loPI   C5A 3499   2.272   1.547   8.154  0.0874  0.0379 -0.0019
  219loPI   C6A 3500   1.996   1.765   8.151  0.3869 -0.2194  0.2570
  219loPI   C1B 3501   2.413   1.196   9.859  0.0598  0.0488  0.1421
  219loPI   C2B 3502   2.549   1.076   9.407  0.0411 -0.0638  0.0463
  219loPI   C3B 3503   2.647   1.169   9.089 -0.2351  0.3202  0.2382
  219loPI   C4B 3504   2.459   1.283   8.752  0.2982  0.0897  0.1935
  220loPI    C1 3505   8.661  17.957  11.108  0.0092 -0.0483 -0.2156
  220loPI    C2 3506   8.560  18.322  10.979 -0.2795 -0.0380  0.0277
  220loPI    C3 3507   8.784  18.281  11.308  0.0225 -0.0764 -0.1781
  220loPI   PO4 3508   8.403  17.857  10.986  0.2517  0.3667  0.1699
  220loPI   GL1 3509   8.350  17.691  10.549 -0.0029 -0.0837 -0.1050
  220loPI   GL2 3510   8.160  17.437  10.453  0.3806  0.1633  0.3887
  220loPI   C1A 3511   8.337  17.682  10.045 -0.2220  0.0385  0.0785
  220loPI   C2A 3512   8.417  17.735   9.649  0.0849 -0.0951  0.0178
  220loPI   C3A 3513   8.408  17.781   9.241 -0.0513 -0.0187  0.0083
  220loPI   C4A 3514   8.391  17.830   8.821 -0.0607 -0.2234 -0.0316
  220loPI   C5A 3515   8.354  17.759   8.452 -0.3926  0.0154  0.4195
  220loPI   C6A 3516   8.440  17.766   7.993  0.1384  0.2839  0.0011
  220loPI   C1B 3517   7.860  17.461  10.061  0.0509 -0.0163 -0.2791
  220loPI   C2B 3518   7.939  17.379   9.605  0.0903 -0.0767  0.2931
  220loPI   C3B 3519   7.925  17.456   9.135  0.1846 -0.0539 -0.2103
  220loPI   C4B 3520   7.905  17.513   8.729 -0.2738  0.1331 -0.0204
  221loPI    C1 3521  16.066  11.041  10.256  0.1745 -0.0588  0.2693
  221loPI    C2 3522  15.779  10.807  10.105  0.1226  0.1642  0.0139
  221loPI    C3 3523  15.730  10.978  10.463  0.0865 -0.0722  0.1240
  221loPI   PO4 3524  16.302  11.055  10.011 -0.0838 -0.2859 -0.0446
  221loPI   GL1 3525  16.342  11.204   9.599 -0.0136  0.0051 -0.1232
  221loPI   GL2 3526  16.393  11.425   9.498  0.0550  0.3016  0.0321
  221loPI   C1A 3527  16.078  10.922   9.319 -0.0627 -0.1404  0.0668
  221loPI   C2A 3528  16.284  10.457   9.218  0.2208 -0.1599 -0.0562
  221loPI   C3A 3529  16.403  10.223   8.927 -0.2246  0.1910  0.1467
  221loPI   C4A 3530  16.443  10.207   8.400  0.3378  0.0557  0.0666
  221loPI   C5A 3531  16.385  10.400   8.047  0.0366 -0.0131 -0.1667
  221loPI   C6A 3532  16.045  10.367   7.840 -0.2746  0.1502 -0.3554
  221loPI   C1B 3533  16.242  11.335   9.108 -0.5332 -0.1380  0.2207
  221loPI   C2B 3534  15.955  11.175   8.789  0.2617 -0.3664  0.0086
  221loPI   C3B 3535  15.722  10.951   8.520 -0.1409  0.0279 -0.3904
  221loPI   C4B 3536  15.646  10.928   8.082  0.0204 -0.1690 -0.0031
  222loPI    C1 3537  13.631   6.923  10.787 -0.3534  0.3240  0.0145
  222loPI    C2 3538  13.481   6.609  10.985 -0.0271  0.1054 -0.0754
  222loPI    C3 3539  13.651   6.910  11.186 -0.0515  0.0724 -0.0050
  222loPI   PO4 3540  13.703   6.758  10.510 -0.0388  0.2843 -0.1249
  222loPI   GL1 3541  13.872   6.624  10.159 -0.2580  0.1620  0.0326
  222loPI   GL2 3542  13.939   6.916  10.040 -0.1109  0.0243 -0.1093
  222loPI   C1A 3543  13.743   6.459   9.842  0.0835  0.2070  0.1353
  222loPI   C2A 3544  13.669   6.399   9.384  0.3430 -0.1499  0.2972
  222loPI   C3A 3545  13.697   6.425   8.922 -0.1450  0.1126 -0.2179
  222loPI   C4A 3546  13.561   6.350   8.495 -0.0450  0.0275  0.2062
  222loPI   C5A 3547  13.569   6.188   8.180 -0.3241 -0.0983  0.1162
  222loPI   C6A 3548  13.324   5.939   7.845 -0.3303 -0.4389 -0.2304
  222loPI   C1B 3549  13.622   7.013   9.660 -0.0348 -0.0885 -0.1623
  222loPI   C2B 3550  13.597   6.995   9.273  0.3856 -0.0756 -0.0676
  222loPI   C3B 3551  13.519   6.881   8.842 -0.0943  0.1690 -0.0357
  222loPI   C4B 3552  13.641   6.840   8.424  0.3689 -0.3137 -0.2407
  223loPI    C1 3553   8.696  14.357  10.817 -0.2593 -0.1216 -0.0389
  223loPI    C2 3554   8.332  14.346  10.982 -0.2254 -0.1619  0.0338
  223loPI    C3 3555   8.657  14.321  11.214 -0.1718  0.1326 -0.0051
  223loPI   PO4 3556   8.627  14.621  10.634 -0.2463 -0.2552  0.0571
  223loPI   GL1 3557   8.604  14.926  10.289  0.3959 -0.0933  0.0370
  223loPI   GL2 3558   8.331  14.728  10.167 -0.2242  0.0743 -0.3223
  223loPI   C1A 3559   8.742  15.107   9.905  0.1182  0.2506 -0.1648
  223loPI   C2A 3560   8.737  15.111   9.509 -0.1302 -0.0509  0.3577
  223loPI   C3A 3561   8.693  15.148   9.057  0.1626 -0.0107 -0.2273
  223loPI   C4A 3562   8.662  15.168   8.683 -0.0512 -0.2297  0.1438
  223loPI   C5A 3563   8.643  15.143   8.307 -0.1383  0.0134 -0.3024
  223loPI   C6A 3564   8.699  15.290   7.897  0.4056  0.0230 -0.2952
  223loPI   C1B 3565   8.343  14.824   9.796 -0.1445 -0.0269  0.3788
  223loPI   C2B 3566   8.274  14.829   9.312  0.1933  0.3194  0.2976
  223loPI   C3B 3567   8.262  14.894   8.907 -0.0884 -0.2834 -0.1185
  223loPI   C4B 3568   8.252  14.895   8.470 -0.1769  0.3436 -0.3756
  224loPI    C1 3569   6.982   8.043  10.926  0.1230 -0.0808 -0.2138
  224loPI    C2 3570   6.857   8.358  11.139  0.0277 -0.1513 -0.1645
  224loPI    C3 3571   7.232   8.223  11.181 -0.0509 -0.2898  0.1107
  224loPI   PO4 3572   6.918   8.123  10.638 -0.0450 -0.0896  0.3848
  224loPI   GL1 3573   6.757   8.434  10.368 -0.1527 -0.0688  0.1203
  224loPI   GL2 3574   6.840   8.660  10.316  0.0837  0.0139 -0.2915
  224loPI   C1A 3575   6.507   8.191  10.103 -0.0976  0.1555  0.0063
  224loPI   C2A 3576   6.449   8.301   9.719  0.3838  0.0917 -0.0104
  224loPI   C3A 3577   6.436   8.316   9.366 -0.0620 -0.1009  0.1563
  224loPI   C4A 3578   6.451   8.283   8.906 -0.0646 -0.0869  0.0027
  224loPI   C5A 3579   6.426   8.259   8.502  0.2161  0.4477  0.0205
  224loPI   C6A 3580   6.155   8.185   8.203  0.0187  0.0583 -0.1211
  224loPI   C1B 3581   6.861   8.559   9.864 -0.0767 -0.0227  0.3214
  224loPI   C2B 3582   6.806   8.683   9.442 -0.0953  0.1131 -0.2225
  224loPI   C3B 3583   6.832   8.598   9.014  0.2564  0.0811  0.0874
  224loPI   C4B 3584   6.816   8.596   8.555  0.0013 -0.0189  0.3582
  225loPI    C1 3585   7.245   9.882  10.959  0.1241 -0.0142 -0.0610
  225loPI    C2 3586   7.580  10.004  10.777 -0.0053  0.3690 -0.0522
  225loPI    C3 3587   7.454  10.189  11.109 -0.0047 -0.0446  0.1864
  225loPI   PO4 3588   7.081   9.832  10.701  0.0863  0.1134  0.0135
  225loPI   GL1 3589   7.117  10.022  10.372 -0.0025  0.3977 -0.2143
  225loPI   GL2 3590   6.793  10.041  10.336 -0.2647 -0.0601  0.0628
  225loPI   C1A 3591   7.031   9.956   9.907  0.5240 -0.1514 -0.0296
  225loPI   C2A 3592   7.034   9.949   9.468  0.2371  0.0878  0.1149
  225loPI   C3A 3593   7.052  10.038   9.153 -0.0158  0.1061  0.0053
  225loPI   C4A 3594   7.102   9.928   8.794 -0.0111  0.0573  0.0576
  225loPI   C5A 3595   6.950  10.069   8.387 -0.0577  0.2958  0.3544
  225loPI   C6A 3596   6.887  10.299   7.947 -0.2029 -0.0082  0.2173
  225loPI   C1B 3597   6.465  10.153  10.047 -0.2602 -0.1383  0.1076
  225loPI   C2B 3598   6.532  10.064   9.667 -0.2259  0.0647  0.3810
  225loPI   C3B 3599   6.499  10.142   9.232  0.3386  0.1339  0.0326
  225loPI   C4B 3600   6.586  10.192   8.852  0.0057  0.0829  0.0242
  226loPI    C1 3601   5.905  11.704  10.939 -0.0811 -0.2162  0.2030
  226loPI    C2 3602   5.866  12.001  11.204 -0.3364 -0.1142  0.0542
  226loPI    C3 3603   6.092  11.683  11.292 -0.0488  0.1287  0.2095
  226loPI   PO4 3604   5.774  11.686  10.769  0.0372 -0.1503 -0.0658
  226loPI   GL1 3605   5.630  11.835  10.438 -0.1371 -0.2137  0.2143
  226loPI   GL2 3606   5.659  12.144  10.259 -0.0721 -0.2429  0.3236
  226loPI   C1A 3607   5.887  11.794  10.002  0.1753  0.2149  0.0566
  226loPI   C2A 3608   5.886  11.856   9.683 -0.0582 -0.0061 -0.0007
  226loPI   C3A 3609   5.902  11.889   9.236 -0.1170 -0.1637 -0.0880
  226loPI   C4A 3610   5.848  11.925   8.741 -0.2125  0.2657 -0.0441
  226loPI   C5A 3611   5.936  12.022   8.385 -0.0855 -0.0321  0.1520
  226loPI   C6A 3612   6.131  11.914   8.049 -0.1674  0.3886  0.0835
  226loPI   C1B 3613   5.818  12.355   9.857  0.0045 -0.0370 -0.3021
  226loPI   C2B 3614   5.894  12.410   9.361 -0.4494 -0.0525  0.3678
  226loPI   C3B 3615   5.903  12.465   9.009 -0.1607  0.4425 -0.0827
  226loPI   C4B 3616   5.889  12.435   8.585 -0.1346 -0.0712 -0.3593
  227loPI    C1 3617   1.010  15.088  10.318 -0.2731  0.1289 -0.1649
  227loPI    C2 3618   0.955  14.863  10.645  0.0297 -0.1573 -0.3051
  227loPI    C3 3619   0.919  15.261  10.667 -0.3175 -0.2004 -0.0095
  227loPI   PO4 3620   1.101  14.981  10.077  0.2187 -0.0630  0.3094
  227loPI   GL1 3621   1.027  15.267   9.793 -0.1055  0.0037 -0.0017
  227loPI   GL2 3622   1.214  15.454   9.929 -0.0191 -0.1376  0.0276
  227loPI   C1A 3623   1.250  15.193   9.393  0.1383  0.2150 -0.4304
  227loPI   C2A 3624   1.472  15.188   9.040 -0.2969  0.2380  0.1306
  227loPI   C3A 3625   1.822  15.356   8.911  0.0942  0.1007  0.1509
  227loPI   C4A 3626   2.203  15.495   8.615  0.1529  0.3770 -0.1148
  227loPI   C5A 3627   2.340  15.644   8.237 -0.3067  0.2652  0.0644
  227loPI   C6A 3628   2.832  15.886   8.102 -0.3201 -0.0223 -0.1997
  227loPI   C1B 3629   1.604  15.442   9.794 -0.2807  0.1488  0.0654
  227loPI   C2B 3630   1.722  15.438   9.385  0.0971 -0.2890  0.0559
  227loPI   C3B 3631   2.097  15.637   9.157  0.0408  0.2281 -0.1660
  227loPI   C4B 3632   2.129  15.818   8.935 -0.3330 -0.4807  0.1993
  228loPI    C1 3633  14.807   0.655  10.041 -0.0644  0.1106 -0.1946
  228loPI    C2 3634  14.566   0.699  10.356 -0.0223 -0.1853 -0.1188
  228loPI    C3 3635  14.961   0.737  10.400 -0.0060 -0.3567 -0.1064
  228loPI   PO4 3636  14.567   0.681   9.806  0.0299  0.4080 -0.0153
  228loPI   GL1 3637  14.542   0.856   9.397  0.0713  0.3140  0.1443
  228loPI   GL2 3638  14.562   1.198   9.274  0.0739  0.1577 -0.1181
  228loPI   C1A 3639  14.578   0.660   9.013 -0.1038  0.2057  0.0407
  228loPI   C2A 3640  14.605   0.677   8.543 -0.1478  0.1269 -0.1181
  228loPI   C3A 3641  14.700   0.733   8.133  0.0286 -0.3875 -0.1780
  228loPI   C4A 3642  14.521   0.614   7.637  0.0214 -0.1063  0.3430
  228loPI   C5A 3643  14.705   0.522   7.333  0.0496 -0.0819  0.0247
  228loPI   C6A 3644  14.740   0.671   6.918 -0.1872  0.0114 -0.2173
  228loPI   C1B 3645  14.488   1.176   8.900  0.0529 -0.3134  0.2645
  228loPI   C2B 3646  14.487   1.203   8.483 -0.0341 -0.1971 -0.2150
  228loPI   C3B 3647  14.616   1.244   8.059 -0.0999  0.0901  0.2256
  228loPI   C4B 3648  14.417   1.529   7.729  0.1086  0.2830  0.0688
  229loPI    C1 3649   0.223  16.169  10.159 -0.0703 -0.1616 -0.1599
  229loPI    C2 3650   0.272  16.055  10.540 -0.0658  0.1570 -0.0622
  229loPI    C3 3651   0.567  16.001  10.276  0.0429  0.2036  0.0488
  229loPI   PO4 3652   0.221  16.422   9.930 -0.2215 -0.4188  0.0748
  229loPI   GL1 3653   0.404  16.342   9.587 -0.2515 -0.0642 -0.0116
  229loPI   GL2 3654   0.434  16.042   9.642  0.1034  0.0525  0.0822
  229loPI   C1A 3655   0.468  16.399   9.108  0.3518  0.0720  0.2675
  229loPI   C2A 3656   0.545  16.391   8.640  0.2456  0.1474 -0.3664
  229loPI   C3A 3657   0.474  16.733   8.294 -0.0293  0.4749  0.1809
  229loPI   C4A 3658   0.103  16.852   7.944 -0.2254 -0.0601 -0.0852
  229loPI   C5A 3659   0.050  16.815   7.478  0.4782 -0.0054 -0.2052
  229loPI   C6A 3660   0.003  16.981   7.007 -0.1972  0.4176  0.0738
  229loPI   C1B 3661   0.590  15.929   9.365 -0.0422 -0.1114 -0.0400
  229loPI   C2B 3662   0.438  15.885   8.979 -0.1877 -0.1057 -0.0710
  229loPI   C3B 3663   0.574  15.714   8.674  0.1508 -0.4307 -0.0663
  229loPI   C4B 3664   0.587  15.653   8.265  0.1386  0.3736 -0.1344
  230loPI    C1 3665  10.187   1.868  10.439  0.2799  0.0942  0.1481
  230loPI    C2 3666  10.342   1.891  10.807  0.0016 -0.0224  0.2747
  230loPI    C3 3667  10.107   1.583  10.708  0.1827 -0.0617 -0.0440
  230loPI   PO4 3668  10.288   2.060  10.341  0.0267  0.0450  0.0419
  230loPI   GL1 3669  10.507   2.124  10.037  0.0095  0.0201  0.0982
  230loPI   GL2 3670  10.769   2.127  10.120  0.1369 -0.0969  0.0668
  230loPI   C1A 3671  10.402   2.257   9.610 -0.0362  0.0090  0.0291
  230loPI   C2A 3672  10.460   2.277   9.176  0.0014  0.0778  0.5149
  230loPI   C3A 3673  10.594   2.282   8.685 -0.2106 -0.1774 -0.0866
  230loPI   C4A 3674  10.497   2.244   8.198  0.1111  0.2324  0.1528
  230loPI   C5A 3675  10.444   2.349   7.807  0.1529 -0.4005 -0.1334
  230loPI   C6A 3676  10.335   2.542   7.430  0.1637  0.0179 -0.2275
  230loPI   C1B 3677  10.866   2.086   9.671 -0.0661  0.1969  0.0031
  230loPI   C2B 3678  11.086   2.094   9.282  0.1224  0.0277 -0.3324
  230loPI   C3B 3679  11.145   2.028   8.866 -0.0906 -0.0650 -0.0791
  230loPI   C4B 3680  11.024   2.120   8.422 -0.1365  0.3589 -0.1465
  231loPI    C1 3681   1.132   3.973  10.958 -0.0351 -0.3273  0.0154
  231loPI    C2 3682   0.893   3.805  11.232 -0.1551 -0.1981 -0.0084
  231loPI    C3 3683   0.809   4.169  11.090  0.0420 -0.1626 -0.0378
  231loPI   PO4 3684   1.134   3.842  10.785 -0.0186  0.2981 -0.1337
  231loPI   GL1 3685   0.996   3.749  10.327 -0.1564  0.2778 -0.1587
  231loPI   GL2 3686   0.818   3.516  10.061 -0.0441 -0.1719 -0.1925
  231loPI   C1A 3687   1.090   3.915   9.921 -0.0601 -0.2847 -0.0733
  231loPI   C2A 3688   1.116   4.242   9.765  0.0873 -0.1025  0.1727
  231loPI   C3A 3689   1.081   4.232   9.327 -0.1256 -0.0173 -0.1349
  231loPI   C4A 3690   1.074   4.182   8.886  0.1476 -0.2243 -0.2455
  231loPI   C5A 3691   1.146   4.132   8.412  0.1649 -0.1889  0.0685
  231loPI   C6A 3692   1.179   4.064   7.969  0.3215 -0.1603 -0.0208
  231loPI   C1B 3693   0.757   3.212   9.751 -0.1910  0.2506 -0.0270
  231loPI   C2B 3694   0.860   3.169   9.338 -0.3511 -0.1078 -0.0199
  231loPI   C3B 3695   0.859   3.271   8.901 -0.0597 -0.0759 -0.2478
  231loPI   C4B 3696   0.889   3.382   8.495 -0.1442  0.2672  0.0068
  232loPI    C1 3697   5.847  16.615  10.804 -0.1316 -0.1028 -0.1000
  232loPI    C2 3698   6.101  16.398  11.025  0.0529  0.0714 -0.1385
  232loPI    C3 3699   5.947  16.737  11.172 -0.1709 -0.0409 -0.1098
  232loPI   PO4 3700   5.549  16.414  10.762  0.1621 -0.4847 -0.1180
  232loPI   GL1 3701   5.410  16.418  10.425  0.0291  0.3680  0.5083
  232loPI   GL2 3702   5.145  16.441  10.252  0.0643 -0.2525  0.0414
  232loPI   C1A 3703   5.599  16.752  10.168  0.2091 -0.1875  0.2775
  232loPI   C2A 3704   5.567  16.799   9.780 -0.1914 -0.1555  0.2252
  232loPI   C3A 3705   5.680  16.900   9.388  0.0502  0.2992  0.0834
  232loPI   C4A 3706   5.689  16.930   8.946  0.3327 -0.2276 -0.0267
  232loPI   C5A 3707   5.539  17.113   8.490  0.2196  0.0206  0.2189
  232loPI   C6A 3708   5.167  17.345   8.424 -0.0460 -0.0902 -0.0193
  232loPI   C1B 3709   5.186  16.495   9.879 -0.0447  0.1510  0.1191
  232loPI   C2B 3710   5.226  16.527   9.510  0.1048  0.0416  0.0161
  232loPI   C3B 3711   5.319  16.583   9.087  0.1190  0.5290 -0.0278
  232loPI   C4B 3712   5.300  16.690   8.625 -0.3493  0.1597 -0.2211
  233loPI    C1 3713   3.356   5.012  11.131 -0.4414 -0.0794  0.1443
  233loPI    C2 3714   3.579   4.884  11.437 -0.2339 -0.0821 -0.0064
  233loPI    C3 3715   3.238   4.697  11.347 -0.0815 -0.3487 -0.0415
  233loPI   PO4 3716   3.602   5.147  10.946  0.1156  0.2703  0.1275
  233loPI   GL1 3717   3.616   5.468  10.518 -0.2625  0.3097  0.0468
  233loPI   GL2 3718   3.558   5.670  10.321 -0.0215 -0.1953 -0.1380
  233loPI   C1A 3719   3.944   5.353  10.334  0.0092 -0.1388  0.0361
  233loPI   C2A 3720   4.089   5.328   9.962 -0.1201  0.2301 -0.1533
  233loPI   C3A 3721   4.149   5.277   9.495  0.2292 -0.1583 -0.1133
  233loPI   C4A 3722   4.137   5.246   9.093  0.2905 -0.0472 -0.0351
  233loPI   C5A 3723   4.391   5.194   8.785  0.1110 -0.0888 -0.1579
  233loPI   C6A 3724   4.770   5.038   8.711 -0.0897 -0.2625 -0.1726
  233loPI   C1B 3725   3.626   5.471   9.871  0.1931  0.2675  0.0991
  233loPI   C2B 3726   3.632   5.559   9.555  0.1161 -0.1615  0.2069
  233loPI   C3B 3727   3.751   5.548   9.068 -0.0624  0.2084  0.0707
  233loPI   C4B 3728   3.900   5.441   8.628  0.0708 -0.1010 -0.0031
  234loPI    C1 3729  11.182  11.618  10.430  0.1968  0.0082 -0.0763
  234loPI    C2 3730  11.442  11.836  10.642  0.1879 -0.0164 -0.0398
  234loPI    C3 3731  11.186  11.593  10.829  0.2196 -0.0828 -0.0819
  234loPI   PO4 3732  11.139  11.775  10.221  0.2376  0.0050  0.1718
  234loPI   GL1 3733  11.137  11.810   9.838 -0.1694 -0.1825 -0.4462
  234loPI   GL2 3734  10.927  12.012   9.689  0.3081 -0.2351 -0.0941
  234loPI   C1A 3735  11.220  11.550   9.462  0.0642  0.1602 -0.0094
  234loPI   C2A 3736  11.173  11.585   9.066  0.3147  0.1117  0.0561
  234loPI   C3A 3737  11.125  11.510   8.617 -0.3026  0.3741  0.0733
  234loPI   C4A 3738  11.139  11.314   8.236  0.0770  0.2116  0.0772
  234loPI   C5A 3739  11.381  11.105   7.891  0.0155  0.0218  0.1644
  234loPI   C6A 3740  11.731  11.116   7.870 -0.2746 -0.1666  0.1662
  234loPI   C1B 3741  10.975  11.998   9.198  0.0794 -0.0834 -0.4098
  234loPI   C2B 3742  11.121  12.018   8.775  0.0888 -0.1326 -0.0832
  234loPI   C3B 3743  11.158  12.059   8.350 -0.2492 -0.2610 -0.0817
  234loPI   C4B 3744  11.254  11.898   8.008 -0.0033  0.1883  0.1621
  235loPI    C1 3745   8.540  10.406  10.470 -0.3629  0.0705 -0.0781
  235loPI    C2 3746   8.397  10.602  10.152 -0.0214  0.1642 -0.1774
  235loPI    C3 3747   8.785  10.627  10.245 -0.0920  0.0269  0.1691
  235loPI   PO4 3748   8.455  10.119  10.422 -0.0120 -0.3071  0.0022
  235loPI   GL1 3749   8.499   9.910  10.113  0.1344  0.0264 -0.3799
  235loPI   GL2 3750   8.671  10.226  10.009 -0.1900  0.1178  0.1635
  235loPI   C1A 3751   8.359   9.839   9.758 -0.0235  0.0225  0.0993
  235loPI   C2A 3752   8.445   9.960   9.348  0.1317  0.0998  0.3285
  235loPI   C3A 3753   8.482   9.883   8.913  0.1505  0.1008 -0.0810
  235loPI   C4A 3754   8.533   9.792   8.446 -0.2366 -0.1400  0.1616
  235loPI   C5A 3755   8.251   9.842   8.046  0.0788 -0.0668 -0.2361
  235loPI   C6A 3756   8.195  10.233   7.735  0.0273 -0.2157  0.1853
  235loPI   C1B 3757   8.398  10.355   9.746  0.4004 -0.4137  0.0137
  235loPI   C2B 3758   8.397  10.465   9.310 -0.0186 -0.2774 -0.0069
  235loPI   C3B 3759   8.427  10.472   8.845  0.0056  0.2647 -0.0897
  235loPI   C4B 3760   8.533  10.413   8.381 -0.0619 -0.4826 -0.0036
  236loPI    C1 3761  11.121   8.528  10.549 -0.1447  0.2711 -0.1692
  236loPI    C2 3762  10.755   8.416  10.432 -0.1359 -0.0397  0.0882
  236loPI    C3 3763  10.834   8.466  10.821  0.0905  0.0448  0.0329
  236loPI   PO4 3764  11.315   8.373  10.453 -0.1592  0.1784  0.0263
  236loPI   GL1 3765  11.143   8.130  10.289 -0.0105  0.0126  0.4595
  236loPI   GL2 3766  10.873   7.999  10.130  0.2531  0.0861  0.4285
  236loPI   C1A 3767  11.216   8.085   9.785  0.0213  0.0006 -0.1803
  236loPI   C2A 3768  11.080   7.915   9.466 -0.0796  0.2285 -0.2000
  236loPI   C3A 3769  11.043   7.885   9.008  0.1705 -0.2805 -0.0242
  236loPI   C4A 3770  11.159   7.902   8.681 -0.0783 -0.1054  0.1383
  236loPI   C5A 3771  11.166   7.994   8.208 -0.0713 -0.3929  0.0997
  236loPI   C6A 3772  11.303   8.246   7.876  0.2368 -0.2212  0.3567
  236loPI   C1B 3773  10.707   8.115   9.686 -0.0310 -0.2266  0.2263
  236loPI   C2B 3774  10.630   8.110   9.195 -0.0543  0.1741 -0.0547
  236loPI   C3B 3775  10.630   8.035   8.752 -0.1624 -0.0810 -0.1180
  236loPI   C4B 3776  10.747   8.095   8.455 -0.2064  0.1627  0.2824
  237loPI    C1 3777   0.785  13.113  10.287  0.0382  0.2074 -0.1794
  237loPI    C2 3778   1.117  13.213  10.487 -0.0688 -0.0899  0.1579
  237loPI    C3 3779   0.763  13.214  10.673 -0.1745 -0.3550 -0.0346
  237loPI   PO4 3780   0.845  12.869  10.147  0.1025 -0.0685 -0.1342
  237loPI   GL1 3781   0.854  12.815   9.762 -0.2459  0.0777  0.1371
  237loPI   GL2 3782   0.722  13.131   9.774 -0.2480  0.1841  0.0881
  237loPI   C1A 3783   0.976  12.705   9.372  0.4156  0.0153  0.4606
  237loPI   C2A 3784   0.958  12.647   8.893 -0.1744 -0.2464 -0.0965
  237loPI   C3A 3785   1.030  12.654   8.395  0.1317 -0.0476 -0.1012
  237loPI   C4A 3786   1.152  12.871   8.003 -0.0162 -0.2947 -0.3087
  237loPI   C5A 3787   1.639  13.041   7.864  0.0467 -0.0831  0.4116
  237loPI   C6A 3788   1.931  12.670   7.986 -0.0516  0.2487  0.0433
  237loPI   C1B 3789   0.535  13.069   9.463  0.2703  0.0864  0.0739
  237loPI   C2B 3790   0.556  12.934   8.980  0.0234  0.0472 -0.2182
  237loPI   C3B 3791   0.479  12.941   8.550 -0.0169 -0.1853  0.1021
  237loPI   C4B 3792   0.619  12.742   8.109  0.3416  0.2373  0.1982
  238loPI    C1 3793   4.015   4.004  11.126  0.0102  0.0364  0.0127
  238loPI    C2 3794   4.094   4.136  11.495  0.0690  0.1493 -0.0399
  238loPI    C3 3795   3.826   3.844  11.440  0.0607  0.1317  0.0920
  238loPI   PO4 3796   3.977   4.145  10.976  0.1764 -0.0349 -0.2175
  238loPI   GL1 3797   4.150   4.338  10.583  0.2873 -0.0076  0.0154
  238loPI   GL2 3798   4.374   4.606  10.729 -0.2252  0.1128  0.0812
  238loPI   C1A 3799   4.197   4.299  10.130  0.3446  0.1742  0.3864
  238loPI   C2A 3800   4.250   4.340   9.645  0.1849  0.1885  0.1958
  238loPI   C3A 3801   4.356   4.285   9.182  0.2608 -0.3970 -0.0056
  238loPI   C4A 3802   4.230   4.161   8.827  0.1835 -0.1650 -0.0214
  238loPI   C5A 3803   4.650   4.177   8.531 -0.0768  0.0858 -0.1249
  238loPI   C6A 3804   5.084   4.253   8.316  0.1291 -0.1287 -0.2084
  238loPI   C1B 3805   4.549   4.637  10.341 -0.0787 -0.0348 -0.5021
  238loPI   C2B 3806   4.595   4.599   9.954  0.0597 -0.1639 -0.2830
  238loPI   C3B 3807   4.728   4.610   9.629 -0.4658 -0.0283 -0.2079
  238loPI   C4B 3808   4.741   4.555   9.200 -0.0490 -0.0269  0.1850
  239loPI    C1 3809   9.925  11.559  10.980 -0.0120 -0.1208  0.1852
  239loPI    C2 3810   9.650  11.512  11.268 -0.0143  0.1626  0.2325
  239loPI    C3 3811  10.033  11.577  11.365  0.0665 -0.1939  0.1668
  239loPI   PO4 3812   9.747  11.530  10.773 -0.0436 -0.1959  0.2267
  239loPI   GL1 3813   9.703  11.579  10.283 -0.1550 -0.0647  0.1200
  239loPI   GL2 3814   9.740  11.287  10.314 -0.0808 -0.0167 -0.0882
  239loPI   C1A 3815   9.659  11.433   9.833 -0.1641 -0.3991 -0.2174
  239loPI   C2A 3816   9.640  11.362   9.393  0.0041  0.0097 -0.1187
  239loPI   C3A 3817   9.701  11.420   8.977  0.2112  0.0563  0.1804
  239loPI   C4A 3818   9.578  11.391   8.546 -0.1714 -0.0758  0.1394
  239loPI   C5A 3819   9.577  11.360   8.124 -0.2770  0.2169  0.0797
  239loPI   C6A 3820   9.441  11.434   7.666  0.3670  0.0401  0.1616
  239loPI   C1B 3821   9.795  10.969  10.057  0.2393  0.2234 -0.1332
  239loPI   C2B 3822   9.697  10.866   9.705  0.1472 -0.0871 -0.0943
  239loPI   C3B 3823   9.598  10.860   9.318  0.2285  0.2218 -0.1199
  239loPI   C4B 3824   9.747  10.946   8.963 -0.4426  0.0746  0.1066
  240loPI    C1 3825   1.037   0.665  10.604 -0.1432 -0.1557  0.0485
  240loPI    C2 3826   1.254   0.837  10.893 -0.2732  0.1381 -0.0252
  240loPI    C3 3827   0.924   0.630  10.986 -0.2466  0.1277  0.0462
  240loPI   PO4 3828   1.151   0.583  10.482 -0.1654 -0.0627 -0.0751
  240loPI   GL1 3829   1.200   0.842  10.139  0.2066  0.2618 -0.1403
  240loPI   GL2 3830   1.119   0.581   9.955 -0.4138  0.0541  0.2117
  240loPI   C1A 3831   1.531   0.921   9.918 -0.0931  0.0383  0.0622
  240loPI   C2A 3832   1.639   1.001   9.554 -0.0378 -0.1738 -0.0292
  240loPI   C3A 3833   1.739   1.002   9.129 -0.0866 -0.0417 -0.0305
  240loPI   C4A 3834   1.757   1.022   8.820  0.0285 -0.0034  0.0974
  240loPI   C5A 3835   1.742   1.065   8.432  0.0784 -0.1802  0.1685
  240loPI   C6A 3836   1.748   1.349   8.078  0.0010  0.2704  0.0016
  240loPI   C1B 3837   1.199   0.640   9.542 -0.2041  0.1376 -0.0373
  240loPI   C2B 3838   1.310   0.655   9.135  0.1224 -0.4185 -0.0443
  240loPI   C3B 3839   1.306   0.718   8.791 -0.2258  0.1371 -0.0171
  240loPI   C4B 3840   1.423   0.699   8.404  0.0191 -0.1257 -0.1233
  241loPI    C1 3841  11.030   2.470  10.738  0.1206  0.1117 -0.1378
  241loPI    C2 3842  11.210   2.558  11.084  0.1635  0.1185 -0.1618
  241loPI    C3 3843  10.975   2.236  11.058  0.0455  0.1979 -0.0870
  241loPI   PO4 3844  11.138   2.523  10.474  0.0304 -0.0758  0.4022
  241loPI   GL1 3845  10.980   2.615  10.098  0.1861  0.2012  0.1633
  241loPI   GL2 3846  11.144   2.387   9.961 -0.0284  0.2864  0.1688
  241loPI   C1A 3847  10.707   2.621   9.762  0.2258  0.0434 -0.2512
  241loPI   C2A 3848  10.868   2.489   9.418  0.5235 -0.1763 -0.1310
  241loPI   C3A 3849  10.931   2.483   8.954 -0.0890  0.0350  0.3507
  241loPI   C4A 3850  10.973   2.580   8.518 -0.1485  0.1419 -0.0061
  241loPI   C5A 3851  10.913   2.525   8.034  0.0091  0.2001  0.0502
  241loPI   C6A 3852  10.995   2.182   7.791  0.3604  0.0305 -0.0244
  241loPI   C1B 3853  11.415   2.350   9.544 -0.1094  0.1682  0.1560
  241loPI   C2B 3854  11.484   2.397   9.042  0.3996  0.1200 -0.5379
  241loPI   C3B 3855  11.499   2.398   8.628  0.2167  0.0473  0.0045
  241loPI   C4B 3856  11.376   2.266   8.126 -0.2042 -0.0296 -0.1370
  242loPI    C1 3857   8.996   0.068  10.853 -0.1493  0.0760  0.2881
  242loPI    C2 3858   9.111  -0.309  10.920 -0.1669  0.0567  0.2110
  242loPI    C3 3859   9.335  -0.005  11.052  0.1623  0.0214 -0.2427
  242loPI   PO4 3860   8.921   0.035  10.587  0.0650  0.1401 -0.1083
  242loPI   GL1 3861   8.920   0.292  10.313 -0.1014 -0.0731 -0.3584
  242loPI   GL2 3862   9.173   0.456  10.444  0.0419 -0.0959 -0.2789
  242loPI   C1A 3863   8.735   0.180   9.877 -0.3697  0.2486  0.0469
  242loPI   C2A 3864   8.788   0.164   9.417  0.1762 -0.0145  0.1537
  242loPI   C3A 3865   8.626   0.132   8.977 -0.2658  0.1581  0.1870
  242loPI   C4A 3866   8.624   0.052   8.515 -0.1407 -0.1118 -0.1376
  242loPI   C5A 3867   8.668  -0.001   8.042  0.2210  0.4811  0.1624
  242loPI   C6A 3868   8.564   0.253   7.675 -0.1574 -0.2190 -0.4394
  242loPI   C1B 3869   9.196   0.474   9.967 -0.1316  0.2082 -0.1148
  242loPI   C2B 3870   9.209   0.419   9.488 -0.3845  0.0365  0.0274
  242loPI   C3B 3871   9.083   0.474   9.070 -0.1318 -0.1422 -0.2196
  242loPI   C4B 3872   8.925   0.433   8.745  0.1811  0.3528  0.0861
  243loPI    C1 3873   5.982  11.164  10.871 -0.0503 -0.1707 -0.1095
  243loPI    C2 3874   5.911  10.834  11.086 -0.0203 -0.1807 -0.1148
  243loPI    C3 3875   5.955  11.187  11.270 -0.0861 -0.1739 -0.1118
  243loPI   PO4 3876   5.799  11.213  10.686  0.0171 -0.0681  0.0048
  243loPI   GL1 3877   5.656  11.336  10.270  0.3371 -0.1841  0.1077
  243loPI   GL2 3878   5.525  11.090  10.216 -0.0597  0.1957  0.0216
  243loPI   C1A 3879   5.459  11.544   9.943 -0.1008  0.2425  0.2026
  243loPI   C2A 3880   5.475  11.648   9.474  0.0843 -0.1011 -0.0981
  243loPI   C3A 3881   5.512  11.659   9.083 -0.2813  0.0680 -0.0125
  243loPI   C4A 3882   5.400  11.561   8.723  0.0599 -0.3170 -0.2858
  243loPI   C5A 3883   5.427  11.802   8.301 -0.2677  0.0922  0.0525
  243loPI   C6A 3884   5.666  11.968   7.875 -0.0290 -0.1180 -0.2455
  243loPI   C1B 3885   5.551  10.989   9.839 -0.3478 -0.3023  0.1982
  243loPI   C2B 3886   5.548  11.154   9.429 -0.2469 -0.1689 -0.1802
  243loPI   C3B 3887   5.578  11.179   8.985 -0.0311 -0.0930  0.1367
  243loPI   C4B 3888   5.545  10.981   8.561 -0.1566  0.2973  0.1055
  244loPI    C1 3889   8.387   3.687  10.936 -0.1516  0.3811  0.0558
  244loPI    C2 3890   8.724   3.613  11.138 -0.0643  0.1506 -0.1680
  244loPI    C3 3891   8.415   3.789  11.322  0.0386  0.0124  0.1441
  244loPI   PO4 3892   8.474   3.669  10.690  0.1287 -0.1129  0.2102
  244loPI   GL1 3893   8.376   3.496  10.272  0.0274 -0.1085  0.2159
  244loPI   GL2 3894   8.600   3.549  10.157 -0.1700 -0.2566 -0.2487
  244loPI   C1A 3895   8.138   3.262   9.956 -0.0578  0.1149 -0.0851
  244loPI   C2A 3896   8.153   3.315   9.627  0.0015  0.0307 -0.0858
  244loPI   C3A 3897   8.131   3.328   9.162 -0.2871  0.0480 -0.0824
  244loPI   C4A 3898   8.139   3.411   8.736  0.0480 -0.1398 -0.1334
  244loPI   C5A 3899   8.254   3.370   8.417 -0.0229 -0.1083 -0.2862
  244loPI   C6A 3900   8.142   3.740   8.253  0.0631  0.0952 -0.0888
  244loPI   C1B 3901   8.592   3.653   9.758  0.1152 -0.2914  0.1420
  244loPI   C2B 3902   8.518   3.633   9.407  0.0507  0.1998  0.0563
  244loPI   C3B 3903   8.572   3.698   8.923 -0.1674  0.0713  0.2019
  244loPI   C4B 3904   8.561   3.777   8.517 -0.1979  0.0201 -0.0611
  245loPI    C1 3905  11.365   0.587   9.910 -0.0071 -0.1371 -0.2096
  245loPI    C2 3906  11.006   0.733  10.011  0.0575  0.0248 -0.2114
  245loPI    C3 3907  11.319   0.788  10.253  0.1616  0.2081 -0.3847
  245loPI   PO4 3908  11.405   0.318   9.895 -0.3179 -0.1413 -0.2400
  245loPI   GL1 3909  11.157   0.208   9.532  0.0456  0.1468  0.3624
  245loPI   GL2 3910  11.040   0.537   9.523 -0.2509  0.0063 -0.3473
  245loPI   C1A 3911  11.069   0.136   9.063 -0.0148  0.2405 -0.2601
  245loPI   C2A 3912  11.013   0.099   8.648  0.1881 -0.0313 -0.0396
  245loPI   C3A 3913  10.853   0.362   8.274  0.1284 -0.4341 -0.0332
  245loPI   C4A 3914  10.840   0.455   7.883 -0.2472 -0.0247  0.2667
  245loPI   C5A 3915  10.807   0.364   7.484  0.0283  0.0922 -0.3294
  245loPI   C6A 3916  10.619   0.047   7.219  0.0546  0.0978 -0.0487
  245loPI   C1B 3917  11.079   0.613   9.204 -0.0312  0.2551 -0.2652
  245loPI   C2B 3918  10.869   0.636   8.838  0.0768  0.0177  0.1304
  245loPI   C3B 3919  10.802   0.815   8.513  0.0867  0.2522  0.2059
  245loPI   C4B 3920  10.674   0.939   8.144  0.2301 -0.1641 -0.0077
  246loPI    C1 3921   8.609   4.510  10.843  0.0065 -0.2052 -0.0669
  246loPI    C2 3922   8.861   4.469  11.151  0.0612  0.1889 -0.0548
  246loPI    C3 3923   8.672   4.149  11.004  0.2007 -0.0365  0.2457
  246loPI   PO4 3924   8.758   4.638  10.620  0.0444  0.1139 -0.0180
  246loPI   GL1 3925   8.662   4.755  10.358 -0.1136 -0.0021  0.1368
  246loPI   GL2 3926   8.402   4.574  10.231 -0.1742 -0.0236 -0.0934
  246loPI   C1A 3927   8.819   4.912   9.997  0.0835 -0.0152 -0.1115
  246loPI   C2A 3928   8.752   4.958   9.575 -0.0868 -0.1443 -0.3670
  246loPI   C3A 3929   8.753   4.984   9.135 -0.0940 -0.1021  0.0339
  246loPI   C4A 3930   8.724   4.815   8.695 -0.0256  0.1186  0.2281
  246loPI   C5A 3931   8.520   4.584   8.319  0.1037  0.2720 -0.3147
  246loPI   C6A 3932   8.538   4.130   8.163  0.3729 -0.2705 -0.1704
  246loPI   C1B 3933   8.400   4.624   9.763 -0.0613 -0.2534 -0.1112
  246loPI   C2B 3934   8.382   4.636   9.332  0.0111 -0.1560  0.0054
  246loPI   C3B 3935   8.272   4.747   8.907  0.2259  0.2456  0.4207
  246loPI   C4B 3936   8.061   4.711   8.476  0.0676  0.0616 -0.1308
  247loPI    C1 3937   5.488  18.168  10.892 -0.1984  0.2038  0.0483
  247loPI    C2 3938   5.448  18.302  11.267  0.0321  0.1060  0.1098
  247loPI    C3 3939   5.772  18.092  11.164 -0.0981  0.0094 -0.1086
  247loPI   PO4 3940   5.177  18.139  10.736 -0.0854  0.0225 -0.1428
  247loPI   GL1 3941   5.069  17.950  10.393  0.2530 -0.0294  0.1462
  247loPI   GL2 3942   5.303  17.788  10.422  0.1432  0.1280  0.0685
  247loPI   C1A 3943   5.040  18.184  10.028  0.2019  0.0244 -0.3828
  247loPI   C2A 3944   4.963  18.173   9.556 -0.0170 -0.0367  0.0938
  247loPI   C3A 3945   5.082  18.222   9.068  0.2535 -0.0117 -0.0300
  247loPI   C4A 3946   5.047  18.307   8.683 -0.1427  0.1537 -0.1842
  247loPI   C5A 3947   5.093  18.164   8.309 -0.0262 -0.1063  0.1260
  247loPI   C6A 3948   5.053  17.727   8.071  0.0669  0.0451  0.1422
  247loPI   C1B 3949   5.586  17.860  10.041  0.0893  0.0907 -0.1816
  247loPI   C2B 3950   5.535  17.875   9.668 -0.3226 -0.2959 -0.1084
  247loPI   C3B 3951   5.554  17.905   9.178 -0.0350  0.1984 -0.1976
  247loPI   C4B 3952   5.551  18.077   8.845 -0.1741  0.1348 -0.2207
  248loPI    C1 3953   9.260   7.318  11.259 -0.0837 -0.1627 -0.0616
  248loPI    C2 3954   9.612   7.497  11.194 -0.0372 -0.1963  0.0916
  248loPI    C3 3955   9.370   7.630  11.484 -0.1894 -0.1202 -0.0681
  248loPI   PO4 3956   9.168   7.192  11.032 -0.2928  0.0655 -0.2180
  248loPI   GL1 3957   9.101   7.081  10.631  0.0531  0.2345 -0.0788
  248loPI   GL2 3958   9.037   7.401  10.523 -0.2072 -0.0517  0.2919
  248loPI   C1A 3959   9.093   6.847  10.316 -0.0532 -0.0144  0.2354
  248loPI   C2A 3960   9.029   6.817   9.929 -0.0577 -0.0827  0.0800
  248loPI   C3A 3961   8.998   6.728   9.510 -0.3624 -0.0782  0.2313
  248loPI   C4A 3962   8.993   6.769   9.089 -0.0071 -0.1391 -0.1437
  248loPI   C5A 3963   9.021   6.864   8.697 -0.1967  0.1265  0.1370
  248loPI   C6A 3964   9.107   6.806   8.303  0.2037 -0.0057  0.0001
  248loPI   C1B 3965   8.911   7.298  10.116  0.1615 -0.0044  0.1236
  248loPI   C2B 3966   8.895   7.319   9.772 -0.2100  0.0363 -0.1218
  248loPI   C3B 3967   8.912   7.305   9.348 -0.2762  0.0753 -0.0240
  248loPI   C4B 3968   8.855   7.284   9.011  0.0617 -0.5282  0.0778
  249loPI    C1 3969   4.695   5.722  11.220 -0.1403 -0.0036 -0.0204
  249loPI    C2 3970   4.773   5.679  11.610 -0.0288  0.1653 -0.0231
  249loPI    C3 3971   4.762   6.045  11.447 -0.0759  0.0955 -0.1785
  249loPI   PO4 3972   4.900   5.588  11.099 -0.1441 -0.1104  0.1397
  249loPI   GL1 3973   4.789   5.460  10.752 -0.3491  0.0642 -0.1656
  249loPI   GL2 3974   5.008   5.745  10.594 -0.0072  0.1999 -0.0784
  249loPI   C1A 3975   4.940   5.311  10.398  0.0684 -0.0449 -0.0788
  249loPI   C2A 3976   5.052   5.380   9.973  0.2370  0.0175 -0.0941
  249loPI   C3A 3977   5.094   5.468   9.566 -0.1110  0.0624 -0.1167
  249loPI   C4A 3978   5.087   5.402   9.036 -0.0366 -0.2559  0.4020
  249loPI   C5A 3979   5.390   5.595   8.711  0.3818  0.1228  0.0236
  249loPI   C6A 3980   5.467   5.512   8.324 -0.0571 -0.4107 -0.1245
  249loPI   C1B 3981   5.004   5.895  10.208 -0.1562  0.0285 -0.4844
  249loPI   C2B 3982   4.997   5.878   9.788 -0.0171 -0.2702  0.2790
  249loPI   C3B 3983   5.042   5.892   9.337 -0.1671 -0.1634  0.1799
  249loPI   C4B 3984   5.085   5.948   8.905  0.0669  0.0397  0.0870
  250loPI    C1 3985   9.611   2.493  10.743  0.2223 -0.0154 -0.0188
  250loPI    C2 3986   9.606   2.818  10.976  0.1723  0.2372 -0.3635
  250loPI    C3 3987   9.744   2.471  11.120 -0.1536  0.3048  0.1397
  250loPI   PO4 3988   9.406   2.655  10.504 -0.2029 -0.0061  0.1049
  250loPI   GL1 3989   9.514   2.782  10.155  0.0879  0.0413  0.0228
  250loPI   GL2 3990   9.263   2.504  10.036  0.1388  0.1123 -0.0459
  250loPI   C1A 3991   9.576   2.737   9.763 -0.2596  0.2499  0.0124
  250loPI   C2A 3992   9.571   2.696   9.332 -0.2418  0.1224 -0.0616
  250loPI   C3A 3993   9.582   2.678   8.958  0.0431  0.0142  0.0771
  250loPI   C4A 3994   9.611   2.667   8.508 -0.2136 -0.3404 -0.3299
  250loPI   C5A 3995   9.542   2.656   8.140 -0.0858  0.1324  0.0982
  250loPI   C6A 3996   9.215   2.858   7.851  0.2110  0.0928  0.0480
  250loPI   C1B 3997   9.126   2.609   9.552 -0.0559  0.0752 -0.1076
  250loPI   C2B 3998   9.165   2.475   9.106 -0.0649  0.1694 -0.2954
  250loPI   C3B 3999   9.120   2.359   8.674 -0.0649  0.1396  0.0875
  250loPI   C4B 4000   9.161   2.374   8.309 -0.1542 -0.1710  0.0207
  251loPI    C1 4001   1.422  14.243  10.712 -0.0863 -0.0193 -0.1699
  251loPI    C2 4002   1.102  14.016  10.788 -0.0002 -0.0544  0.0995
  251loPI    C3 4003   1.126  14.386  10.939 -0.0303  0.0462 -0.1374
  251loPI   PO4 4004   1.420  14.190  10.388 -0.1251 -0.5076  0.0941
  251loPI   GL1 4005   1.401  14.244   9.902 -0.0651  0.1554 -0.0842
  251loPI   GL2 4006   1.468  14.634   9.890 -0.1928 -0.1207 -0.1505
  251loPI   C1A 4007   1.386  14.233   9.471 -0.0682 -0.2360  0.0323
  251loPI   C2A 4008   1.401  14.132   9.116 -0.1201  0.0151  0.0776
  251loPI   C3A 4009   1.758  14.242   8.734  0.0291 -0.0612  0.3901
  251loPI   C4A 4010   1.700  14.193   8.227 -0.0410 -0.0679  0.0412
  251loPI   C5A 4011   1.799  13.883   7.923  0.0888 -0.1470  0.1915
  251loPI   C6A 4012   1.579  13.617   7.632 -0.0183  0.0296  0.0939
  251loPI   C1B 4013   1.590  14.858   9.536  0.0041 -0.1457 -0.1979
  251loPI   C2B 4014   1.824  14.902   9.195  0.1585  0.2811  0.0629
  251loPI   C3B 4015   1.738  14.804   8.793 -0.1191  0.1485  0.0173
  251loPI   C4B 4016   1.596  14.643   8.422 -0.1344 -0.0728 -0.1352
  252loPI    C1 4017   4.473  10.141  10.698 -0.2486  0.0553 -0.1770
  252loPI    C2 4018   4.698  10.219  11.020 -0.2125 -0.4309 -0.0766
  252loPI    C3 4019   4.389  10.456  10.930  0.1902  0.1100 -0.0836
  252loPI   PO4 4020   4.574  10.058  10.527 -0.0690  0.0557 -0.0546
  252loPI   GL1 4021   4.580   9.706  10.252  0.4809 -0.0630 -0.1228
  252loPI   GL2 4022   4.803   9.586  10.351 -0.2925  0.0904 -0.0803
  252loPI   C1A 4023   4.682   9.934   9.839 -0.1391  0.0716 -0.1511
  252loPI   C2A 4024   4.718   9.749   9.459 -0.3634 -0.2375 -0.2141
  252loPI   C3A 4025   4.915   9.714   9.055  0.0053  0.0117 -0.2173
  252loPI   C4A 4026   4.964   9.730   8.590  0.0206 -0.0678 -0.0349
  252loPI   C5A 4027   4.682   9.749   8.208  0.1344  0.1804  0.1575
  252loPI   C6A 4028   4.441   9.383   8.162  0.0967 -0.0620 -0.1354
  252loPI   C1B 4029   4.802   9.420   9.921  0.0200 -0.2623 -0.1883
  252loPI   C2B 4030   4.917   9.220   9.601  0.1685 -0.1759 -0.2178
  252loPI   C3B 4031   4.974   9.225   9.227  0.0791  0.0179 -0.2181
  252loPI   C4B 4032   4.989   9.279   8.838  0.0129  0.2465  0.0572
  253loPI    C1 4033   3.446   7.325  10.936  0.1770 -0.1227 -0.0661
  253loPI    C2 4034   3.837   7.391  10.987  0.0855  0.1423  0.3357
  253loPI    C3 4035   3.582   7.699  10.969 -0.1155 -0.0313  0.1545
  253loPI   PO4 4036   3.415   7.148  10.704  0.3493  0.0299  0.0409
  253loPI   GL1 4037   3.088   7.164  10.437  0.0665  0.0578 -0.3031
  253loPI   GL2 4038   2.772   7.001  10.425 -0.1553 -0.0492  0.0689
  253loPI   C1A 4039   3.263   7.219   9.938  0.1142  0.1736 -0.2596
  253loPI   C2A 4040   3.260   7.053   9.575 -0.0335  0.2502 -0.1916
  253loPI   C3A 4041   3.512   6.965   9.135 -0.0953 -0.0866 -0.1057
  253loPI   C4A 4042   3.465   7.036   8.688  0.1391  0.4198  0.1901
  253loPI   C5A 4043   3.494   6.670   8.414 -0.3010 -0.1135  0.0389
  253loPI   C6A 4044   3.668   6.331   8.231 -0.0697  0.1235  0.2369
  253loPI   C1B 4045   2.859   6.928  10.077 -0.3094  0.1011 -0.1463
  253loPI   C2B 4046   2.957   6.724   9.666  0.2140 -0.1760  0.0424
  253loPI   C3B 4047   3.049   6.670   9.248  0.3523  0.2372 -0.0158
  253loPI   C4B 4048   3.113   6.654   8.722  0.3141 -0.1725 -0.1273
  254loPI    C1 4049  15.549   7.641  10.453 -0.1830 -0.0110  0.1362
  254loPI    C2 4050  15.463   8.016  10.563  0.2339  0.0979  0.1074
  254loPI    C3 4051  15.642   7.768  10.820  0.4255  0.0820 -0.0388
  254loPI   PO4 4052  15.567   7.648  10.226 -0.0618 -0.2016 -0.3350
  254loPI   GL1 4053  15.726   7.385   9.878 -0.0162  0.2898 -0.1154
  254loPI   GL2 4054  15.843   7.544   9.680  0.0123  0.1565  0.0508
  254loPI   C1A 4055  15.446   7.150   9.645  0.1223 -0.0038 -0.0673
  254loPI   C2A 4056  15.379   7.102   9.187 -0.0333 -0.0733  0.1729
  254loPI   C3A 4057  15.303   7.185   8.786 -0.0095 -0.1758 -0.1948
  254loPI   C4A 4058  15.464   7.228   8.417 -0.0344 -0.2817 -0.0570
  254loPI   C5A 4059  15.404   7.270   8.027 -0.1500  0.1563  0.2223
  254loPI   C6A 4060  15.529   7.239   7.710  0.0581 -0.0999 -0.1120
  254loPI   C1B 4061  15.548   7.576   9.291 -0.1241 -0.1260 -0.0981
  254loPI   C2B 4062  15.554   7.571   8.844  0.0028 -0.0823 -0.0769
  254loPI   C3B 4063  15.208   7.673   8.524 -0.1265 -0.0350 -0.0572
  254loPI   C4B 4064  15.356   7.762   8.164 -0.2352 -0.1288  0.0146
  255loPI    C1 4065  14.194   0.997   9.776 -0.0296  0.1692 -0.0244
  255loPI    C2 4066  13.875   1.071  10.007 -0.0402 -0.2791  0.1136
  255loPI    C3 4067  14.232   1.004  10.174  0.0222 -0.2748 -0.0164
  255loPI   PO4 4068  14.214   1.169   9.607  0.3153 -0.1852 -0.1048
  255loPI   GL1 4069  14.057   1.016   9.218 -0.0187  0.0621 -0.0340
  255loPI   GL2 4070  13.672   0.977   9.170 -0.1992  0.0749 -0.0876
  255loPI   C1A 4071  14.076   0.894   8.786 -0.1717  0.0277 -0.2507
  255loPI   C2A 4072  14.063   0.940   8.404  0.0913  0.2561  0.1346
  255loPI   C3A 4073  14.274   0.901   7.977  0.0491 -0.0179 -0.1493
  255loPI   C4A 4074  14.222   1.079   7.653 -0.3033 -0.0932 -0.0454
  255loPI   C5A 4075  14.631   1.033   7.450  0.0188  0.1028  0.0027
  255loPI   C6A 4076  14.847   1.434   7.545  0.0318 -0.0308 -0.0350
  255loPI   C1B 4077  13.529   1.152   8.836  0.1424 -0.1015  0.0920
  255loPI   C2B 4078  13.468   1.130   8.459  0.2475 -0.1355 -0.1436
  255loPI   C3B 4079  13.507   1.184   7.996  0.0398  0.0439  0.0965
  255loPI   C4B 4080  13.596   1.188   7.565  0.2996  0.0805  0.2601
  256loPI    C1 4081  15.513  17.307   9.806 -0.1170  0.0557  0.0730
  256loPI    C2 4082  15.219  17.043   9.870  0.1002 -0.1086  0.4240
  256loPI    C3 4083  15.485  17.120  10.158  0.4043  0.0368  0.1116
  256loPI   PO4 4084  15.564  17.312   9.575 -0.1764 -0.0401 -0.0065
  256loPI   GL1 4085  15.435  17.081   9.254 -0.1103 -0.1018  0.0049
  256loPI   GL2 4086  15.323  17.366   9.140  0.1598  0.1087  0.1628
  256loPI   C1A 4087  15.465  16.910   8.841 -0.1972  0.3911 -0.3301
  256loPI   C2A 4088  15.468  16.909   8.388 -0.1387 -0.2439 -0.0236
  256loPI   C3A 4089  15.287  16.909   8.095  0.1576 -0.2162 -0.2344
  256loPI   C4A 4090  15.493  16.796   7.736 -0.3405  0.0162  0.1698
  256loPI   C5A 4091  15.425  16.880   7.321  0.1090  0.1303 -0.0981
  256loPI   C6A 4092  15.337  16.777   6.901 -0.0625  0.0786  0.2002
  256loPI   C1B 4093  15.367  17.374   8.681  0.0871  0.2226  0.3278
  256loPI   C2B 4094  15.432  17.361   8.291 -0.0192 -0.0855 -0.1959
  256loPI   C3B 4095  15.412  17.372   7.863  0.2963 -0.0119 -0.0604
  256loPI   C4B 4096  15.151  17.174   7.665  0.0815  0.0161 -0.1037
  257loPI    C1 4097   4.942   6.709  10.930  0.0263 -0.0236 -0.1326
  257loPI    C2 4098   4.575   6.556  10.890  0.0745 -0.1158 -0.2283
  257loPI    C3 4099   4.766   6.530  11.241  0.0132 -0.1199 -0.1951
  257loPI   PO4 4100   4.893   6.924  10.716  0.0320  0.0782 -0.2373
  257loPI   GL1 4101   4.628   7.098  10.399  0.0129 -0.5262 -0.0098
  257loPI   GL2 4102   4.427   7.188  10.187  0.0179 -0.0614 -0.3518
  257loPI   C1A 4103   4.936   6.874  10.076  0.2269  0.1341 -0.0667
  257loPI   C2A 4104   4.907   6.855   9.646 -0.2193  0.0042 -0.0585
  257loPI   C3A 4105   4.811   6.866   9.314 -0.2231 -0.2170 -0.1159
  257loPI   C4A 4106   4.866   6.942   8.872  0.1914 -0.0310  0.1764
  257loPI   C5A 4107   4.710   6.888   8.532 -0.0706  0.0269  0.0821
  257loPI   C6A 4108   4.826   6.783   8.142 -0.0460  0.0684  0.1151
  257loPI   C1B 4109   4.476   7.025   9.795  0.0959  0.4396  0.1800
  257loPI   C2B 4110   4.386   7.128   9.388  0.2703  0.1405  0.2081
  257loPI   C3B 4111   4.393   7.153   8.923 -0.1650 -0.1017  0.1322
  257loPI   C4B 4112   4.242   7.168   8.449 -0.1697 -0.2748 -0.0106
  258loPI    C1 4113  10.788  14.510  10.419  0.0493  0.0753  0.0974
  258loPI    C2 4114  11.066  14.266  10.571  0.1708  0.2362  0.1373
  258loPI    C3 4115  10.774  14.407  10.805 -0.0364 -0.0545  0.0601
  258loPI   PO4 4116  10.724  14.377  10.210  0.1725  0.0088  0.3546
  258loPI   GL1 4117  10.603  14.342   9.833 -0.0467  0.0838 -0.1721
  258loPI   GL2 4118  10.448  14.591   9.823 -0.1005 -0.1013 -0.0615
  258loPI   C1A 4119  10.704  14.428   9.379 -0.3960  0.1144  0.1780
  258loPI   C2A 4120  10.620  14.304   8.957 -0.1174 -0.0885  0.2274
  258loPI   C3A 4121  10.528  14.274   8.493  0.1396  0.0541  0.1458
  258loPI   C4A 4122  10.500  14.325   8.073 -0.5240  0.0989 -0.0217
  258loPI   C5A 4123  10.262  14.410   7.848  0.3141  0.0189  0.0791
  258loPI   C6A 4124  10.030  14.646   7.550 -0.0326 -0.0142  0.1378
  258loPI   C1B 4125  10.268  14.660   9.492 -0.2220  0.3076  0.3602
  258loPI   C2B 4126  10.193  14.605   9.128 -0.1697 -0.4081 -0.2682
  258loPI   C3B 4127  10.130  14.492   8.817 -0.2568  0.1857  0.2176
  258loPI   C4B 4128  10.165  14.541   8.349  0.0033  0.0651  0.0544
  259loPI    C1 4129  13.732  18.118   9.688  0.0290  0.2724  0.0441
  259loPI    C2 4130  13.344  18.199   9.741  0.0157  0.1035  0.2163
  259loPI    C3 4131  13.589  18.179  10.056  0.1126 -0.0477  0.1324
  259loPI   PO4 4132  13.757  18.042   9.482 -0.1032 -0.1342  0.1976
  259loPI   GL1 4133  13.940  17.729   9.161  0.0957  0.0508  0.0439
  259loPI   GL2 4134  14.205  17.628   9.275 -0.0330  0.3234  0.0975
  259loPI   C1A 4135  13.931  17.887   8.727 -0.1040  0.2412  0.3981
  259loPI   C2A 4136  13.968  18.028   8.207  0.0155  0.0478 -0.1252
  259loPI   C3A 4137  14.036  17.855   7.792  0.0429  0.0155 -0.0245
  259loPI   C4A 4138  13.857  17.688   7.420  0.0359 -0.0335  0.1754
  259loPI   C5A 4139  13.433  17.757   7.085 -0.4604  0.0093  0.1314
  259loPI   C6A 4140  13.396  17.794   6.682  0.0306  0.2452 -0.0795
  259loPI   C1B 4141  14.363  17.595   8.832  0.0347  0.2182 -0.1920
  259loPI   C2B 4142  14.350  17.741   8.438 -0.0589 -0.0588  0.0389
  259loPI   C3B 4143  14.442  18.077   8.123 -0.0825 -0.0861  0.2236
  259loPI   C4B 4144  14.460  18.150   7.681 -0.1703  0.1753 -0.2473
  260loPI    C1 4145  13.062   5.547  10.938  0.1355 -0.2704  0.1105
  260loPI    C2 4146  13.454   5.569  11.018  0.1407  0.1294 -0.0030
  260loPI    C3 4147  13.187   5.690  11.290  0.1106  0.2127 -0.0690
  260loPI   PO4 4148  13.094   5.681  10.663 -0.1877 -0.0796 -0.1884
  260loPI   GL1 4149  12.980   5.585  10.249 -0.3345 -0.3676 -0.0854
  260loPI   GL2 4150  12.708   5.415  10.185 -0.0869 -0.1091 -0.0402
  260loPI   C1A 4151  12.905   5.668   9.793  0.1408 -0.2218 -0.2278
  260loPI   C2A 4152  12.947   5.792   9.298 -0.0666 -0.2627 -0.5106
  260loPI   C3A 4153  12.895   5.756   8.899  0.0288  0.0757 -0.1003
  260loPI   C4A 4154  12.705   5.808   8.463 -0.4656  0.1596 -0.1368
  260loPI   C5A 4155  12.444   5.664   8.156  0.0746  0.2404 -0.1299
  260loPI   C6A 4156  12.443   5.266   7.865  0.0658  0.2679  0.3598
  260loPI   C1B 4157  12.527   5.351   9.771  0.1704 -0.0921 -0.2862
  260loPI   C2B 4158  12.557   5.372   9.370 -0.1158  0.2433  0.0900
  260loPI   C3B 4159  12.460   5.493   8.981  0.1407  0.0272 -0.1728
  260loPI   C4B 4160  12.280   5.364   8.524 -0.2589  0.1091  0.2999
  261loPI    C1 4161   8.722  16.802  11.123  0.0679 -0.0279  0.1679
  261loPI    C2 4162   8.630  17.064  11.411 -0.0707  0.1292 -0.0165
  261loPI    C3 4163   9.004  16.926  11.378  0.0209  0.3624  0.0356
  261loPI   PO4 4164   8.598  16.882  10.942 -0.0061 -0.1366 -0.0660
  261loPI   GL1 4165   8.706  16.890  10.438  0.2821  0.1645  0.2378
  261loPI   GL2 4166   8.379  16.986  10.421  0.3263  0.0053 -0.3082
  261loPI   C1A 4167   8.578  16.781   9.994 -0.2242  0.1143 -0.0054
  261loPI   C2A 4168   8.564  16.740   9.609 -0.1600  0.0558  0.0237
  261loPI   C3A 4169   8.474  16.700   9.189  0.1383 -0.0848 -0.1102
  261loPI   C4A 4170   8.391  16.771   8.762 -0.1944  0.0687 -0.1066
  261loPI   C5A 4171   8.455  16.776   8.369  0.0979 -0.2276  0.1833
  261loPI   C6A 4172   8.838  16.951   8.047 -0.2023  0.2550 -0.0100
  261loPI   C1B 4173   8.145  17.042  10.014  0.1112  0.0166  0.1204
  261loPI   C2B 4174   8.021  16.855   9.670 -0.0545  0.0278 -0.3929
  261loPI   C3B 4175   8.022  16.934   9.259  0.1606  0.1462 -0.0369
  261loPI   C4B 4176   7.934  17.007   8.772 -0.0187  0.3663 -0.0160
  262loPI    C1 4177   7.268   0.757  10.770  0.2887  0.1542 -0.0186
  262loPI    C2 4178   7.021   0.937  11.028  0.1489  0.0710 -0.0926
  262loPI    C3 4179   7.123   0.554  11.083  0.2278  0.0928 -0.0860
  262loPI   PO4 4180   7.120   0.880  10.525 -0.0731  0.4942  0.0327
  262loPI   GL1 4181   6.907   0.560  10.263 -0.1517 -0.1277  0.3427
  262loPI   GL2 4182   7.197   0.444  10.295  0.0194  0.2468  0.2777
  262loPI   C1A 4183   6.800   0.810   9.895  0.3432  0.1287  0.3957
  262loPI   C2A 4184   6.708   0.871   9.475  0.1496 -0.0877 -0.4258
  262loPI   C3A 4185   6.754   0.891   8.971  0.1330  0.1592  0.0556
  262loPI   C4A 4186   6.607   0.896   8.523  0.1424 -0.0838  0.0508
  262loPI   C5A 4187   6.780   1.086   8.119 -0.0020 -0.1627 -0.0060
  262loPI   C6A 4188   7.092   1.125   7.957  0.0861 -0.0956  0.2123
  262loPI   C1B 4189   7.269   0.553   9.860  0.1571 -0.1553 -0.0373
  262loPI   C2B 4190   7.196   0.768   9.568 -0.1649  0.1549  0.0686
  262loPI   C3B 4191   7.193   0.679   9.124 -0.1599  0.1539  0.1796
  262loPI   C4B 4192   7.125   0.906   8.690  0.1735 -0.2191 -0.0357
  263loPI    C1 4193  17.581   0.673  10.158  0.0696 -0.1819 -0.0328
  263loPI    C2 4194  17.279   0.436  10.270 -0.0358  0.0078  0.0901
  263loPI    C3 4195  17.527   0.586  10.545 -0.0993  0.2132  0.0368
  263loPI   PO4 4196  17.493   0.817   9.936  0.1123 -0.0270 -0.0858
  263loPI   GL1 4197  17.729   0.952   9.604 -0.3305 -0.1600  0.3159
  263loPI   GL2 4198  17.674   1.264   9.607 -0.0532  0.1826 -0.0542
  263loPI   C1A 4199  17.755   0.908   9.168 -0.1492 -0.2036 -0.0838
  263loPI   C2A 4200  17.900   0.955   8.694 -0.2392  0.2825  0.0470
  263loPI   C3A 4201  17.899   0.901   8.203  0.0422 -0.0985  0.0077
  263loPI   C4A 4202  18.086   0.882   7.757  0.1835  0.0647 -0.1985
  263loPI   C5A 4203  18.266   0.910   7.402 -0.0447 -0.0778  0.0029
  263loPI   C6A 4204  18.432   0.885   7.028 -0.0115 -0.0601 -0.3079
  263loPI   C1B 4205  17.617   1.442   9.220  0.1409  0.0901  0.0951
  263loPI   C2B 4206  17.802   1.441   8.763  0.2531  0.1225 -0.1110
  263loPI   C3B 4207  17.724   1.547   8.320 -0.1086 -0.1763  0.2898
  263loPI   C4B 4208  17.875   1.473   8.040  0.1206  0.0255  0.0105
  264loPI    C1 4209  11.702   0.024  10.135  0.1398 -0.1172 -0.2678
  264loPI    C2 4210  11.910   0.239  10.400 -0.1648  0.1922 -0.2709
  264loPI    C3 4211  11.671  -0.057  10.525 -0.0226  0.0906 -0.2356
  264loPI   PO4 4212  11.897   0.015   9.962  0.1227  0.1282  0.0570
  264loPI   GL1 4213  11.752   0.120   9.570  0.1746 -0.0318  0.3209
  264loPI   GL2 4214  11.555   0.410   9.360 -0.0423 -0.0012 -0.3318
  264loPI   C1A 4215  11.645  -0.081   9.334  0.0207  0.2446 -0.3965
  264loPI   C2A 4216  11.546  -0.060   8.914 -0.1460 -0.0406  0.3170
  264loPI   C3A 4217  11.484  -0.168   8.535  0.2059 -0.1802 -0.1645
  264loPI   C4A 4218  11.228   0.010   8.132 -0.2680  0.2172  0.0782
  264loPI   C5A 4219  10.879  -0.064   7.854  0.1848 -0.0532 -0.1779
  264loPI   C6A 4220  10.635  -0.350   7.534  0.2260  0.3922  0.0006
  264loPI   C1B 4221  11.492   0.435   8.955  0.2894 -0.1502  0.0241
  264loPI   C2B 4222  11.303   0.489   8.586  0.0966 -0.0112  0.0861
  264loPI   C3B 4223  11.307   0.538   8.148 -0.3996 -0.1193  0.0283
  264loPI   C4B 4224  11.293   0.452   7.610  0.1520 -0.2067 -0.2734
  265loPI    C1 4225  12.467  15.769   9.798 -0.2928 -0.2116 -0.0470
  265loPI    C2 4226  12.524  15.668  10.181  0.0772  0.1742  0.0068
  265loPI    C3 4227  12.415  16.041  10.087  0.2875  0.1672 -0.2802
  265loPI   PO4 4228  12.763  15.649   9.694 -0.4787 -0.0562  0.1608
  265loPI   GL1 4229  12.968  15.589   9.353 -0.0630  0.1176  0.2435
  265loPI   GL2 4230  12.810  15.418   9.205 -0.0513  0.1249 -0.1240
  265loPI   C1A 4231  13.306  15.586   9.006  0.1768 -0.1974 -0.1016
  265loPI   C2A 4232  13.219  15.562   8.627 -0.2125 -0.0102  0.0967
  265loPI   C3A 4233  13.183  15.665   8.246  0.1891 -0.0015 -0.3100
  265loPI   C4A 4234  13.240  15.705   7.878  0.1178 -0.2791 -0.4494
  265loPI   C5A 4235  13.170  15.477   7.424  0.1096  0.2030  0.0047
  265loPI   C6A 4236  13.057  15.589   7.084 -0.0282  0.3453 -0.0381
  265loPI   C1B 4237  12.783  15.319   8.841 -0.0677 -0.3868  0.2118
  265loPI   C2B 4238  12.718  15.380   8.543  0.1938  0.2872 -0.0426
  265loPI   C3B 4239  12.831  15.327   8.102  0.1808 -0.0038  0.0021
  265loPI   C4B 4240  12.711  15.439   7.747  0.0216 -0.1715 -0.2570
  266loPI    C1 4241   3.924  15.435  10.916 -0.0326  0.1481  0.0636
  266loPI    C2 4242   4.140  15.581  11.220  0.2619  0.1577 -0.1459
  266loPI    C3 4243   3.984  15.213  11.244  0.3467  0.1294 -0.0138
  266loPI   PO4 4244   4.078  15.525  10.667 -0.3087  0.1084  0.0044
  266loPI   GL1 4245   4.332  15.779  10.378  0.1063 -0.1163  0.0974
  266loPI   GL2 4246   4.359  15.378  10.269 -0.0895 -0.1315  0.0678
  266loPI   C1A 4247   4.316  15.831   9.917 -0.1553 -0.5494  0.0955
  266loPI   C2A 4248   4.379  15.866   9.529  0.0425 -0.2485 -0.2813
  266loPI   C3A 4249   4.439  15.814   9.157  0.0216  0.1403 -0.2707
  266loPI   C4A 4250   4.584  15.960   8.810  0.2521 -0.0605 -0.0325
  266loPI   C5A 4251   4.674  16.078   8.379  0.1955  0.2016  0.1560
  266loPI   C6A 4252   4.358  16.041   8.074 -0.0462  0.1221 -0.0087
  266loPI   C1B 4253   4.428  15.342   9.735 -0.1642 -0.0790 -0.2841
  266loPI   C2B 4254   4.540  15.318   9.319  0.2229 -0.2714  0.3674
  266loPI   C3B 4255   4.692  15.470   8.959  0.0306 -0.2090 -0.2563
  266loPI   C4B 4256   4.576  15.543   8.438  0.2212 -0.1994  0.0126
  267loPI    C1 4257  10.361  17.255  10.494  0.1991  0.1900  0.1756
  267loPI    C2 4258  10.177  17.059  10.790  0.0869  0.0040 -0.0138
  267loPI    C3 4259  10.046  17.420  10.676 -0.1583 -0.1228 -0.1410
  267loPI   PO4 4260  10.403  17.106  10.300  0.3294  0.0942  0.0692
  267loPI   GL1 4261  10.278  17.136   9.896 -0.0104 -0.2487  0.1223
  267loPI   GL2 4262  10.169  16.878   9.921  0.3139  0.2356  0.2922
  267loPI   C1A 4263  10.428  16.964   9.478  0.1494 -0.0724 -0.0134
  267loPI   C2A 4264  10.281  16.962   9.026  0.1055  0.0014  0.1373
  267loPI   C3A 4265  10.173  16.907   8.617 -0.4376  0.0999  0.0068
  267loPI   C4A 4266  10.146  16.923   8.100  0.0854  0.0561 -0.1775
  267loPI   C5A 4267  10.156  17.256   7.836  0.1544  0.3025 -0.0246
  267loPI   C6A 4268  10.403  17.640   7.693  0.1815 -0.0278 -0.1794
  267loPI   C1B 4269   9.942  16.653   9.578  0.3086  0.1614 -0.1962
  267loPI   C2B 4270   9.870  16.562   9.125  0.1370 -0.1435  0.0482
  267loPI   C3B 4271   9.772  16.491   8.683  0.0753 -0.2822 -0.2361
  267loPI   C4B 4272   9.853  16.650   8.355 -0.2296 -0.0565  0.3447
  268loPI    C1 4273  10.572   6.571  10.960 -0.3374  0.0487  0.2172
  268loPI    C2 4274  10.305   6.282  10.884 -0.1566 -0.1022  0.1490
  268loPI    C3 4275  10.559   6.245  11.191  0.1369 -0.2078 -0.1010
  268loPI   PO4 4276  10.679   6.584  10.689  0.1160 -0.1047  0.2971
  268loPI   GL1 4277  10.609   6.334  10.305  0.1267  0.2328  0.0734
  268loPI   GL2 4278  10.756   6.570  10.130  0.0540  0.0971 -0.2582
  268loPI   C1A 4279  10.448   6.175   9.950 -0.2294 -0.2783  0.0229
  268loPI   C2A 4280  10.413   6.209   9.584 -0.0047 -0.0392  0.0179
  268loPI   C3A 4281  10.469   6.172   9.156  0.1433 -0.2735 -0.1463
  268loPI   C4A 4282  10.469   6.171   8.661  0.0062 -0.4118  0.0755
  268loPI   C5A 4283  10.364   6.364   8.284  0.3916 -0.0016 -0.2706
  268loPI   C6A 4284  10.173   6.080   7.907  0.1722 -0.0131  0.1050
  268loPI   C1B 4285  10.805   6.540   9.741 -0.0517 -0.1547  0.2553
  268loPI   C2B 4286  10.853   6.482   9.287 -0.0116 -0.0585  0.2908
  268loPI   C3B 4287  10.839   6.475   8.838  0.0993 -0.0566  0.0930
  268loPI   C4B 4288  10.822   6.645   8.438 -0.0779  0.1220  0.0441
  269loPI    C1 4289   2.082   8.196  10.742 -0.1613  0.0536 -0.2605
  269loPI    C2 4290   1.788   8.014  10.943  0.1300 -0.1413 -0.0001
  269loPI    C3 4291   1.711   8.191  10.592 -0.2963 -0.1780  0.0689
  269loPI   PO4 4292   2.310   8.049  10.682 -0.3240  0.2096 -0.0359
  269loPI   GL1 4293   2.378   7.826  10.238  0.1085 -0.3904  0.0732
  269loPI   GL2 4294   2.227   7.533  10.124  0.1370 -0.2814 -0.0785
  269loPI   C1A 4295   2.359   7.975   9.866 -0.1687 -0.0062 -0.1998
  269loPI   C2A 4296   2.407   7.897   9.412  0.0840 -0.1136  0.0093
  269loPI   C3A 4297   2.396   8.055   9.043  0.1194 -0.0063 -0.1419
  269loPI   C4A 4298   2.338   7.974   8.637 -0.0661 -0.4338 -0.0964
  269loPI   C5A 4299   2.649   8.121   8.344  0.1090 -0.0455  0.1677
  269loPI   C6A 4300   2.782   8.292   7.974 -0.0478 -0.2351 -0.0107
  269loPI   C1B 4301   2.351   7.473   9.678 -0.0599 -0.3714  0.1666
  269loPI   C2B 4302   2.412   7.443   9.231 -0.1576 -0.1099 -0.1911
  269loPI   C3B 4303   2.514   7.580   8.847 -0.1219  0.1515 -0.1401
  269loPI   C4B 4304   2.439   7.545   8.385 -0.0453  0.1492 -0.2698
  270loPI    C1 4305   0.383  13.440  10.224 -0.1042  0.0070 -0.0319
  270loPI    C2 4306   0.266  13.108  10.034 -0.1595  0.0672 -0.1039
  270loPI    C3 4307   0.259  13.123  10.434 -0.3278  0.0441 -0.1053
  270loPI   PO4 4308   0.601  13.522  10.075  0.1221 -0.2919 -0.2862
  270loPI   GL1 4309   1.002  13.513   9.979 -0.0579 -0.2076 -0.1115
  270loPI   GL2 4310   1.194  13.242   9.879 -0.0704 -0.2973 -0.0880
  270loPI   C1A 4311   0.882  13.553   9.494 -0.0570 -0.0024  0.1533
  270loPI   C2A 4312   0.810  13.428   9.073 -0.0767  0.1409 -0.0538
  270loPI   C3A 4313   0.887  13.247   8.640  0.2021  0.2990 -0.1678
  270loPI   C4A 4314   0.823  13.260   8.269 -0.2418  0.1174 -0.1259
  270loPI   C5A 4315   0.692  13.253   7.830  0.1388 -0.0274  0.0723
  270loPI   C6A 4316   0.675  12.893   7.550 -0.0852  0.1964 -0.1470
  270loPI   C1B 4317   1.251  13.157   9.542  0.0123 -0.0214  0.1603
  270loPI   C2B 4318   1.170  13.077   9.104  0.1138 -0.3659 -0.1360
  270loPI   C3B 4319   1.335  12.883   8.767 -0.3153  0.2119 -0.2005
  270loPI   C4B 4320   1.587  12.827   8.388  0.1935  0.0516 -0.3800
  271loPI    C1 4321   9.288  11.377  10.656  0.1736  0.0477  0.1219
  271loPI    C2 4322   9.025  11.255  10.930 -0.0137 -0.0319 -0.0901
  271loPI    C3 4323   9.407  11.140  10.955 -0.0829 -0.2501 -0.0060
  271loPI   PO4 4324   9.135  11.366  10.366  0.3041  0.1077  0.0673
  271loPI   GL1 4325   8.966  11.484  10.074  0.0476 -0.0446 -0.2708
  271loPI   GL2 4326   9.178  11.646   9.923  0.0667 -0.1938 -0.1701
  271loPI   C1A 4327   8.789  11.281   9.691  0.0886 -0.0320  0.0658
  271loPI   C2A 4328   8.691  11.285   9.264  0.0355 -0.0127 -0.2340
  271loPI   C3A 4329   8.670  11.337   8.852 -0.0051  0.1277  0.1824
  271loPI   C4A 4330   8.649  11.285   8.499  0.0492  0.2447  0.0450
  271loPI   C5A 4331   8.529  11.124   8.091  0.0137 -0.1179  0.1296
  271loPI   C6A 4332   8.430  10.782   7.804 -0.2547  0.1373  0.1518
  271loPI   C1B 4333   9.171  11.611   9.490  0.2368 -0.1417 -0.3436
  271loPI   C2B 4334   9.059  11.605   9.067 -0.1123 -0.1283 -0.0511
  271loPI   C3B 4335   8.990  11.604   8.638  0.0309  0.3752 -0.0972
  271loPI   C4B 4336   9.077  11.616   8.187  0.1525  0.2314 -0.3716
  272loPI    C1 4337  15.007   9.783  10.274 -0.0356 -0.0254  0.1417
  272loPI    C2 4338  15.058   9.604  10.627  0.1743  0.0740  0.1634
  272loPI    C3 4339  14.776   9.884  10.584 -0.0470 -0.1434  0.1721
  272loPI   PO4 4340  15.054   9.675  10.099 -0.2072 -0.1441 -0.0613
  272loPI   GL1 4341  15.131   9.587   9.719 -0.2125 -0.0447  0.3581
  272loPI   GL2 4342  15.100   9.273   9.642  0.1167 -0.2125 -0.2454
  272loPI   C1A 4343  14.987   9.889   9.298  0.3251 -0.0550  0.1066
  272loPI   C2A 4344  14.999   9.742   8.790  0.0587  0.1222 -0.2316
  272loPI   C3A 4345  15.002   9.778   8.353  0.0406 -0.0031  0.1278
  272loPI   C4A 4346  15.001   9.851   7.950  0.0637  0.3015 -0.1065
  272loPI   C5A 4347  15.294   9.918   7.680  0.0081  0.1163 -0.0437
  272loPI   C6A 4348  15.579  10.232   7.502 -0.0387 -0.2311 -0.1486
  272loPI   C1B 4349  15.118   9.245   9.245 -0.1358  0.0625  0.0748
  272loPI   C2B 4350  15.166   9.179   8.814  0.1288  0.2002  0.0752
  272loPI   C3B 4351  15.084   9.284   8.436 -0.0439  0.1358 -0.1503
  272loPI   C4B 4352  15.048   9.288   7.983 -0.1842 -0.2199 -0.1603
  273loPI    C1 4353   2.610   2.993  10.941  0.2628 -0.2822  0.0257
  273loPI    C2 4354   2.844   3.012  11.265 -0.0484  0.3863  0.2295
  273loPI    C3 4355   2.447   2.979  11.306 -0.0587  0.0241 -0.0995
  273loPI   PO4 4356   2.710   3.172  10.697  0.3089  0.0253 -0.1401
  273loPI   GL1 4357   2.715   2.945  10.347  0.1257  0.1787 -0.1548
  273loPI   GL2 4358   2.444   3.033  10.229  0.0241 -0.0872 -0.1516
  273loPI   C1A 4359   3.001   3.286  10.035 -0.1538  0.1147  0.0676
  273loPI   C2A 4360   3.148   3.346   9.555  0.3409 -0.1552  0.0764
  273loPI   C3A 4361   3.089   3.454   9.119 -0.1126 -0.1792 -0.0083
  273loPI   C4A 4362   3.148   3.295   8.752 -0.1819 -0.3513  0.2135
  273loPI   C5A 4363   3.147   3.342   8.338  0.3737 -0.4466  0.1038
  273loPI   C6A 4364   3.426   3.307   8.094  0.1163  0.1493 -0.1400
  273loPI   C1B 4365   2.525   3.080   9.783 -0.1213  0.1619  0.1177
  273loPI   C2B 4366   2.750   2.971   9.446  0.2533  0.0351 -0.0421
  273loPI   C3B 4367   2.747   2.953   9.101 -0.1874  0.1055 -0.1438
  273loPI   C4B 4368   2.838   3.009   8.543 -0.1736  0.4102  0.2700
  274loPI    C1 4369  16.198   0.377   9.912 -0.0670 -0.2609  0.0043
  274loPI    C2 4370  16.272   0.035  10.104 -0.2402 -0.3504 -0.0859
  274loPI    C3 4371  16.195   0.368  10.311  0.2452 -0.2898  0.0083
  274loPI   PO4 4372  16.150   0.391   9.749  0.1511  0.0941  0.2292
  274loPI   GL1 4373  16.038   0.631   9.375 -0.1537  0.0252 -0.0979
  274loPI   GL2 4374  15.804   0.901   9.328  0.0054 -0.1313 -0.1022
  274loPI   C1A 4375  15.999   0.497   9.038  0.0485  0.2668  0.0414
  274loPI   C2A 4376  16.011   0.457   8.666 -0.0501 -0.0681 -0.2914
  274loPI   C3A 4377  16.037   0.515   8.296 -0.0965 -0.0657  0.1045
  274loPI   C4A 4378  16.100   0.481   7.908  0.1877  0.0890 -0.3042
  274loPI   C5A 4379  16.225   0.465   7.524 -0.5557  0.0441 -0.0542
  274loPI   C6A 4380  16.535   0.512   7.196  0.0104 -0.0376 -0.1674
  274loPI   C1B 4381  15.864   0.948   8.906 -0.0846 -0.1004  0.0157
  274loPI   C2B 4382  16.023   0.972   8.521 -0.0473  0.4652 -0.3629
  274loPI   C3B 4383  15.917   1.170   8.151 -0.2649  0.2124 -0.1112
  274loPI   C4B 4384  16.022   0.998   7.727  0.3548  0.0587  0.1106
  275loPI    C1 4385  15.578   1.175   9.851  0.3061 -0.1091  0.0500
  275loPI    C2 4386  15.325   0.953  10.068  0.2168 -0.0504  0.0068
  275loPI    C3 4387  15.443   1.311  10.202  0.1071  0.0161 -0.0725
  275loPI   PO4 4388  15.443   1.168   9.632  0.2834 -0.0584  0.5826
  275loPI   GL1 4389  15.324   1.238   9.298  0.3257  0.2045 -0.0324
  275loPI   GL2 4390  14.998   1.352   9.344  0.0169 -0.1264 -0.1776
  275loPI   C1A 4391  15.347   1.326   8.953 -0.1242  0.2071 -0.0195
  275loPI   C2A 4392  15.429   1.320   8.573  0.3365  0.1992  0.0933
  275loPI   C3A 4393  15.473   1.407   8.123  0.0324  0.2889  0.0270
  275loPI   C4A 4394  15.745   1.477   7.753  0.1110 -0.0238  0.1463
  275loPI   C5A 4395  15.671   1.805   7.600 -0.1699 -0.2320 -0.0640
  275loPI   C6A 4396  15.832   1.956   7.326 -0.0991 -0.5250  0.3452
  275loPI   C1B 4397  14.867   1.518   8.996 -0.0645  0.0981  0.1353
  275loPI   C2B 4398  14.934   1.501   8.634  0.1812 -0.1009 -0.3055
  275loPI   C3B 4399  14.989   1.597   8.150 -0.0495  0.0630  0.1150
  275loPI   C4B 4400  15.194   1.701   7.799  0.0580  0.1048  0.0890
  276loPI    C1 4401   4.615   0.619  11.161 -0.0072  0.4365  0.1296
  276loPI    C2 4402   4.230   0.683  11.074 -0.0373  0.1780  0.0630
  276loPI    C3 4403   4.330   0.413  11.352  0.1040  0.0195 -0.1384
  276loPI   PO4 4404   4.699   0.580  10.879 -0.3390 -0.4750  0.0303
  276loPI   GL1 4405   4.925   0.649  10.570  0.0296  0.1235  0.1710
  276loPI   GL2 4406   5.276   0.682  10.462 -0.2046  0.4695  0.1349
  276loPI   C1A 4407   4.912   0.689  10.087  0.0142 -0.2319  0.3758
  276loPI   C2A 4408   4.909   0.652   9.696  0.1649  0.1396  0.0757
  276loPI   C3A 4409   4.914   0.692   9.304 -0.2725  0.0780  0.0299
  276loPI   C4A 4410   4.948   0.715   8.968  0.1388  0.3305  0.0629
  276loPI   C5A 4411   4.921   0.957   8.546 -0.0001  0.0768 -0.0109
  276loPI   C6A 4412   5.229   1.125   8.462  0.0754  0.0014  0.0828
  276loPI   C1B 4413   5.341   0.941  10.155 -0.0849 -0.0072 -0.0592
  276loPI   C2B 4414   5.363   0.968   9.783 -0.1871 -0.3762 -0.1380
  276loPI   C3B 4415   5.282   1.015   9.349 -0.0721 -0.2046 -0.1598
  276loPI   C4B 4416   5.303   1.031   8.957  0.1059  0.3158  0.1862
  277loPI    C1 4417  15.310  16.624  10.149  0.0169 -0.2117  0.1733
  277loPI    C2 4418  15.017  16.421  10.331 -0.1449 -0.0129  0.1387
  277loPI    C3 4419  14.978  16.814  10.268  0.1888  0.0415  0.2558
  277loPI   PO4 4420  15.346  16.531   9.769 -0.0219  0.1213 -0.1665
  277loPI   GL1 4421  15.384  16.629   9.364  0.0839  0.0347 -0.1485
  277loPI   GL2 4422  15.638  16.625   9.217 -0.1028 -0.0113 -0.3436
  277loPI   C1A 4423  15.161  16.561   9.060 -0.2741  0.0889  0.1732
  277loPI   C2A 4424  15.182  16.559   8.620 -0.0678 -0.2329  0.1196
  277loPI   C3A 4425  15.252  16.406   8.207  0.1846  0.4757 -0.0612
  277loPI   C4A 4426  15.048  16.379   7.819  0.0145 -0.0491 -0.1100
  277loPI   C5A 4427  14.979  16.645   7.551 -0.1386 -0.1147  0.0038
  277loPI   C6A 4428  14.622  16.713   7.202 -0.3688 -0.1209 -0.0532
  277loPI   C1B 4429  15.715  16.416   8.885 -0.4516  0.0550 -0.0992
  277loPI   C2B 4430  15.775  16.474   8.460 -0.1341  0.1066 -0.0430
  277loPI   C3B 4431  15.744  16.587   8.075 -0.0176  0.1398 -0.0695
  277loPI   C4B 4432  15.949  16.544   7.648  0.2977  0.1923  0.0313
  278loPI    C1 4433   3.455  10.813  10.474  0.1116 -0.1099  0.1766
  278loPI    C2 4434   3.384  10.485  10.255  0.0053 -0.0727  0.1550
  278loPI    C3 4435   3.506  10.450  10.634 -0.0001 -0.1374  0.1509
  278loPI   PO4 4436   3.529  10.954  10.331  0.2078 -0.2128  0.0173
  278loPI   GL1 4437   3.719  11.022   9.963 -0.0847 -0.0841 -0.3793
  278loPI   GL2 4438   4.001  11.081  10.143 -0.0999  0.0935  0.0250
  278loPI   C1A 4439   3.671  10.827   9.535  0.2972 -0.0692  0.0734
  278loPI   C2A 4440   3.742  10.769   8.977  0.5443 -0.1329 -0.3046
  278loPI   C3A 4441   3.926  10.702   8.731 -0.1392 -0.0394  0.3386
  278loPI   C4A 4442   3.740  10.524   8.261 -0.3768  0.2491 -0.0331
  278loPI   C5A 4443   3.381  10.447   7.971  0.0855  0.3491  0.2334
  278loPI   C6A 4444   3.104  10.194   7.644  0.0418  0.2876  0.1428
  278loPI   C1B 4445   4.155  11.168   9.788 -0.2127 -0.1499  0.1652
  278loPI   C2B 4446   4.112  11.179   9.323  0.2742 -0.0375 -0.0581
  278loPI   C3B 4447   4.134  11.145   8.994  0.1541  0.1420 -0.1013
  278loPI   C4B 4448   4.248  11.027   8.624  0.4228 -0.1357 -0.0397
  279loPI    C1 4449   9.280  17.605  10.488 -0.0323 -0.0060 -0.1217
  279loPI    C2 4450   9.563  17.423  10.272  0.0769  0.1531 -0.1144
  279loPI    C3 4451   9.528  17.344  10.663 -0.3704 -0.4304 -0.2586
  279loPI   PO4 4452   9.069  17.703  10.265  0.0261 -0.1063 -0.0833
  279loPI   GL1 4453   8.860  17.777   9.891  0.0905  0.2426 -0.1266
  279loPI   GL2 4454   9.017  18.123   9.964 -0.0647  0.3015  0.4094
  279loPI   C1A 4455   8.881  17.568   9.495  0.0491 -0.2639  0.1614
  279loPI   C2A 4456   8.810  17.568   8.950 -0.1201 -0.2537  0.2039
  279loPI   C3A 4457   8.843  17.605   8.487  0.1136  0.1335 -0.2702
  279loPI   C4A 4458   8.930  17.649   8.048  0.0000  0.0377 -0.0220
  279loPI   C5A 4459   8.881  17.708   7.669  0.0973 -0.1637 -0.2101
  279loPI   C6A 4460   8.854  17.482   7.289  0.0350 -0.0148 -0.2218
  279loPI   C1B 4461   8.895  18.078   9.548 -0.2564 -0.2065  0.0987
  279loPI   C2B 4462   8.721  18.175   9.111 -0.0541  0.0126 -0.3758
  279loPI   C3B 4463   8.777  18.122   8.712  0.0329  0.1111  0.0554
  279loPI   C4B 4464   8.798  18.077   8.206 -0.0913 -0.2152 -0.1943
  280loPI    C1 4465   2.199   0.628  10.700 -0.0697  0.1565  0.0915
  280loPI    C2 4466   2.146   0.607  11.096  0.0900  0.1693  0.1140
  280loPI    C3 4467   2.363   0.329  10.908 -0.1850  0.0283  0.0000
  280loPI   PO4 4468   1.948   0.617  10.539 -0.0996 -0.1847  0.0286
  280loPI   GL1 4469   1.778   0.295  10.297  0.0642 -0.4612 -0.0975
  280loPI   GL2 4470   1.601   0.504  10.240  0.1027  0.1098 -0.0020
  280loPI   C1A 4471   2.062   0.416   9.959 -0.2033 -0.0428  0.3743
  280loPI   C2A 4472   2.261   0.280   9.615 -0.0579 -0.0570  0.1601
  280loPI   C3A 4473   2.247   0.251   9.195  0.4414  0.0568  0.1599
  280loPI   C4A 4474   2.335   0.282   8.774 -0.2543 -0.1992  0.0905
  280loPI   C5A 4475   2.405   0.250   8.374 -0.3526 -0.2689 -0.1885
  280loPI   C6A 4476   2.659   0.148   8.135 -0.0116  0.1899  0.4378
  280loPI   C1B 4477   1.620   0.474   9.712 -0.1652 -0.0791 -0.1682
  280loPI   C2B 4478   1.746   0.484   9.244 -0.1213 -0.2141  0.0847
  280loPI   C3B 4479   1.871   0.436   8.905  0.0647 -0.0903 -0.0861
  280loPI   C4B 4480   1.860   0.507   8.476  0.1989 -0.0803 -0.0825
  281loPI    C1 4481   5.294   0.245  11.043 -0.0668 -0.0260  0.1897
  281loPI    C2 4482   5.186   0.625  10.979 -0.0595 -0.0654 -0.0645
  281loPI    C3 4483   5.048   0.429  11.299 -0.1312  0.1241  0.0219
  281loPI   PO4 4484   5.329   0.214  10.758 -0.2269 -0.0207 -0.0101
  281loPI   GL1 4485   5.154   0.131  10.318  0.0369  0.2419  0.1134
  281loPI   GL2 4486   5.503   0.274  10.323 -0.1127 -0.1713  0.1291
  281loPI   C1A 4487   5.029   0.160   9.875 -0.0574 -0.3104 -0.4732
  281loPI   C2A 4488   4.946   0.136   9.402  0.0027 -0.0715  0.0538
  281loPI   C3A 4489   4.992   0.226   9.007  0.3082  0.3235  0.0314
  281loPI   C4A 4490   4.986   0.353   8.508  0.1370  0.3060 -0.0923
  281loPI   C5A 4491   4.865   0.115   8.205  0.3440 -0.0998 -0.1480
  281loPI   C6A 4492   4.632   0.187   7.993  0.4750 -0.0189 -0.0751
  281loPI   C1B 4493   5.463   0.471   9.995  0.0514  0.1033  0.2273
  281loPI   C2B 4494   5.399   0.390   9.601  0.3263  0.2356 -0.0800
  281loPI   C3B 4495   5.379   0.562   9.201 -0.2302  0.0526 -0.2975
  281loPI   C4B 4496   5.417   0.583   8.691 -0.1667 -0.0857 -0.2894
  282loPI    C1 4497   1.881  12.778  10.474 -0.3718  0.0062 -0.0221
  282loPI    C2 4498   2.089  12.442  10.413 -0.0471  0.1895  0.0534
  282loPI    C3 4499   1.811  12.456  10.700 -0.2047 -0.0740 -0.0831
  282loPI   PO4 4500   1.908  12.883  10.203 -0.2477  0.3198 -0.1729
  282loPI   GL1 4501   1.653  12.987   9.778  0.1292 -0.0199 -0.2376
  282loPI   GL2 4502   1.989  13.115   9.776  0.1532  0.2729  0.0337
  282loPI   C1A 4503   1.588  12.891   9.350 -0.2472  0.2240 -0.3179
  282loPI   C2A 4504   1.849  12.662   8.909  0.0364  0.2489 -0.1160
  282loPI   C3A 4505   2.009  12.400   8.562  0.1225 -0.0119 -0.1836
  282loPI   C4A 4506   1.888  12.202   8.184  0.1942  0.0713 -0.0239
  282loPI   C5A 4507   1.771  12.002   7.903  0.0451  0.1411 -0.0070
  282loPI   C6A 4508   1.853  11.859   7.518  0.1857  0.0133 -0.2593
  282loPI   C1B 4509   2.293  13.360   9.431 -0.1079 -0.0380 -0.1876
  282loPI   C2B 4510   2.267  13.583   8.999 -0.3308  0.1967 -0.1907
  282loPI   C3B 4511   2.158  13.812   8.683  0.1775  0.0022  0.1275
  282loPI   C4B 4512   2.073  13.750   8.301 -0.2686  0.2037 -0.0147
  283loPI    C1 4513  11.900   0.881  10.193 -0.0720  0.1358  0.0638
  283loPI    C2 4514  11.745   0.675  10.499  0.1237 -0.2195 -0.0702
  283loPI    C3 4515  12.141   0.681  10.442  0.1142  0.1180 -0.1271
  283loPI   PO4 4516  11.734   1.079  10.094  0.1286  0.1434  0.0844
  283loPI   GL1 4517  11.829   1.049   9.712  0.1708  0.0531  0.4169
  283loPI   GL2 4518  11.662   0.864   9.584  0.3733  0.1028  0.2718
  283loPI   C1A 4519  11.973   1.129   9.269  0.1990  0.1284  0.1835
  283loPI   C2A 4520  12.284   1.112   8.967  0.0242 -0.1752  0.2077
  283loPI   C3A 4521  12.222   1.151   8.575 -0.1499 -0.0335 -0.2271
  283loPI   C4A 4522  12.145   1.178   8.117  0.0312  0.1284  0.0298
  283loPI   C5A 4523  11.971   1.336   7.735 -0.0410  0.0839 -0.1613
  283loPI   C6A 4524  11.629   1.513   7.560 -0.5559 -0.2442 -0.1819
  283loPI   C1B 4525  11.481   1.011   9.156  0.0281  0.0775 -0.4036
  283loPI   C2B 4526  11.239   0.970   8.847  0.0821 -0.1926 -0.1098
  283loPI   C3B 4527  11.252   0.973   8.413 -0.3339  0.0429 -0.2249
  283loPI   C4B 4528  11.223   0.927   7.872 -0.1781  0.1529 -0.0368
  284loPI    C1 4529   6.451  14.656  10.523 -0.1503  0.0734  0.0036
  284loPI    C2 4530   6.364  14.308  10.699  0.0106  0.0333  0.0052
  284loPI    C3 4531   6.631  14.555  10.865  0.2291 -0.0440 -0.2254
  284loPI   PO4 4532   6.244  14.648  10.349 -0.0753 -0.0976 -0.0737
  284loPI   GL1 4533   6.074  14.423   9.970 -0.4521 -0.2792 -0.1064
  284loPI   GL2 4534   5.984  14.203   9.728  0.2222  0.2114 -0.0535
  284loPI   C1A 4535   6.077  14.776   9.736  0.1015  0.1582 -0.1411
  284loPI   C2A 4536   6.075  14.975   9.404  0.1131 -0.1795 -0.1780
  284loPI   C3A 4537   6.057  14.821   9.079 -0.0575  0.0897  0.1021
  284loPI   C4A 4538   6.117  14.828   8.661  0.0824  0.0211  0.1702
  284loPI   C5A 4539   5.984  14.675   8.280  0.0868 -0.0239 -0.0004
  284loPI   C6A 4540   6.143  14.447   7.997  0.0361  0.2488 -0.0700
  284loPI   C1B 4541   6.081  14.404   9.333 -0.0164  0.1501  0.1017
  284loPI   C2B 4542   6.104  14.370   8.822  0.0192  0.0627 -0.0044
  284loPI   C3B 4543   5.817  14.185   8.428  0.1715  0.1105  0.2578
  284loPI   C4B 4544   5.560  14.139   8.094 -0.1745 -0.1107  0.0525
  285loPI    C1 4545   7.552  18.014  11.196 -0.1384  0.2300 -0.0869
  285loPI    C2 4546   7.561  17.785  11.523  0.1071  0.2151 -0.1020
  285loPI    C3 4547   7.421  18.159  11.545 -0.1156  0.1295 -0.0363
  285loPI   PO4 4548   7.631  17.797  11.041 -0.3706 -0.4249  0.0817
  285loPI   GL1 4549   7.550  17.712  10.570  0.1949  0.2057 -0.0304
  285loPI   GL2 4550   7.831  17.846  10.594 -0.2178 -0.0557  0.1838
  285loPI   C1A 4551   7.405  17.459  10.206  0.0617 -0.1564  0.0400
  285loPI   C2A 4552   7.405  17.527   9.716 -0.3988 -0.3114 -0.0973
  285loPI   C3A 4553   7.383  17.646   9.336  0.1791  0.0496  0.2120
  285loPI   C4A 4554   7.461  17.558   8.922  0.2735 -0.1658 -0.3261
  285loPI   C5A 4555   7.390  17.576   8.476  0.0592  0.1531 -0.1200
  285loPI   C6A 4556   7.286  17.725   8.116  0.1737  0.1150  0.1488
  285loPI   C1B 4557   8.001  18.048  10.208 -0.0124  0.0786  0.0371
  285loPI   C2B 4558   7.937  17.878   9.784 -0.0508 -0.1823  0.1805
  285loPI   C3B 4559   7.820  17.879   9.422 -0.3008  0.0510 -0.0260
  285loPI   C4B 4560   7.995  17.990   9.066 -0.1082  0.1900  0.3622
  286loPI    C1 4561  16.660  15.492   9.656 -0.0535 -0.1242  0.1154
  286loPI    C2 4562  16.705  15.363  10.031 -0.1285 -0.3076  0.0619
  286loPI    C3 4563  16.407  15.613   9.940  0.1300  0.0601  0.2035
  286loPI   PO4 4564  16.778  15.341   9.548  0.0556  0.2202  0.1351
  286loPI   GL1 4565  16.807  15.288   9.173  0.0764  0.0110  0.0104
  286loPI   GL2 4566  17.234  15.214   9.364  0.0660  0.2788 -0.1637
  286loPI   C1A 4567  16.765  15.099   8.779 -0.2868 -0.0728 -0.0592
  286loPI   C2A 4568  16.711  15.326   8.419 -0.2298  0.1895 -0.1336
  286loPI   C3A 4569  17.016  15.355   8.108  0.2021 -0.1313 -0.1609
  286loPI   C4A 4570  17.160  15.676   7.857  0.0050 -0.0364 -0.1183
  286loPI   C5A 4571  16.892  15.864   7.688 -0.1018 -0.2450  0.2008
  286loPI   C6A 4572  16.571  15.928   7.479  0.0850  0.0271 -0.0796
  286loPI   C1B 4573  17.231  15.249   9.000 -0.3633 -0.0515  0.0683
  286loPI   C2B 4574  17.250  15.348   8.579 -0.0541 -0.2014  0.0143
  286loPI   C3B 4575  17.468  15.360   8.223 -0.7712  0.2048 -0.1630
  286loPI   C4B 4576  17.632  15.404   7.823 -0.1565  0.3739 -0.0761
  287loPI    C1 4577  17.149  17.227   9.998  0.1688 -0.1059 -0.2350
  287loPI    C2 4578  17.071  17.447  10.323 -0.2646  0.0008 -0.4049
  287loPI    C3 4579  17.340  17.152  10.342 -0.1502  0.1242 -0.0014
  287loPI   PO4 4580  17.002  17.306   9.755  0.1435 -0.0929 -0.3008
  287loPI   GL1 4581  17.154  17.464   9.325 -0.0842  0.2474  0.0261
  287loPI   GL2 4582  17.379  17.579   9.234  0.1802  0.1472 -0.1961
  287loPI   C1A 4583  17.081  17.703   8.804  0.3076  0.3662  0.1194
  287loPI   C2A 4584  17.253  17.592   8.398  0.0340 -0.1050 -0.1719
  287loPI   C3A 4585  17.271  17.737   7.999  0.4215  0.1296  0.2741
  287loPI   C4A 4586  17.187  17.820   7.564 -0.0762 -0.0721 -0.2148
  287loPI   C5A 4587  16.982  18.045   7.244  0.1665  0.2155  0.0296
  287loPI   C6A 4588  16.774  18.389   7.198 -0.0230 -0.0692  0.0554
  287loPI   C1B 4589  17.584  17.476   8.840 -0.0677 -0.1002  0.1605
  287loPI   C2B 4590  17.755  17.510   8.504 -0.1536  0.1123 -0.0373
  287loPI   C3B 4591  17.729  17.482   8.075 -0.1668 -0.2583 -0.1675
  287loPI   C4B 4592  17.716  17.517   7.582  0.1784  0.2328 -0.1063
  288loPI    C1 4593  12.165  11.621  10.271  0.0874 -0.0145 -0.0137
  288loPI    C2 4594  11.921  11.664  10.585 -0.1326 -0.0810 -0.1736
  288loPI    C3 4595  12.227  11.916  10.534  0.1416 -0.3043  0.3060
  288loPI   PO4 4596  12.100  11.729  10.038  0.0770 -0.1100 -0.1458
  288loPI   GL1 4597  12.059  11.474   9.785  0.1040 -0.0089  0.2554
  288loPI   GL2 4598  11.764  11.289   9.944 -0.0415 -0.0918 -0.2280
  288loPI   C1A 4599  12.021  11.253   9.388 -0.2647 -0.0062 -0.2474
  288loPI   C2A 4600  12.006  11.068   8.925  0.0859  0.1017 -0.0961
  288loPI   C3A 4601  12.045  11.023   8.567 -0.0231  0.0167  0.0931
  288loPI   C4A 4602  12.202  11.079   8.095  0.1229 -0.4418 -0.1724
  288loPI   C5A 4603  12.532  11.164   7.794  0.2186  0.1551 -0.1801
  288loPI   C6A 4604  12.751  11.485   7.635  0.1605  0.1580  0.0378
  288loPI   C1B 4605  11.552  11.155   9.539 -0.1704 -0.0743 -0.1402
  288loPI   C2B 4606  11.582  11.064   9.146 -0.3003 -0.1172  0.0890
  288loPI   C3B 4607  11.539  11.052   8.748  0.0120  0.1019  0.2356
  288loPI   C4B 4608  11.626  11.154   8.375 -0.0958 -0.0752  0.0764
  289loPI    C1 4609   5.308  13.974  10.733 -0.0683 -0.1094  0.1234
  289loPI    C2 4610   4.965  14.179  10.743 -0.0665 -0.1093  0.1834
  289loPI    C3 4611   5.163  14.103  11.083 -0.0216 -0.1336  0.1519
  289loPI   PO4 4612   5.417  14.150  10.496  0.1805 -0.2087  0.0892
  289loPI   GL1 4613   5.274  14.220  10.122 -0.2043  0.0642 -0.1186
  289loPI   GL2 4614   5.549  14.531  10.046  0.1521  0.2079  0.0843
  289loPI   C1A 4615   5.132  14.266   9.626  0.1353  0.0554 -0.3251
  289loPI   C2A 4616   5.122  14.195   9.232 -0.1192  0.1121  0.2256
  289loPI   C3A 4617   5.157  14.264   8.760 -0.0830 -0.1800  0.0519
  289loPI   C4A 4618   5.038  14.160   8.297  0.0588  0.0335 -0.0901
  289loPI   C5A 4619   4.680  13.936   8.079 -0.0588 -0.1106  0.0194
  289loPI   C6A 4620   4.565  13.526   7.887  0.1961  0.0036 -0.0923
  289loPI   C1B 4621   5.611  14.584   9.595  0.1069 -0.0835  0.1204
  289loPI   C2B 4622   5.630  14.477   9.201 -0.1688 -0.2378  0.0750
  289loPI   C3B 4623   5.627  14.502   8.724  0.1565  0.1229  0.0343
  289loPI   C4B 4624   5.493  14.555   8.382  0.2569 -0.3331 -0.0140
  290loPI    C1 4625   5.243  12.516  10.945 -0.3667 -0.1960  0.1752
  290loPI    C2 4626   5.342  12.724  11.273  0.0405  0.0825 -0.1143
  290loPI    C3 4627   5.415  12.331  11.256  0.0525  0.0734  0.1126
  290loPI   PO4 4628   5.291  12.521  10.745 -0.0517 -0.1859  0.1301
  290loPI   GL1 4629   5.096  12.529  10.273 -0.3583 -0.0423  0.3219
  290loPI   GL2 4630   4.763  12.504  10.173 -0.0272  0.1123 -0.0365
  290loPI   C1A 4631   5.346  12.459   9.958 -0.1126 -0.2521  0.0896
  290loPI   C2A 4632   5.437  12.559   9.514 -0.1811 -0.0232  0.2078
  290loPI   C3A 4633   5.251  12.644   9.178  0.0387 -0.0604  0.2135
  290loPI   C4A 4634   5.391  12.574   8.679 -0.2082  0.1444  0.3206
  290loPI   C5A 4635   5.292  12.729   8.378 -0.2922  0.1105  0.3789
  290loPI   C6A 4636   5.692  12.991   8.144 -0.1372  0.2483  0.0269
  290loPI   C1B 4637   4.895  12.512   9.752 -0.0673 -0.2951  0.1296
  290loPI   C2B 4638   4.883  12.336   9.422 -0.0966  0.1761 -0.1355
  290loPI   C3B 4639   4.905  12.378   8.944 -0.2609 -0.1495  0.0514
  290loPI   C4B 4640   4.873  12.313   8.578 -0.0255 -0.0776 -0.0688
  291loPI    C1 4641  15.203   5.914  10.461 -0.1532 -0.1492 -0.1145
  291loPI    C2 4642  15.376   6.270  10.407 -0.2248 -0.1344 -0.2516
  291loPI    C3 4643  15.031   6.243  10.608 -0.1164 -0.1516 -0.0659
  291loPI   PO4 4644  15.276   5.798  10.226 -0.1797  0.0869  0.0576
  291loPI   GL1 4645  15.453   5.981   9.940 -0.3320  0.0151  0.2067
  291loPI   GL2 4646  15.568   5.756   9.742 -0.0142  0.2156  0.0356
  291loPI   C1A 4647  15.652   6.178   9.603 -0.2078  0.3263  0.1777
  291loPI   C2A 4648  15.529   6.159   9.260  0.0184  0.0732 -0.2325
  291loPI   C3A 4649  15.624   6.082   8.851 -0.0511  0.2598 -0.0100
  291loPI   C4A 4650  15.524   6.223   8.409  0.0111 -0.0979 -0.1703
  291loPI   C5A 4651  15.444   6.369   8.079 -0.0425  0.2569 -0.0272
  291loPI   C6A 4652  15.460   6.159   7.616 -0.1811  0.0025  0.1640
  291loPI   C1B 4653  15.791   5.699   9.384 -0.0406 -0.0267 -0.0511
  291loPI   C2B 4654  15.698   5.582   9.002 -0.0423 -0.1665  0.2813
  291loPI   C3B 4655  15.620   5.469   8.615  0.2883 -0.2485  0.1377
  291loPI   C4B 4656  15.507   5.770   8.256 -0.1815 -0.4447  0.0234
  292loPI    C1 4657   0.729  17.450  10.479 -0.0017 -0.0319  0.0174
  292loPI    C2 4658   0.618  17.066  10.477 -0.2460  0.0362  0.0495
  292loPI    C3 4659   0.925  17.185  10.705 -0.0794 -0.1622 -0.0671
  292loPI   PO4 4660   0.670  17.539  10.266  0.1920  0.2907  0.1867
  292loPI   GL1 4661   0.600  17.556   9.847  0.1897 -0.2184  0.4804
  292loPI   GL2 4662   0.794  17.328   9.860 -0.2516 -0.0752 -0.3720
  292loPI   C1A 4663   0.726  17.709   9.393 -0.1318  0.1531 -0.4987
  292loPI   C2A 4664   0.962  17.728   9.078 -0.0753  0.2489 -0.0336
  292loPI   C3A 4665   1.059  17.926   8.658 -0.2244 -0.0346 -0.1033
  292loPI   C4A 4666   1.172  17.880   8.235  0.1059  0.2929 -0.0534
  292loPI   C5A 4667   1.180  17.640   7.929  0.3432 -0.1017  0.3940
  292loPI   C6A 4668   1.237  17.197   7.746 -0.2445  0.0974  0.0266
  292loPI   C1B 4669   0.803  17.152   9.549  0.1533  0.0938 -0.1154
  292loPI   C2B 4670   1.029  17.176   9.250  0.1648  0.1059 -0.0809
  292loPI   C3B 4671   1.144  17.285   8.877  0.3894 -0.0709 -0.1202
  292loPI   C4B 4672   1.358  17.257   8.468 -0.3022 -0.2881  0.2211
  293loPI    C1 4673   6.700  12.873  10.728 -0.0706  0.0451  0.0387
  293loPI    C2 4674   6.951  12.657  10.951  0.2430 -0.0687 -0.4089
  293loPI    C3 4675   6.566  12.687  11.055  0.3663 -0.1663  0.1051
  293loPI   PO4 4676   6.775  12.890  10.552  0.0073 -0.1037 -0.1816
  293loPI   GL1 4677   7.049  12.936  10.236 -0.1865  0.0796  0.3310
  293loPI   GL2 4678   6.986  12.555  10.231 -0.1535  0.0378 -0.4359
  293loPI   C1A 4679   7.111  12.879   9.737 -0.2591  0.1224 -0.1552
  293loPI   C2A 4680   7.089  13.018   9.414 -0.0448  0.1484  0.1629
  293loPI   C3A 4681   7.101  12.869   9.027  0.1288 -0.0476 -0.0842
  293loPI   C4A 4682   7.060  12.907   8.634 -0.2226 -0.1370 -0.1207
  293loPI   C5A 4683   7.270  12.903   8.262 -0.2819  0.2645  0.0628
  293loPI   C6A 4684   7.174  12.955   7.809 -0.0703  0.0389  0.0419
  293loPI   C1B 4685   6.794  12.101  10.063 -0.1542 -0.2790 -0.3180
  293loPI   C2B 4686   6.782  12.005   9.678  0.2377  0.3194  0.2448
  293loPI   C3B 4687   6.831  12.074   9.193 -0.0389 -0.0260 -0.2619
  293loPI   C4B 4688   6.759  12.107   8.758  0.1282 -0.2404  0.0520
  294loPI    C1 4689   8.813  17.537  10.765 -0.1024  0.0166  0.0142
  294loPI    C2 4690   8.884  17.284  11.067  0.0646 -0.0096 -0.0460
  294loPI    C3 4691   9.157  17.558  10.968 -0.0654  0.1169 -0.0584
  294loPI   PO4 4692   8.757  17.394  10.582  0.0116 -0.1286 -0.0232
  294loPI   GL1 4693   8.810  17.304  10.172  0.4246  0.1315  0.0178
  294loPI   GL2 4694   9.121  17.190  10.192 -0.0478 -0.1954  0.2017
  294loPI   C1A 4695   8.569  17.270   9.815 -0.2347 -0.0511 -0.0698
  294loPI   C2A 4696   8.410  17.240   9.406 -0.0216  0.1418 -0.3238
  294loPI   C3A 4697   8.368  17.198   9.031  0.0225  0.0343 -0.2059
  294loPI   C4A 4698   8.447  17.254   8.624  0.2109  0.2966  0.0032
  294loPI   C5A 4699   8.555  17.342   8.183  0.0396  0.2838  0.0475
  294loPI   C6A 4700   8.677  17.297   7.708  0.0395  0.0149 -0.0911
  294loPI   C1B 4701   9.036  16.902   9.829 -0.1159 -0.0336 -0.1696
  294loPI   C2B 4702   8.901  17.022   9.409 -0.0836 -0.3394  0.0451
  294loPI   C3B 4703   8.898  16.885   8.979  0.0943 -0.0878 -0.1861
  294loPI   C4B 4704   8.854  16.963   8.592  0.0212 -0.1817  0.4170
  295loPI    C1 4705   8.766  16.393  10.825 -0.0139 -0.2870 -0.0844
  295loPI    C2 4706   8.437  16.532  10.644  0.0438  0.1267  0.1149
  295loPI    C3 4707   8.417  16.395  11.019  0.0310 -0.2058 -0.0035
  295loPI   PO4 4708   8.855  16.156  10.708 -0.0865 -0.2326  0.0995
  295loPI   GL1 4709   8.997  16.058  10.272 -0.0177 -0.1405 -0.3569
  295loPI   GL2 4710   8.884  15.797  10.220 -0.0350  0.1607  0.0923
  295loPI   C1A 4711   9.180  15.989   9.837  0.0825 -0.2543  0.1114
  295loPI   C2A 4712   9.128  16.000   9.450  0.2188  0.3811  0.0500
  295loPI   C3A 4713   9.046  15.925   8.990  0.1703  0.0258  0.1362
  295loPI   C4A 4714   8.937  16.046   8.512 -0.0400  0.3937 -0.1028
  295loPI   C5A 4715   8.729  16.083   8.113 -0.0428  0.1163  0.1744
  295loPI   C6A 4716   8.502  15.748   7.960 -0.0646  0.0551  0.2060
  295loPI   C1B 4717   8.803  15.595   9.790  0.0876 -0.1784  0.0668
  295loPI   C2B 4718   8.725  15.595   9.278 -0.2458  0.1672 -0.0790
  295loPI   C3B 4719   8.573  15.721   8.894 -0.3761 -0.0110 -0.2465
  295loPI   C4B 4720   8.419  15.967   8.485 -0.0650 -0.0512  0.1806
  296loPI    C1 4721  13.065  14.032   9.787  0.2124  0.0455 -0.0317
  296loPI    C2 4722  12.949  13.997  10.169 -0.0038 -0.1123 -0.1100
  296loPI    C3 4723  13.330  14.085  10.083  0.0285  0.0038  0.1427
  296loPI   PO4 4724  13.012  14.167   9.719  0.0310  0.1707  0.0561
  296loPI   GL1 4725  12.780  14.169   9.306  0.0154  0.0399 -0.0774
  296loPI   GL2 4726  12.569  13.816   9.327 -0.2651 -0.1294 -0.2122
  296loPI   C1A 4727  12.706  14.194   8.978  0.0219 -0.0587  0.0605
  296loPI   C2A 4728  12.816  14.203   8.596 -0.1171 -0.1708 -0.0737
  296loPI   C3A 4729  12.878  14.288   8.163 -0.0336 -0.1766  0.2636
  296loPI   C4A 4730  12.675  14.353   7.820 -0.0876  0.0290 -0.1336
  296loPI   C5A 4731  12.769  14.241   7.414  0.0150  0.1455 -0.1731
  296loPI   C6A 4732  12.689  14.013   7.102 -0.0126  0.3095  0.0680
  296loPI   C1B 4733  12.440  13.798   8.915 -0.3096  0.3207 -0.3017
  296loPI   C2B 4734  12.360  13.948   8.507 -0.1904 -0.0840  0.0904
  296loPI   C3B 4735  12.355  14.022   8.032  0.1300  0.1252 -0.3759
  296loPI   C4B 4736  12.190  14.325   7.715  0.2269  0.1777 -0.1126
  297loPI    C1 4737  13.701   0.743   9.635  0.2335  0.0488  0.0023
  297loPI    C2 4738  13.589   0.613   9.996 -0.0669  0.0037 -0.1034
  297loPI    C3 4739  13.338   0.835   9.778  0.0963 -0.0050 -0.3025
  297loPI   PO4 4740  13.727   0.483   9.516 -0.0690  0.1357  0.1835
  297loPI   GL1 4741  13.847   0.358   9.080  0.2753  0.1467  0.0101
  297loPI   GL2 4742  14.235   0.291   9.081  0.3744 -0.0387  0.0175
  297loPI   C1A 4743  13.746   0.542   8.664  0.1955 -0.1105  0.2567
  297loPI   C2A 4744  13.557   0.673   8.280  0.3207 -0.3586  0.2359
  297loPI   C3A 4745  13.793   0.809   7.910  0.3009 -0.2590  0.0877
  297loPI   C4A 4746  13.880   0.790   7.489 -0.1545 -0.2560 -0.1182
  297loPI   C5A 4747  14.061   1.084   7.161  0.1441  0.1850 -0.2454
  297loPI   C6A 4748  13.819   1.180   6.800  0.0944  0.2546  0.0127
  297loPI   C1B 4749  14.212   0.298   8.650  0.2031 -0.1133  0.0274
  297loPI   C2B 4750  14.022   0.486   8.262  0.1632 -0.1685 -0.0546
  297loPI   C3B 4751  14.010   0.409   7.762  0.0765 -0.0771  0.2733
  297loPI   C4B 4752  13.904   0.260   7.331  0.0705  0.3832 -0.3725
  298loPI    C1 4753   1.653   3.613  10.985  0.1758  0.1952 -0.0684
  298loPI    C2 4754   1.802   3.739  11.334  0.0871  0.0487  0.0234
  298loPI    C3 4755   1.407   3.688  11.291  0.1205 -0.1915 -0.0127
  298loPI   PO4 4756   1.928   3.624  10.839  0.1599 -0.2045 -0.1009
  298loPI   GL1 4757   2.019   3.647  10.447  0.2923  0.0251  0.3783
  298loPI   GL2 4758   1.997   3.733  10.100  0.1793 -0.2147 -0.1793
  298loPI   C1A 4759   2.085   3.266   9.930  0.1780  0.0610  0.1436
  298loPI   C2A 4760   2.133   3.222   9.548  0.0133 -0.0504  0.1588
  298loPI   C3A 4761   2.352   3.206   9.223  0.1139  0.0650 -0.2472
  298loPI   C4A 4762   2.293   3.229   8.829 -0.0470 -0.3180 -0.2145
  298loPI   C5A 4763   2.383   3.209   8.416 -0.2068 -0.0237  0.0441
  298loPI   C6A 4764   2.711   3.266   8.120 -0.0913  0.3405  0.2410
  298loPI   C1B 4765   2.075   3.734   9.642 -0.0052  0.3391 -0.1166
  298loPI   C2B 4766   2.169   3.657   9.248 -0.0234  0.1946  0.1526
  298loPI   C3B 4767   2.057   3.757   8.838 -0.1622 -0.4696  0.0479
  298loPI   C4B 4768   2.101   3.751   8.301 -0.0288 -0.1262  0.3987
  299loPI    C1 4769   0.220  15.623  10.174  0.1316  0.1354  0.1046
  299loPI    C2 4770  -0.132  15.810  10.200  0.0431  0.0024 -0.1073
  299loPI    C3 4771  -0.067  15.477  10.411  0.1405  0.1745  0.1394
  299loPI   PO4 4772   0.301  15.634   9.924 -0.1587  0.1048 -0.2234
  299loPI   GL1 4773   0.462  15.426   9.699 -0.0310 -0.1357 -0.0241
  299loPI   GL2 4774   0.387  15.159   9.526  0.1504 -0.2070 -0.2061
  299loPI   C1A 4775   0.863  15.497   9.373 -0.0507  0.2148  0.3122
  299loPI   C2A 4776   0.909  15.502   8.960  0.1129  0.0083  0.0556
  299loPI   C3A 4777   1.130  15.594   8.671  0.2194 -0.0665 -0.0554
  299loPI   C4A 4778   1.337  15.576   8.291 -0.1741 -0.1039  0.5236
  299loPI   C5A 4779   1.309  15.294   7.915 -0.0204 -0.0555 -0.2767
  299loPI   C6A 4780   1.551  15.005   7.692  0.0550 -0.2677 -0.0431
  299loPI   C1B 4781   0.393  15.424   9.138  0.2394  0.6044 -0.0338
  299loPI   C2B 4782   0.530  15.227   8.798  0.1371  0.1883  0.1794
  299loPI   C3B 4783   0.760  15.221   8.553 -0.1363 -0.3077  0.2959
  299loPI   C4B 4784   0.866  15.241   8.128  0.1799 -0.1352  0.0289
  300loPI    C1 4785  17.355   3.598  10.801 -0.0778 -0.0007  0.0809
  300loPI    C2 4786  17.236   3.898  11.038  0.0611  0.0192  0.1260
  300loPI    C3 4787  17.543   3.665  11.147  0.2111  0.1103 -0.0936
  300loPI   PO4 4788  17.312   3.708  10.563  0.0998 -0.4106  0.2017
  300loPI   GL1 4789  17.179   3.858  10.139  0.3143  0.0977 -0.1218
  300loPI   GL2 4790  16.837   3.768  10.011 -0.1447 -0.1528 -0.0569
  300loPI   C1A 4791  17.242   4.133   9.806 -0.0060 -0.0176  0.2816
  300loPI   C2A 4792  17.337   4.084   9.375 -0.2611 -0.0945  0.1243
  300loPI   C3A 4793  17.277   4.172   8.930 -0.2577  0.1702 -0.0025
  300loPI   C4A 4794  17.462   4.075   8.573 -0.0022 -0.0267  0.0141
  300loPI   C5A 4795  17.300   4.170   8.136 -0.0702  0.0507 -0.3051
  300loPI   C6A 4796  17.394   4.499   7.869  0.2486  0.1360 -0.1661
  300loPI   C1B 4797  16.849   3.774   9.538 -0.0852  0.0837  0.2662
  300loPI   C2B 4798  16.924   3.785   9.158  0.1522  0.4082  0.0916
  300loPI   C3B 4799  16.964   3.849   8.676  0.2929 -0.1385 -0.0496
  300loPI   C4B 4800  16.980   3.830   8.207 -0.0780  0.0141 -0.1689
  301loPI    C1 4801  12.611  11.427  10.433 -0.0398 -0.0851  0.0638
  301loPI    C2 4802  12.672  11.566  10.803 -0.0332  0.0333  0.0186
  301loPI    C3 4803  12.336  11.367  10.717 -0.0813  0.0952  0.0627
  301loPI   PO4 4804  12.675  11.632  10.224 -0.1350 -0.1514 -0.0124
  301loPI   GL1 4805  12.561  11.715   9.835  0.1514 -0.2377 -0.2117
  301loPI   GL2 4806  12.553  11.425   9.774  0.3024  0.1130 -0.0491
  301loPI   C1A 4807  12.317  11.761   9.448 -0.0667  0.0177  0.3445
  301loPI   C2A 4808  12.179  11.694   9.126  0.0347 -0.0689  0.2604
  301loPI   C3A 4809  12.158  11.544   8.717 -0.0214 -0.0174 -0.0456
  301loPI   C4A 4810  12.139  11.550   8.346  0.1487 -0.0309  0.0383
  301loPI   C5A 4811  12.078  11.485   7.899  0.2723  0.0087 -0.1492
  301loPI   C6A 4812  12.090  11.319   7.446  0.1931 -0.2129  0.0179
  301loPI   C1B 4813  12.503  11.355   9.281  0.0885 -0.3083 -0.0434
  301loPI   C2B 4814  12.478  11.190   8.876 -0.0982 -0.0062  0.3492
  301loPI   C3B 4815  12.513  11.201   8.486 -0.0952  0.0817  0.0597
  301loPI   C4B 4816  12.657  11.484   8.116 -0.0130 -0.0463 -0.1042
  302loPI    C1 4817   6.490   4.335  11.379  0.1811 -0.4228 -0.1632
  302loPI    C2 4818   6.815   4.519  11.524  0.0030 -0.1382 -0.1163
  302loPI    C3 4819   6.559   4.339  11.773 -0.2299  0.2300 -0.0829
  302loPI   PO4 4820   6.506   4.268  11.037 -0.1974 -0.1620 -0.1907
  302loPI   GL1 4821   6.353   4.434  10.704 -0.4245  0.0656 -0.4555
  302loPI   GL2 4822   6.121   4.569  10.736 -0.0891 -0.0411 -0.2044
  302loPI   C1A 4823   6.544   4.437  10.352  0.0647 -0.1500  0.2911
  302loPI   C2A 4824   6.589   4.277   9.941  0.1862 -0.0981 -0.0318
  302loPI   C3A 4825   6.532   4.334   9.489 -0.0369  0.0831 -0.4955
  302loPI   C4A 4826   6.569   4.362   9.092  0.0261 -0.2631  0.3240
  302loPI   C5A 4827   6.683   4.402   8.670 -0.3056  0.0752 -0.0763
  302loPI   C6A 4828   6.732   4.433   8.315  0.0063  0.1209  0.0320
  302loPI   C1B 4829   6.028   4.549  10.278 -0.3344 -0.1704 -0.0916
  302loPI   C2B 4830   6.017   4.548   9.831 -0.1252 -0.1007 -0.0339
  302loPI   C3B 4831   6.005   4.596   9.431  0.0877  0.1058 -0.0395
  302loPI   C4B 4832   6.083   4.587   9.059 -0.0495 -0.0592 -0.0720
  303loPI    C1 4833  13.175   3.885  10.781  0.1981  0.2411  0.2843
  303loPI    C2 4834  13.444   3.613  10.896  0.0066 -0.0584  0.0387
  303loPI    C3 4835  13.191   3.768  11.163  0.1330 -0.1019  0.1852
  303loPI   PO4 4836  13.417   4.020  10.516  0.5200 -0.2062 -0.1893
  303loPI   GL1 4837  13.524   4.093  10.110  0.0415  0.1150 -0.2885
  303loPI   GL2 4838  13.377   3.806  10.050  0.0347  0.0306  0.3076
  303loPI   C1A 4839  13.558   4.312   9.662 -0.2344  0.2427  0.3008
  303loPI   C2A 4840  13.496   4.440   9.285 -0.0863 -0.0004 -0.0415
  303loPI   C3A 4841  13.578   4.600   8.905  0.2652  0.0726 -0.0261
  303loPI   C4A 4842  13.456   4.592   8.401  0.2965 -0.1194 -0.1328
  303loPI   C5A 4843  13.560   4.390   7.991  0.0214  0.0398  0.0032
  303loPI   C6A 4844  13.940   4.312   7.647 -0.0657 -0.2044 -0.3748
  303loPI   C1B 4845  13.598   3.775   9.701  0.1939 -0.2838 -0.1710
  303loPI   C2B 4846  13.583   3.904   9.291 -0.0033  0.1368  0.0486
  303loPI   C3B 4847  13.633   4.037   8.894  0.3252  0.0109 -0.1175
  303loPI   C4B 4848  13.559   4.038   8.429  0.2058 -0.0926 -0.0442
  304loPI    C1 4849  12.567   5.797  10.511  0.1067  0.1121 -0.0173
  304loPI    C2 4850  12.267   5.548  10.420  0.1543  0.0646 -0.0454
  304loPI    C3 4851  12.330   5.654  10.800  0.0032  0.2014 -0.0571
  304loPI   PO4 4852  12.583   5.982  10.263 -0.2548 -0.0232  0.1731
  304loPI   GL1 4853  12.460   6.165  10.031  0.0201 -0.3074  0.0486
  304loPI   GL2 4854  12.407   6.457   9.892  0.1809 -0.0524  0.0732
  304loPI   C1A 4855  12.449   5.895   9.648 -0.0021  0.2262  0.2348
  304loPI   C2A 4856  12.378   5.924   9.252  0.0942  0.2779  0.2284
  304loPI   C3A 4857  12.185   5.904   8.907 -0.0265 -0.2146  0.0146
  304loPI   C4A 4858  12.270   5.858   8.610  0.1732  0.0962 -0.1180
  304loPI   C5A 4859  12.289   6.124   8.338 -0.1306  0.1228  0.3444
  304loPI   C6A 4860  11.901   6.325   8.180  0.3804 -0.0234 -0.0564
  304loPI   C1B 4861  12.313   6.490   9.495  0.0546 -0.2539  0.0511
  304loPI   C2B 4862  12.238   6.489   9.080  0.1647  0.0450  0.1668
  304loPI   C3B 4863  12.217   6.486   8.687 -0.2375 -0.1840  0.2196
  304loPI   C4B 4864  12.273   6.606   8.264 -0.1510  0.0891 -0.3040
  305loPI    C1 4865   2.594   4.394  10.918 -0.0588  0.0929 -0.2352
  305loPI    C2 4866   2.688   4.744  10.749  0.0588  0.2040  0.0538
  305loPI    C3 4867   2.780   4.676  11.133  0.1048 -0.1731 -0.0201
  305loPI   PO4 4868   2.734   4.192  10.696  0.0645 -0.0034  0.2058
  305loPI   GL1 4869   2.903   4.403  10.396 -0.1471  0.0632  0.3411
  305loPI   GL2 4870   3.203   4.589  10.289 -0.0366  0.3923  0.0719
  305loPI   C1A 4871   2.866   4.355   9.969 -0.0934 -0.0732  0.2283
  305loPI   C2A 4872   2.814   4.439   9.582  0.2740 -0.2166 -0.0540
  305loPI   C3A 4873   2.860   4.336   9.146  0.0535 -0.1962  0.1877
  305loPI   C4A 4874   3.058   4.323   8.747 -0.0212  0.2332 -0.1835
  305loPI   C5A 4875   3.078   4.344   8.352 -0.3053  0.2640  0.4264
  305loPI   C6A 4876   2.884   4.310   7.937 -0.2177 -0.1334 -0.2561
  305loPI   C1B 4877   3.218   4.751   9.849 -0.1726 -0.0537 -0.1634
  305loPI   C2B 4878   3.308   4.647   9.390 -0.2739 -0.3907 -0.0271
  305loPI   C3B 4879   3.440   4.592   9.037 -0.0995  0.2620  0.2077
  305loPI   C4B 4880   3.441   4.678   8.574 -0.0348 -0.0863  0.0531
  306loPI    C1 4881   3.602  13.348  10.520  0.0449  0.1062 -0.1064
  306loPI    C2 4882   3.774  13.357  10.881 -0.1721 -0.0608  0.0034
  306loPI    C3 4883   3.380  13.293  10.848 -0.1433 -0.1101 -0.2663
  306loPI   PO4 4884   3.794  13.555  10.436 -0.1208 -0.1739  0.1525
  306loPI   GL1 4885   3.779  13.661  10.066  0.0107 -0.0442  0.0123
  306loPI   GL2 4886   3.445  13.562  10.040 -0.1195 -0.0050 -0.6197
  306loPI   C1A 4887   4.090  13.868   9.854 -0.2559 -0.1911 -0.1337
  306loPI   C2A 4888   4.194  14.042   9.600 -0.0651  0.1623 -0.3088
  306loPI   C3A 4889   4.091  14.076   9.185  0.0045 -0.2628 -0.0754
  306loPI   C4A 4890   3.925  14.136   8.809  0.3003  0.2752  0.2743
  306loPI   C5A 4891   3.911  14.208   8.366  0.0157  0.0203  0.0930
  306loPI   C6A 4892   4.058  14.324   7.912 -0.0619 -0.2600  0.0150
  306loPI   C1B 4893   3.681  13.371   9.568  0.0341  0.0620 -0.3046
  306loPI   C2B 4894   3.730  13.283   9.147  0.1731 -0.0663 -0.0720
  306loPI   C3B 4895   3.665  13.198   8.760 -0.2723  0.1589  0.1843
  306loPI   C4B 4896   3.609  12.984   8.328  0.2825  0.2415  0.1516
  307loPI    C1 4897   0.362  12.328  10.885  0.0782  0.0196 -0.0645
  307loPI    C2 4898   0.548  11.994  11.004 -0.0069  0.0832  0.2583
  307loPI    C3 4899   0.488  12.293  11.263 -0.2567  0.2016  0.0686
  307loPI   PO4 4900   0.363  12.296  10.624 -0.1289 -0.0483  0.4250
  307loPI   GL1 4901   0.424  12.408  10.202 -0.3302  0.0560  0.4871
  307loPI   GL2 4902   0.434  12.686  10.214 -0.2392  0.1117 -0.1257
  307loPI   C1A 4903   0.290  12.101   9.810 -0.3045  0.0427 -0.1810
  307loPI   C2A 4904   0.434  11.992   9.468  0.1302  0.0492 -0.1500
  307loPI   C3A 4905   0.567  11.815   9.067 -0.0322  0.3828 -0.1995
  307loPI   C4A 4906   0.545  11.978   8.584  0.3296  0.2036 -0.0067
  307loPI   C5A 4907   0.513  11.962   8.222  0.0321  0.1368  0.0809
  307loPI   C6A 4908   0.196  11.615   7.997  0.4116 -0.0520 -0.2278
  307loPI   C1B 4909   0.390  12.626   9.773  0.0388 -0.0881  0.2505
  307loPI   C2B 4910   0.497  12.513   9.358 -0.1050  0.1273 -0.1800
  307loPI   C3B 4911   0.501  12.435   8.945 -0.0049  0.1035 -0.1217
  307loPI   C4B 4912   0.546  12.448   8.528  0.0683  0.0373  0.1200
  308loPI    C1 4913   3.987  15.997  10.761 -0.0614 -0.1029 -0.0116
  308loPI    C2 4914   4.378  15.971  10.843 -0.0894 -0.0740  0.1339
  308loPI    C3 4915   4.121  16.085  11.127 -0.1816  0.0857 -0.0113
  308loPI   PO4 4916   3.889  16.141  10.538  0.0382  0.0156  0.0420
  308loPI   GL1 4917   3.932  16.241  10.154  0.2029 -0.3749 -0.0881
  308loPI   GL2 4918   3.864  15.944  10.071 -0.0560 -0.0763 -0.0219
  308loPI   C1A 4919   3.863  16.548   9.787  0.2944  0.3567 -0.0770
  308loPI   C2A 4920   3.882  16.680   9.402  0.0480  0.1063  0.0109
  308loPI   C3A 4921   4.057  16.698   9.015 -0.0426 -0.1076 -0.0091
  308loPI   C4A 4922   4.040  16.826   8.542  0.0135  0.0657  0.4743
  308loPI   C5A 4923   3.795  16.598   8.273  0.0823 -0.3429  0.0171
  308loPI   C6A 4924   3.608  16.467   7.874  0.0018  0.0209 -0.2325
  308loPI   C1B 4925   3.891  16.051   9.651  0.1698 -0.0802 -0.2316
  308loPI   C2B 4926   4.025  16.040   9.281  0.0625 -0.0871 -0.1279
  308loPI   C3B 4927   4.113  16.213   8.946 -0.2296  0.1104  0.0405
  308loPI   C4B 4928   3.991  16.128   8.580  0.1553  0.0618 -0.0663
  309loPI    C1 4929   6.092  13.491  10.912 -0.2733  0.0814  0.0293
  309loPI    C2 4930   6.198  13.875  10.948 -0.0806  0.0458 -0.1413
  309loPI    C3 4931   6.406  13.591  11.138 -0.0814  0.0059 -0.1998
  309loPI   PO4 4932   6.092  13.555  10.537 -0.1034 -0.2801 -0.2262
  309loPI   GL1 4933   6.301  13.664  10.116  0.1191 -0.1177 -0.0987
  309loPI   GL2 4934   5.957  13.627  10.017 -0.1122 -0.1046 -0.0911
  309loPI   C1A 4935   6.604  13.578   9.788  0.0882 -0.0066  0.1566
  309loPI   C2A 4936   6.478  13.658   9.415 -0.0537 -0.3755  0.1833
  309loPI   C3A 4937   6.500  13.704   8.958 -0.1434  0.1014  0.0561
  309loPI   C4A 4938   6.583  13.543   8.533 -0.0881 -0.1887 -0.3323
  309loPI   C5A 4939   6.699  13.651   8.072 -0.1425 -0.2246  0.2872
  309loPI   C6A 4940   6.907  14.110   8.033  0.0902  0.0592 -0.2164
  309loPI   C1B 4941   6.061  13.717   9.662  0.2467 -0.0221  0.2314
  309loPI   C2B 4942   6.065  13.889   9.325  0.3221 -0.5927  0.1415
  309loPI   C3B 4943   6.054  13.832   8.887  0.0536  0.1044  0.1250
  309loPI   C4B 4944   6.003  13.776   8.413 -0.1894  0.0434 -0.3602
  310loPI    C1 4945   8.535   8.265  10.833  0.0775  0.1225 -0.1048
  310loPI    C2 4946   8.847   8.364  11.063  0.1269  0.1935 -0.2016
  310loPI    C3 4947   8.479   8.347  11.220  0.1989 -0.0342 -0.0529
  310loPI   PO4 4948   8.670   8.313  10.516 -0.0799 -0.0636 -0.2723
  310loPI   GL1 4949   8.722   8.403  10.119 -0.0895 -0.2828  0.2708
  310loPI   GL2 4950   9.008   8.590  10.084 -0.0104 -0.0342  0.2986
  310loPI   C1A 4951   8.595   8.344   9.739  0.2252  0.3586 -0.0118
  310loPI   C2A 4952   8.741   8.347   9.265  0.0515  0.1563 -0.4115
  310loPI   C3A 4953   8.760   8.377   8.860 -0.3509  0.0805  0.0547
  310loPI   C4A 4954   8.773   8.247   8.494 -0.0258  0.0862  0.0239
  310loPI   C5A 4955   8.919   8.314   8.046  0.0284  0.0263 -0.2965
  310loPI   C6A 4956   9.128   8.220   7.641  0.0029  0.0256 -0.1509
  310loPI   C1B 4957   8.999   8.655   9.672  0.0729  0.1150  0.1051
  310loPI   C2B 4958   9.105   8.688   9.264  0.1324  0.3096  0.2937
  310loPI   C3B 4959   9.226   8.650   8.788  0.0990  0.0597 -0.2135
  310loPI   C4B 4960   9.195   8.577   8.395  0.0513 -0.0395 -0.2787
  311loPI    C1 4961   6.508  16.559  10.705  0.0878 -0.1118  0.2896
  311loPI    C2 4962   6.408  16.840  10.972 -0.1587 -0.0883  0.1754
  311loPI    C3 4963   6.691  16.915  10.699  0.1351 -0.1319  0.4604
  311loPI   PO4 4964   6.272  16.479  10.556 -0.0015  0.2238 -0.2706
  311loPI   GL1 4965   5.947  16.478  10.352 -0.0443  0.1227 -0.0315
  311loPI   GL2 4966   5.773  16.263  10.142  0.1975 -0.5761  0.2253
  311loPI   C1A 4967   6.110  16.592   9.936  0.0235  0.0831 -0.1180
  311loPI   C2A 4968   6.087  16.621   9.451  0.0372  0.0768 -0.2488
  311loPI   C3A 4969   6.226  16.761   8.969 -0.1246 -0.0588 -0.0368
  311loPI   C4A 4970   6.344  16.693   8.581  0.1393  0.1650 -0.0079
  311loPI   C5A 4971   6.203  16.917   8.186 -0.4052 -0.0714  0.1740
  311loPI   C6A 4972   6.227  17.360   7.989 -0.0831 -0.0355  0.0159
  311loPI   C1B 4973   5.710  16.316   9.764 -0.1675  0.0210  0.3168
  311loPI   C2B 4974   5.699  16.366   9.398  0.0718  0.0759  0.0688
  311loPI   C3B 4975   5.862  16.453   9.058  0.0363 -0.0031 -0.3385
  311loPI   C4B 4976   5.837  16.565   8.635  0.4223 -0.1077 -0.1524
  312loPI    C1 4977  13.381   4.795  10.571 -0.0591  0.1565 -0.2736
  312loPI    C2 4978  13.265   4.488  10.343 -0.0287  0.1616 -0.2961
  312loPI    C3 4979  13.300   4.441  10.739  0.1480  0.0856 -0.3198
  312loPI   PO4 4980  13.627   4.933  10.360  0.1980 -0.1666 -0.2310
  312loPI   GL1 4981  13.515   5.016   9.931  0.0507  0.0240  0.2869
  312loPI   GL2 4982  13.692   4.685   9.913 -0.4213 -0.1340 -0.1188
  312loPI   C1A 4983  13.392   4.942   9.471 -0.0648  0.1683 -0.2010
  312loPI   C2A 4984  13.493   5.067   9.081  0.1647 -0.1331 -0.1820
  312loPI   C3A 4985  13.389   5.125   8.651 -0.2439  0.2173 -0.0019
  312loPI   C4A 4986  13.300   5.114   8.277 -0.0961  0.3628 -0.0909
  312loPI   C5A 4987  13.267   4.890   7.976 -0.0966 -0.2058 -0.0457
  312loPI   C6A 4988  13.036   4.530   7.818 -0.0224 -0.2072 -0.2849
  312loPI   C1B 4989  13.959   4.741   9.428  0.1506 -0.4152  0.2403
  312loPI   C2B 4990  13.983   4.874   9.027  0.0383  0.3354 -0.1817
  312loPI   C3B 4991  13.942   4.828   8.626  0.3121 -0.0821 -0.1034
  312loPI   C4B 4992  13.858   4.676   8.236 -0.1810 -0.0609 -0.2727
  313loPI    C1 4993  17.742  15.497   9.804 -0.2119  0.0635 -0.1716
  313loPI    C2 4994  17.554  15.617  10.136  0.0718 -0.1064  0.0560
  313loPI    C3 4995  17.839  15.846   9.973 -0.0447 -0.0383 -0.0539
  313loPI   PO4 4996  17.609  15.470   9.626 -0.1325 -0.0120 -0.3597
  313loPI   GL1 4997  17.747  15.202   9.279  0.1725 -0.0993 -0.1214
  313loPI   GL2 4998  17.896  15.418   9.185  0.0669 -0.0307  0.0159
  313loPI   C1A 4999  17.907  14.983   8.938  0.1732 -0.0125  0.1969
  313loPI   C2A 5000  18.264  15.028   8.641 -0.0368  0.1624  0.1661
  313loPI   C3A 5001  18.333  15.131   8.240 -0.0604 -0.0866  0.3413
  313loPI   C4A 5002  18.614  15.071   7.865 -0.0187  0.0603 -0.0745
  313loPI   C5A 5003  18.990  14.983   7.688  0.1702 -0.0223 -0.0734
  313loPI   C6A 5004  19.490  14.915   7.683 -0.1422 -0.0912 -0.2395
  313loPI   C1B 5005  17.729  15.412   8.755  0.0918  0.1056 -0.0835
  313loPI   C2B 5006  17.865  15.088   8.405 -0.1377  0.1415 -0.0865
  313loPI   C3B 5007  17.821  14.922   7.950 -0.2485  0.3744 -0.2843
  313loPI   C4B 5008  17.849  14.652   7.582  0.0919  0.0126 -0.0659
  314loPI    C1 5009   7.121   2.261  10.849  0.0738 -0.0104  0.1533
  314loPI    C2 5010   7.088   2.610  11.043  0.0521  0.0812 -0.0135
  314loPI    C3 5011   7.146   2.271  11.249 -0.0950  0.1604  0.1610
  314loPI   PO4 5012   7.117   2.354  10.628 -0.1471  0.2068  0.1838
  314loPI   GL1 5013   6.984   2.378  10.203 -0.0485 -0.1223  0.0923
  314loPI   GL2 5014   7.034   2.097  10.135 -0.0487  0.0839  0.1970
  314loPI   C1A 5015   6.906   2.757   9.810 -0.0372  0.2920 -0.0200
  314loPI   C2A 5016   6.846   2.680   9.397 -0.0668 -0.3546  0.0340
  314loPI   C3A 5017   6.885   2.859   9.059 -0.0966  0.2055  0.0637
  314loPI   C4A 5018   6.819   2.988   8.708  0.3441 -0.1078 -0.1720
  314loPI   C5A 5019   6.416   3.035   8.726  0.4557 -0.0981  0.0516
  314loPI   C6A 5020   6.238   2.808   8.400 -0.2710  0.0502  0.1232
  314loPI   C1B 5021   6.952   2.286   9.718 -0.1722  0.1107  0.0902
  314loPI   C2B 5022   6.946   2.214   9.284 -0.1758  0.0791  0.1694
  314loPI   C3B 5023   6.865   2.332   8.885 -0.4371 -0.1549 -0.0934
  314loPI   C4B 5024   6.718   2.479   8.472 -0.0326 -0.3751 -0.2132
  315loPI    C1 5025   2.962   1.455  10.825 -0.1678  0.0291 -0.2072
  315loPI    C2 5026   2.714   1.287  11.091  0.1236 -0.1465 -0.0414
  315loPI    C3 5027   2.748   1.685  11.073 -0.1268 -0.1233 -0.0277
  315loPI   PO4 5028   2.993   1.185  10.609 -0.2090  0.0111  0.0965
  315loPI   GL1 5029   2.841   1.199  10.215 -0.3313 -0.1349 -0.2723
  315loPI   GL2 5030   2.927   0.957  10.019  0.0878  0.1126 -0.0546
  315loPI   C1A 5031   2.854   1.480   9.886  0.0187  0.0816 -0.0294
  315loPI   C2A 5032   2.984   1.396   9.483 -0.0041  0.2237  0.0610
  315loPI   C3A 5033   2.921   1.559   9.116 -0.2776 -0.1354  0.1125
  315loPI   C4A 5034   2.924   1.544   8.696  0.2312 -0.0887  0.0960
  315loPI   C5A 5035   2.986   1.570   8.197  0.0812  0.0208  0.1071
  315loPI   C6A 5036   3.201   1.453   7.742 -0.0449  0.0634 -0.2381
  315loPI   C1B 5037   2.994   0.912   9.613 -0.0874 -0.2264  0.1405
  315loPI   C2B 5038   3.024   0.888   9.267  0.2156  0.0251 -0.1050
  315loPI   C3B 5039   3.020   0.933   8.874  0.0131 -0.1396 -0.2255
  315loPI   C4B 5040   2.887   1.070   8.453  0.1750  0.0442 -0.3377
  316loPI    C1 5041  16.866   4.615  10.703  0.0381 -0.1190  0.0539
  316loPI    C2 5042  16.603   4.899  10.802  0.2470  0.1347 -0.1050
  316loPI    C3 5043  16.773   4.677  11.087 -0.0249  0.0693  0.0095
  316loPI   PO4 5044  16.746   4.518  10.485 -0.2488  0.1623 -0.1611
  316loPI   GL1 5045  16.829   4.710  10.146 -0.0338 -0.1602  0.0216
  316loPI   GL2 5046  16.853   4.349   9.987 -0.1066 -0.2503 -0.3564
  316loPI   C1A 5047  16.613   4.770   9.768  0.1362 -0.1633  0.1356
  316loPI   C2A 5048  16.807   4.795   9.355 -0.1762  0.1736 -0.1241
  316loPI   C3A 5049  16.764   4.725   8.905 -0.0973 -0.1450 -0.1455
  316loPI   C4A 5050  16.770   4.786   8.447  0.1122 -0.0534 -0.1790
  316loPI   C5A 5051  16.964   4.867   8.040 -0.0949 -0.0618  0.3312
  316loPI   C6A 5052  17.236   5.200   7.986 -0.1143 -0.1315 -0.0822
  316loPI   C1B 5053  16.844   4.343   9.497 -0.1604 -0.0358  0.3050
  316loPI   C2B 5054  16.812   4.246   9.132  0.4069 -0.7149  0.5214
  316loPI   C3B 5055  16.841   4.320   8.699  0.0476 -0.3035  0.3262
  316loPI   C4B 5056  16.791   4.259   8.305  0.1701  0.0294 -0.0131
  317loPI    C1 5057   3.446  11.354  10.615 -0.2286 -0.3555 -0.3886
  317loPI    C2 5058   3.825  11.229  10.615 -0.0925  0.0314  0.0363
  317loPI    C3 5059   3.573  11.104  10.900 -0.0803  0.3428  0.1882
  317loPI   PO4 5060   3.344  11.406  10.352  0.0029 -0.2277  0.1205
  317loPI   GL1 5061   3.645  11.593  10.003  0.2717  0.0065 -0.0246
  317loPI   GL2 5062   3.974  11.597  10.043  0.0611  0.3357 -0.2709
  317loPI   C1A 5063   3.686  11.316   9.582  0.0295 -0.1328  0.3689
  317loPI   C2A 5064   3.665  11.309   9.161 -0.0741  0.0993  0.1508
  317loPI   C3A 5065   3.706  11.196   8.647  0.0358  0.0177  0.2350
  317loPI   C4A 5066   3.938  10.984   8.217  0.1567 -0.0425  0.1252
  317loPI   C5A 5067   4.240  11.046   8.105 -0.1161 -0.1384 -0.4625
  317loPI   C6A 5068   4.518  11.118   7.787 -0.2790 -0.2972 -0.2536
  317loPI   C1B 5069   4.079  11.749   9.649  0.3392 -0.1990  0.0144
  317loPI   C2B 5070   4.152  11.665   9.273 -0.0265 -0.0218  0.0268
  317loPI   C3B 5071   4.115  11.608   8.843  0.3079  0.0384 -0.1051
  317loPI   C4B 5072   4.017  11.499   8.354  0.1352 -0.1898  0.1186
  318loPI    C1 5073  11.124  15.465  10.309 -0.1555 -0.1860  0.3635
  318loPI    C2 5074  11.446  15.689  10.386 -0.2245  0.0136  0.0838
  318loPI    C3 5075  11.094  15.781  10.553 -0.2431  0.0911  0.0031
  318loPI   PO4 5076  11.125  15.329  10.078  0.1317 -0.0065  0.2222
  318loPI   GL1 5077  11.012  15.245   9.750  0.1901  0.0958  0.0661
  318loPI   GL2 5078  11.102  15.367   9.483 -0.2496 -0.1224 -0.1903
  318loPI   C1A 5079  10.677  15.018   9.569  0.0525  0.2776  0.3323
  318loPI   C2A 5080  10.590  14.908   9.107  0.1248  0.0259 -0.0748
  318loPI   C3A 5081  10.537  14.766   8.696  0.0591 -0.1143 -0.0451
  318loPI   C4A 5082  10.568  14.880   8.343  0.1343 -0.0828  0.2674
  318loPI   C5A 5083  10.478  14.804   7.873  0.0548 -0.1448 -0.3244
  318loPI   C6A 5084  10.661  14.747   7.533 -0.1647  0.1065  0.0027
  318loPI   C1B 5085  10.970  15.266   9.144 -0.3985  0.4128 -0.1039
  318loPI   C2B 5086  10.892  15.114   8.689  0.1483  0.0960 -0.1029
  318loPI   C3B 5087  10.969  15.186   8.219  0.2187 -0.0827 -0.0227
  318loPI   C4B 5088  10.919  15.147   7.786 -0.0227  0.2731 -0.0743
  319loPI    C1 5089  11.242   6.352  10.736 -0.1224  0.0445  0.0552
  319loPI    C2 5090  11.064   6.349  11.094  0.1506  0.3752  0.1994
  319loPI    C3 5091  11.461   6.312  11.068  0.0933 -0.1135 -0.1035
  319loPI   PO4 5092  11.217   6.539  10.565 -0.1753 -0.0214  0.0603
  319loPI   GL1 5093  11.388   6.539  10.144  0.0201  0.2124  0.2165
  319loPI   GL2 5094  11.230   6.818  10.104  0.2805 -0.1145 -0.2047
  319loPI   C1A 5095  11.371   6.383   9.727 -0.2396 -0.0480  0.1282
  319loPI   C2A 5096  11.351   6.218   9.279  0.0855 -0.3347 -0.3264
  319loPI   C3A 5097  11.295   6.407   8.967 -0.1211 -0.2936 -0.1197
  319loPI   C4A 5098  11.322   6.414   8.572  0.1867 -0.1625  0.1183
  319loPI   C5A 5099  11.350   6.325   8.171  0.2325  0.1126 -0.1369
  319loPI   C6A 5100  11.445   6.568   7.810 -0.2723  0.0579  0.0346
  319loPI   C1B 5101  11.184   6.765   9.547 -0.3808 -0.0030 -0.1039
  319loPI   C2B 5102  11.212   6.876   8.990  0.0582 -0.0801 -0.2242
  319loPI   C3B 5103  11.218   6.938   8.590 -0.0608 -0.3336  0.1380
  319loPI   C4B 5104  11.292   6.840   8.202  0.1259  0.0382 -0.0889
  320loPI    C1 5105   3.089  12.849  10.787  0.0013  0.0750 -0.0302
  320loPI    C2 5106   2.834  12.554  10.872  0.1887 -0.1713 -0.3045
  320loPI    C3 5107   2.959  12.799  11.162 -0.2304 -0.1469 -0.1372
  320loPI   PO4 5108   2.932  13.019  10.617 -0.1722  0.3975 -0.4916
  320loPI   GL1 5109   2.826  13.090  10.167 -0.2947 -0.0217 -0.1157
  320loPI   GL2 5110   3.220  13.186  10.261  0.1269  0.0404  0.1843
  320loPI   C1A 5111   3.013  12.802   9.932 -0.1606 -0.1171 -0.0039
  320loPI   C2A 5112   3.118  12.565   9.511  0.1625  0.0455  0.1912
  320loPI   C3A 5113   3.387  12.431   9.305 -0.3584  0.2730  0.0526
  320loPI   C4A 5114   3.593  12.375   9.029 -0.1629 -0.4121  0.1870
  320loPI   C5A 5115   3.525  12.232   8.629  0.0006 -0.4184 -0.0005
  320loPI   C6A 5116   3.179  11.995   8.380 -0.0407 -0.3557 -0.0021
  320loPI   C1B 5117   3.112  13.281   9.832  0.3544  0.0011  0.1435
  320loPI   C2B 5118   3.228  13.511   9.331  0.0430 -0.1955  0.1934
  320loPI   C3B 5119   3.194  13.375   8.898 -0.0934  0.1551 -0.0538
  320loPI   C4B 5120   2.997  13.522   8.411  0.0199  0.1681  0.1646
  321loPI    C1 5121   7.586  12.825  10.590  0.2125 -0.0651  0.1200
  321loPI    C2 5122   7.408  12.786  10.946 -0.1324  0.1755 -0.0208
  321loPI    C3 5123   7.263  12.592  10.628  0.2348 -0.1191 -0.0152
  321loPI   PO4 5124   7.801  12.749  10.525 -0.1210  0.0270  0.4057
  321loPI   GL1 5125   8.086  12.557  10.162  0.1811 -0.0597  0.0114
  321loPI   GL2 5126   7.989  12.196  10.164  0.0932  0.0120  0.1353
  321loPI   C1A 5127   8.193  12.545   9.783  0.0763 -0.1023  0.2740
  321loPI   C2A 5128   8.097  12.415   9.393  0.1718 -0.0344 -0.1267
  321loPI   C3A 5129   8.131  12.508   9.011 -0.1758  0.2712 -0.1778
  321loPI   C4A 5130   8.122  12.440   8.563 -0.0359  0.0936 -0.1315
  321loPI   C5A 5131   7.819  12.360   8.206 -0.3800  0.0778 -0.2537
  321loPI   C6A 5132   7.747  12.281   7.793  0.3885  0.0282 -0.2979
  321loPI   C1B 5133   7.717  12.214   9.865 -0.3051 -0.1909  0.2233
  321loPI   C2B 5134   7.622  12.132   9.458  0.4449 -0.0698  0.0652
  321loPI   C3B 5135   7.712  12.189   9.096 -0.1525  0.0230 -0.2672
  321loPI   C4B 5136   7.654  12.129   8.643 -0.0808  0.2654 -0.0605
  322loPI    C1 5137   7.669  15.232  10.928  0.0469 -0.0549  0.0218
  322loPI    C2 5138   7.812  15.162  11.295  0.0211  0.0810  0.0582
  322loPI    C3 5139   7.854  15.524  11.129 -0.0307  0.0406 -0.0444
  322loPI   PO4 5140   7.690  15.019  10.776  0.0274 -0.2952  0.2325
  322loPI   GL1 5141   7.896  14.650  10.475  0.2883  0.3191 -0.0426
  322loPI   GL2 5142   7.618  14.732  10.369 -0.1422 -0.0567  0.1814
  322loPI   C1A 5143   7.922  14.540  10.009  0.0686  0.1355 -0.3478
  322loPI   C2A 5144   7.936  14.472   9.584  0.1133  0.1317  0.0514
  322loPI   C3A 5145   7.931  14.479   9.150 -0.0680 -0.0056 -0.1983
  322loPI   C4A 5146   7.834  14.579   8.776  0.2690 -0.0891 -0.0565
  322loPI   C5A 5147   7.784  14.607   8.322 -0.2250 -0.2848  0.2023
  322loPI   C6A 5148   7.738  14.858   7.932 -0.0944  0.0803 -0.0309
  322loPI   C1B 5149   7.504  14.689   9.823 -0.1097  0.0356 -0.3193
  322loPI   C2B 5150   7.493  14.757   9.431  0.0886  0.0370  0.1406
  322loPI   C3B 5151   7.448  14.749   8.986 -0.2102 -0.0649  0.2158
  322loPI   C4B 5152   7.358  14.822   8.570 -0.4595 -0.2281  0.2065
  323loPI    C1 5153  14.643   7.656  10.398 -0.0881 -0.0457 -0.2584
  323loPI    C2 5154  14.455   7.304  10.372 -0.2425  0.0171 -0.0240
  323loPI    C3 5155  14.603   7.426  10.723  0.1833 -0.0017 -0.1917
  323loPI   PO4 5156  14.581   7.807  10.242  0.3378  0.1113 -0.1085
  323loPI   GL1 5157  14.781   7.886   9.842  0.0145 -0.2219  0.0047
  323loPI   GL2 5158  14.424   7.939   9.796 -0.1021  0.1349  0.0821
  323loPI   C1A 5159  14.793   7.915   9.313 -0.1227 -0.2127  0.0756
  323loPI   C2A 5160  14.763   7.943   8.827  0.2196 -0.2209  0.2001
  323loPI   C3A 5161  14.750   7.825   8.392  0.0969 -0.1177  0.2029
  323loPI   C4A 5162  14.771   7.641   7.941  0.0540  0.0200 -0.2797
  323loPI   C5A 5163  14.454   7.508   7.683 -0.0996 -0.2894 -0.0229
  323loPI   C6A 5164  14.126   7.371   7.462  0.1894 -0.3378  0.0472
  323loPI   C1B 5165  14.318   8.048   9.476 -0.2453  0.0415  0.0763
  323loPI   C2B 5166  14.339   8.078   9.007 -0.0558 -0.1863 -0.1595
  323loPI   C3B 5167  14.333   8.055   8.518 -0.0300  0.2347 -0.2988
  323loPI   C4B 5168  14.376   8.049   8.016  0.1809 -0.0989  0.2360
  324loPI    C1 5169   0.058   1.005  10.577  0.2596  0.0908 -0.0093
  324loPI    C2 5170   0.297   1.324  10.547  0.3429  0.0229 -0.0712
  324loPI    C3 5171   0.254   1.138  10.899  0.0646  0.2786  0.0342
  324loPI   PO4 5172  -0.058   1.033  10.313  0.2041 -0.0262  0.3797
  324loPI   GL1 5173   0.237   1.376  10.096  0.1113 -0.1464 -0.1502
  324loPI   GL2 5174   0.483   1.434   9.969 -0.1251  0.0867 -0.0010
  324loPI   C1A 5175   0.087   1.189   9.747 -0.3099 -0.3988 -0.0636
  324loPI   C2A 5176   0.146   0.974   9.348  0.2428 -0.1579  0.3127
  324loPI   C3A 5177   0.284   0.890   8.978  0.0199  0.0680 -0.0280
  324loPI   C4A 5178   0.277   1.041   8.610  0.1136 -0.0307  0.1983
  324loPI   C5A 5179   0.294   1.096   8.137  0.1096 -0.2436 -0.1320
  324loPI   C6A 5180   0.117   0.993   7.777 -0.0085  0.0218 -0.1411
  324loPI   C1B 5181   0.518   1.400   9.535 -0.1493  0.2071  0.2956
  324loPI   C2B 5182   0.642   1.348   9.129 -0.1931 -0.0954 -0.1069
  324loPI   C3B 5183   0.670   1.373   8.691 -0.2027  0.0375  0.0163
  324loPI   C4B 5184   0.635   1.418   8.234  0.1362 -0.1299 -0.1402
  325loPI    C1 5185  10.360   2.894  10.631 -0.1325 -0.2850  0.0944
  325loPI    C2 5186  10.494   3.203  10.846 -0.0319 -0.1905 -0.1021
  325loPI    C3 5187  10.200   2.973  10.989  0.0574 -0.1506  0.1513
  325loPI   PO4 5188  10.337   2.927  10.413  0.0051 -0.1760  0.2069
  325loPI   GL1 5189  10.157   3.164  10.130 -0.3356 -0.0252  0.0861
  325loPI   GL2 5190   9.914   3.010  10.055 -0.0042  0.2319 -0.1467
  325loPI   C1A 5191  10.369   3.308   9.753  0.2851 -0.1284  0.4260
  325loPI   C2A 5192  10.354   3.337   9.311  0.3022  0.1510  0.0894
  325loPI   C3A 5193  10.424   3.212   8.856 -0.1306  0.2923 -0.3047
  325loPI   C4A 5194  10.415   3.252   8.483  0.2838  0.2457  0.3814
  325loPI   C5A 5195  10.343   3.581   8.166  0.1858 -0.1385 -0.0032
  325loPI   C6A 5196  10.207   3.741   7.845 -0.0701 -0.0516 -0.0639
  325loPI   C1B 5197   9.901   3.087   9.631  0.0282  0.2704  0.3813
  325loPI   C2B 5198   9.969   2.990   9.122  0.3163  0.0872  0.2698
  325loPI   C3B 5199  10.041   2.986   8.629 -0.3466  0.0438  0.0779
  325loPI   C4B 5200   9.899   3.065   8.245  0.1020 -0.1528  0.1055
  326loPI    C1 5201  16.646   9.897  10.608 -0.1264  0.0446 -0.0351
  326loPI    C2 5202  16.412  10.119  10.845  0.0055  0.2817 -0.1230
  326loPI    C3 5203  16.630   9.821  11.000 -0.0782  0.2921  0.0168
  326loPI   PO4 5204  16.668  10.076  10.415  0.2181  0.0797 -0.2820
  326loPI   GL1 5205  16.788  10.006  10.035  0.1752 -0.0230 -0.2640
  326loPI   GL2 5206  16.444  10.083   9.939 -0.0336  0.2956 -0.0960
  326loPI   C1A 5207  17.100  10.041   9.784 -0.2528  0.2147 -0.2748
  326loPI   C2A 5208  17.236   9.855   9.352 -0.1415 -0.2650  0.0540
  326loPI   C3A 5209  17.322   9.817   8.936 -0.2466  0.0557  0.0083
  326loPI   C4A 5210  17.431   9.748   8.478 -0.1592  0.0897 -0.3450
  326loPI   C5A 5211  17.191   9.687   8.018 -0.0355 -0.2233  0.0127
  326loPI   C6A 5212  16.744   9.535   7.899 -0.0991  0.3310 -0.0643
  326loPI   C1B 5213  16.642  10.081   9.525  0.0544  0.1538  0.0536
  326loPI   C2B 5214  16.854  10.033   9.081 -0.1116  0.1856 -0.1774
  326loPI   C3B 5215  16.773   9.957   8.687  0.2134 -0.1502 -0.2037
  326loPI   C4B 5216  16.889   9.996   8.260  0.1395 -0.1933 -0.1795
  327loPI    C1 5217   4.311  11.772  10.755 -0.0582  0.1514 -0.1750
  327loPI    C2 5218   3.964  11.613  10.876  0.1608 -0.0492  0.2110
  327loPI    C3 5219   4.153  11.879  11.107  0.2597  0.0696 -0.0034
  327loPI   PO4 5220   4.264  11.803  10.483  0.1986  0.0737  0.0122
  327loPI   GL1 5221   4.427  11.899  10.036  0.3850  0.0793 -0.1108
  327loPI   GL2 5222   4.289  12.296  10.033 -0.0036  0.2636 -0.0686
  327loPI   C1A 5223   4.528  12.046   9.652 -0.1631 -0.0182  0.0188
  327loPI   C2A 5224   4.553  11.995   9.239 -0.0569 -0.0391 -0.1021
  327loPI   C3A 5225   4.480  11.975   8.807  0.2777  0.0763 -0.0176
  327loPI   C4A 5226   4.444  11.936   8.331  0.4149 -0.1230 -0.2021
  327loPI   C5A 5227   4.202  11.798   7.979 -0.0050 -0.2640 -0.0674
  327loPI   C6A 5228   4.123  11.492   7.875 -0.0736 -0.0664  0.2237
  327loPI   C1B 5229   4.413  12.529   9.671  0.1837  0.2096  0.0289
  327loPI   C2B 5230   4.432  12.488   9.265 -0.0622 -0.3165  0.1051
  327loPI   C3B 5231   4.394  12.556   8.748  0.2561  0.3925 -0.1660
  327loPI   C4B 5232   4.457  12.610   8.276 -0.0585 -0.3610  0.0061
  328loPI    C1 5233   2.604  11.807  10.722 -0.2276  0.2324 -0.3039
  328loPI    C2 5234   2.796  12.060  10.965  0.0372 -0.1153 -0.1418
  328loPI    C3 5235   2.401  12.007  11.003 -0.0168  0.2507 -0.1624
  328loPI   PO4 5236   2.697  11.872  10.412 -0.2098  0.1234  0.1174
  328loPI   GL1 5237   2.833  11.875  10.127  0.1161 -0.3678  0.1508
  328loPI   GL2 5238   2.656  11.824   9.890  0.0312  0.1254  0.2746
  328loPI   C1A 5239   3.067  12.130   9.758 -0.1505 -0.0934 -0.5241
  328loPI   C2A 5240   3.041  12.099   9.342  0.0671 -0.2377  0.2212
  328loPI   C3A 5241   3.169  12.017   9.014  0.1548  0.1275  0.0397
  328loPI   C4A 5242   3.124  12.446   8.766 -0.0063 -0.0566  0.1155
  328loPI   C5A 5243   3.212  12.561   8.336  0.0739  0.0675  0.0202
  328loPI   C6A 5244   3.404  12.647   7.936 -0.1106  0.0316  0.0218
  328loPI   C1B 5245   2.618  11.895   9.473 -0.3356  0.2813 -0.2500
  328loPI   C2B 5246   2.688  11.884   9.067  0.1657 -0.1471 -0.1450
  328loPI   C3B 5247   2.675  12.076   8.763  0.0156  0.0365 -0.0190
  328loPI   C4B 5248   2.736  12.258   8.434  0.3157 -0.0086 -0.1770
  329loPI    C1 5249  17.057   2.328  10.323  0.1229 -0.0032 -0.0019
  329loPI    C2 5250  17.345   2.394  10.592  0.0502 -0.1587  0.1164
  329loPI    C3 5251  16.973   2.314  10.714 -0.0812  0.1961 -0.0363
  329loPI   PO4 5252  17.098   2.236  10.083  0.0432  0.2247  0.1977
  329loPI   GL1 5253  16.924   2.228   9.782  0.3438 -0.1752 -0.0493
  329loPI   GL2 5254  16.517   2.240   9.659 -0.0736  0.0734 -0.2240
  329loPI   C1A 5255  17.011   2.253   9.335  0.2262  0.0046 -0.2469
  329loPI   C2A 5256  17.051   2.210   8.832 -0.3324  0.0242 -0.1009
  329loPI   C3A 5257  17.264   2.094   8.462 -0.0447 -0.2015  0.2800
  329loPI   C4A 5258  17.251   2.072   8.041  0.0655 -0.2297 -0.0015
  329loPI   C5A 5259  17.629   1.979   7.803  0.1192 -0.1940  0.1633
  329loPI   C6A 5260  17.899   1.672   7.593  0.1025 -0.0472 -0.1617
  329loPI   C1B 5261  16.558   2.401   9.213  0.1141 -0.1257 -0.1447
  329loPI   C2B 5262  16.576   2.438   8.865  0.0005  0.2271 -0.1226
  329loPI   C3B 5263  16.694   2.320   8.425 -0.0817 -0.0027  0.0870
  329loPI   C4B 5264  16.696   2.279   8.034  0.0949  0.0278  0.0039
  330loPI    C1 5265  12.009  15.689   9.916 -0.0962 -0.2478 -0.0497
  330loPI    C2 5266  11.888  15.920  10.219 -0.0035 -0.1730 -0.0691
  330loPI    C3 5267  11.919  15.524  10.269 -0.1241 -0.1770 -0.0236
  330loPI   PO4 5268  11.913  15.744   9.632  0.0868 -0.2976  0.2353
  330loPI   GL1 5269  12.005  15.863   9.189  0.2309 -0.4708  0.2237
  330loPI   GL2 5270  11.778  15.996   8.982 -0.1870 -0.0156  0.0042
  330loPI   C1A 5271  11.921  15.475   9.046 -0.0177  0.0061 -0.0248
  330loPI   C2A 5272  11.815  15.265   8.679  0.2229  0.0351 -0.1099
  330loPI   C3A 5273  11.830  15.258   8.221 -0.2491 -0.5243  0.3127
  330loPI   C4A 5274  12.017  15.068   7.809 -0.4104  0.0368  0.0674
  330loPI   C5A 5275  12.259  15.099   7.360  0.3756  0.2334 -0.1716
  330loPI   C6A 5276  12.686  15.354   7.224 -0.0968 -0.0547 -0.2894
  330loPI   C1B 5277  11.547  16.057   8.678  0.1464  0.0390 -0.1920
  330loPI   C2B 5278  11.281  16.067   8.375  0.2993  0.0870  0.0717
  330loPI   C3B 5279  11.180  15.973   7.922  0.0067  0.0695 -0.1449
  330loPI   C4B 5280  11.373  15.985   7.628  0.2158 -0.0090  0.0975
  331loPI    C1 5281  13.207  17.358  10.061 -0.2994  0.0219 -0.0544
  331loPI    C2 5282  12.884  17.258  10.274 -0.0839  0.0088  0.2737
  331loPI    C3 5283  13.249  17.176  10.415  0.0616 -0.2264 -0.2190
  331loPI   PO4 5284  13.070  17.427   9.784 -0.0312 -0.4323  0.1066
  331loPI   GL1 5285  13.073  17.378   9.243 -0.3418 -0.0005  0.1159
  331loPI   GL2 5286  13.144  17.721   8.976 -0.1316 -0.2462 -0.1427
  331loPI   C1A 5287  13.126  17.225   8.882  0.4391 -0.1379 -0.2436
  331loPI   C2A 5288  12.996  17.178   8.516 -0.2489 -0.0906  0.0006
  331loPI   C3A 5289  12.926  17.194   8.100 -0.0239 -0.0725  0.1920
  331loPI   C4A 5290  12.788  17.302   7.731 -0.0871  0.0741  0.0006
  331loPI   C5A 5291  12.583  17.147   7.322 -0.3122 -0.1188 -0.0664
  331loPI   C6A 5292  12.185  17.196   7.063 -0.1659 -0.0686 -0.0645
  331loPI   C1B 5293  13.027  17.900   8.570  0.0596 -0.0617 -0.2165
  331loPI   C2B 5294  12.935  18.093   8.155  0.0443  0.2429 -0.1006
  331loPI   C3B 5295  13.057  17.965   7.661  0.0709 -0.0264  0.1229
  331loPI   C4B 5296  12.991  18.008   7.159  0.2044 -0.0856 -0.0942
  332loPI    C1 5297   9.085   1.848  10.802  0.1219  0.3539  0.0770
  332loPI    C2 5298   8.965   1.545  11.035 -0.2284  0.1506 -0.3524
  332loPI    C3 5299   8.997   1.914  11.187  0.0596 -0.0673  0.1398
  332loPI   PO4 5300   9.066   1.760  10.526 -0.3230  0.0218 -0.1991
  332loPI   GL1 5301   9.057   1.580  10.211  0.1304  0.2708  0.3841
  332loPI   GL2 5302   9.296   1.375  10.268 -0.1273 -0.2911  0.3761
  332loPI   C1A 5303   9.111   1.507   9.752  0.0525  0.0789 -0.0228
  332loPI   C2A 5304   8.932   1.442   9.374 -0.1552  0.0269 -0.1126
  332loPI   C3A 5305   8.850   1.431   8.912  0.1828 -0.1117 -0.1141
  332loPI   C4A 5306   8.802   1.428   8.571  0.0241 -0.3971  0.0772
  332loPI   C5A 5307   8.750   1.578   8.192 -0.0021  0.1263  0.2175
  332loPI   C6A 5308   8.763   1.989   7.916  0.1202  0.1414 -0.0316
  332loPI   C1B 5309   9.557   1.180   9.994  0.2219 -0.2484  0.2677
  332loPI   C2B 5310   9.500   1.219   9.582  0.1845  0.0172 -0.1705
  332loPI   C3B 5311   9.315   1.265   9.104  0.2936  0.0111  0.0123
  332loPI   C4B 5312   9.340   1.371   8.766  0.0426 -0.1480  0.1030
  333loPI    C1 5313  12.948   3.172  10.339  0.1157 -0.0106 -0.0677
  333loPI    C2 5314  13.049   3.314  10.699  0.1366 -0.0561 -0.0556
  333loPI    C3 5315  13.324   3.291  10.410  0.0997  0.0601 -0.1004
  333loPI   PO4 5316  12.785   2.910  10.359 -0.0092 -0.2957  0.1780
  333loPI   GL1 5317  12.874   2.976   9.879 -0.1689  0.2618  0.0200
  333loPI   GL2 5318  13.129   2.766   9.634  0.2513  0.1914  0.1260
  333loPI   C1A 5319  12.759   2.889   9.431  0.2208 -0.3126 -0.1118
  333loPI   C2A 5320  12.917   2.963   9.105 -0.0657  0.0466  0.0704
  333loPI   C3A 5321  12.802   2.865   8.699  0.2422 -0.1719 -0.0957
  333loPI   C4A 5322  12.665   2.843   8.263 -0.4045 -0.3490  0.0136
  333loPI   C5A 5323  12.684   2.935   7.876 -0.0669  0.0928  0.4345
  333loPI   C6A 5324  12.666   3.235   7.568  0.1671  0.2356  0.0357
  333loPI   C1B 5325  13.346   3.035   9.269 -0.2082 -0.2246 -0.1009
  333loPI   C2B 5326  13.273   3.140   8.811  0.0671  0.2542  0.1076
  333loPI   C3B 5327  13.236   3.167   8.400  0.0008 -0.2214  0.1363
  333loPI   C4B 5328  13.062   3.218   7.992  0.2169 -0.1011 -0.0987
  334loPI    C1 5329  13.679  13.611   9.913  0.0698  0.0219 -0.0011
  334loPI    C2 5330  13.390  13.625  10.188 -0.0534  0.0927 -0.1326
  334loPI    C3 5331  13.749  13.781  10.268  0.0898 -0.3793  0.1932
  334loPI   PO4 5332  13.517  13.536   9.752  0.2039  0.2513  0.3840
  334loPI   GL1 5333  13.275  13.700   9.428 -0.3208  0.1992 -0.0704
  334loPI   GL2 5334  13.246  13.987   9.256  0.0518 -0.0001 -0.0318
  334loPI   C1A 5335  12.954  13.662   9.074  0.3962  0.0961 -0.0038
  334loPI   C2A 5336  12.881  13.688   8.587  0.3598 -0.2014 -0.2612
  334loPI   C3A 5337  12.842  13.744   8.279 -0.4811 -0.0749  0.0126
  334loPI   C4A 5338  12.785  13.834   7.893 -0.1292  0.2668  0.1028
  334loPI   C5A 5339  12.723  13.618   7.467 -0.3781 -0.2638 -0.2079
  334loPI   C6A 5340  12.546  13.244   7.362 -0.1147  0.1575  0.3735
  334loPI   C1B 5341  13.222  14.083   8.812  0.0632 -0.0466 -0.1045
  334loPI   C2B 5342  13.269  14.097   8.440  0.3218  0.1390 -0.1405
  334loPI   C3B 5343  13.247  13.998   8.046  0.1183 -0.0791  0.0676
  334loPI   C4B 5344  13.169  13.913   7.549 -0.3725  0.1855  0.2028
  335loPI    C1 5345  12.232  17.332   9.785 -0.1883 -0.0194  0.0460
  335loPI    C2 5346  11.884  17.518   9.847 -0.0659  0.1303  0.3034
  335loPI    C3 5347  12.056  17.315  10.144  0.0913  0.0986  0.1916
  335loPI   PO4 5348  12.145  17.159   9.611 -0.3208  0.2722  0.0025
  335loPI   GL1 5349  11.702  17.376   9.385 -0.3907 -0.1941 -0.1106
  335loPI   GL2 5350  11.736  17.010   9.306  0.1246  0.0800 -0.3182
  335loPI   C1A 5351  11.599  17.431   8.949  0.0560 -0.3540  0.3351
  335loPI   C2A 5352  11.636  17.363   8.487  0.1768  0.0674  0.1665
  335loPI   C3A 5353  11.648  17.310   8.071 -0.2702  0.1446 -0.1923
  335loPI   C4A 5354  11.734  17.244   7.735 -0.0161 -0.0535  0.0620
  335loPI   C5A 5355  11.663  17.191   7.388 -0.2097  0.1097  0.0240
  335loPI   C6A 5356  11.380  16.875   7.385  0.0482 -0.0411  0.3106
  335loPI   C1B 5357  11.742  16.965   8.825 -0.0219  0.0034 -0.2547
  335loPI   C2B 5358  11.652  16.859   8.347 -0.3491 -0.0344  0.0696
  335loPI   C3B 5359  11.497  16.683   7.938 -0.0901  0.1577 -0.3542
  335loPI   C4B 5360  11.599  16.466   7.506 -0.1222 -0.1766  0.0775
  336loPI    C1 5361  10.902   1.272  10.522  0.0043 -0.3055 -0.1246
  336loPI    C2 5362  10.867   1.035  10.842  0.0996  0.0316  0.1418
  336loPI    C3 5363  11.230   1.127  10.700  0.0581 -0.1042 -0.0570
  336loPI   PO4 5364  10.809   1.179  10.252 -0.2922 -0.2277 -0.0518
  336loPI   GL1 5365  10.525   1.178   9.909 -0.3551  0.0131  0.1817
  336loPI   GL2 5366  10.380   0.882  10.007 -0.2702  0.0015  0.1016
  336loPI   C1A 5367  10.364   1.377   9.581 -0.1510  0.3157  0.0308
  336loPI   C2A 5368  10.271   1.322   9.183  0.1865  0.0317  0.0087
  336loPI   C3A 5369  10.279   1.519   8.775  0.0948  0.1734 -0.0830
  336loPI   C4A 5370  10.173   1.493   8.353 -0.2691 -0.0636 -0.1509
  336loPI   C5A 5371  10.384   1.417   7.985  0.0658 -0.0297  0.3305
  336loPI   C6A 5372  10.385   0.989   7.769  0.0225 -0.0348 -0.1689
  336loPI   C1B 5373  10.436   0.878   9.560 -0.1875  0.1134 -0.1081
  336loPI   C2B 5374  10.574   0.644   9.236 -0.2320 -0.1556  0.1160
  336loPI   C3B 5375  10.400   0.830   8.881 -0.0090 -0.0370 -0.1655
  336loPI   C4B 5376  10.243   1.050   8.500  0.0398  0.2544 -0.2731
  337loPI    C1 5377  12.938   1.964  10.235 -0.0166 -0.0652  0.0192
  337loPI    C2 5378  13.165   1.896  10.558  0.0345  0.2954  0.0636
  337loPI    C3 5379  12.802   1.731  10.530  0.0707  0.1802  0.2583
  337loPI   PO4 5380  12.987   1.975  10.090  0.0261 -0.0406 -0.2383
  337loPI   GL1 5381  13.017   1.764   9.661 -0.0670 -0.0736  0.0200
  337loPI   GL2 5382  12.841   1.523   9.598 -0.1346 -0.2115 -0.0428
  337loPI   C1A 5383  13.052   1.800   9.232  0.0149  0.2985 -0.0630
  337loPI   C2A 5384  12.980   1.782   8.793  0.0223 -0.2689  0.0195
  337loPI   C3A 5385  12.946   1.867   8.382 -0.2561 -0.0617 -0.1706
  337loPI   C4A 5386  12.892   1.918   7.999 -0.1784 -0.2392 -0.4168
  337loPI   C5A 5387  12.643   2.015   7.655  0.3603  0.2441 -0.3415
  337loPI   C6A 5388  12.322   2.203   7.623 -0.1753  0.1636 -0.2904
  337loPI   C1B 5389  12.619   1.443   9.247  0.2427 -0.1166  0.0123
  337loPI   C2B 5390  12.573   1.495   8.788 -0.1082 -0.0398 -0.1297
  337loPI   C3B 5391  12.565   1.436   8.340  0.1861 -0.0181 -0.0196
  337loPI   C4B 5392  12.412   1.655   8.028  0.0249  0.0774  0.1127
  338loPI    C1 5393  11.654   9.054  10.305 -0.1136 -0.2169  0.0684
  338loPI    C2 5394  11.509   8.859  10.623 -0.2962 -0.0438  0.0925
  338loPI    C3 5395  11.661   9.227  10.666  0.0236 -0.1674  0.0429
  338loPI   PO4 5396  11.516   8.961  10.151 -0.3024 -0.2372  0.1558
  338loPI   GL1 5397  11.535   8.857   9.817 -0.2322 -0.1189 -0.1783
  338loPI   GL2 5398  11.799   8.800   9.771 -0.1361  0.2387  0.0321
  338loPI   C1A 5399  11.548   8.694   9.327  0.1901  0.1850  0.1067
  338loPI   C2A 5400  11.400   8.833   8.929 -0.0307  0.0320  0.2505
  338loPI   C3A 5401  11.458   8.727   8.595 -0.1146  0.0543 -0.4299
  338loPI   C4A 5402  11.284   8.615   8.252 -0.0692 -0.0452  0.0488
  338loPI   C5A 5403  10.894   8.530   8.052 -0.2315 -0.0301 -0.4953
  338loPI   C6A 5404  10.539   8.450   8.019  0.2351  0.3262  0.3549
  338loPI   C1B 5405  12.026   8.592   9.517  0.1890 -0.1706 -0.1851
  338loPI   C2B 5406  11.969   8.529   9.072 -0.0662  0.0916  0.0989
  338loPI   C3B 5407  11.947   8.517   8.674  0.0971  0.2240 -0.1157
  338loPI   C4B 5408  11.784   8.563   8.254  0.5596 -0.1599 -0.3115
  339loPI    C1 5409   1.948  11.427  10.463 -0.0725 -0.0809 -0.0356
  339loPI    C2 5410   2.127  11.165  10.220  0.2289  0.1075 -0.0212
  339loPI    C3 5411   2.112  11.095  10.613 -0.1372 -0.1300 -0.0729
  339loPI   PO4 5412   1.827  11.546  10.295  0.2493  0.1322 -0.1472
  339loPI   GL1 5413   1.521  11.581   9.991 -0.0706  0.0016  0.0818
  339loPI   GL2 5414   1.474  11.867   9.825  0.0441 -0.3099  0.2456
  339loPI   C1A 5415   1.441  11.438   9.559 -0.0803 -0.1477 -0.0238
  339loPI   C2A 5416   1.342  11.285   9.126 -0.1101 -0.1076  0.0493
  339loPI   C3A 5417   1.451  11.295   8.678 -0.2803  0.2596  0.0657
  339loPI   C4A 5418   1.507  11.067   8.238  0.1337 -0.4985  0.0998
  339loPI   C5A 5419   1.165  11.058   7.931  0.2253 -0.1981  0.1678
  339loPI   C6A 5420   0.820  10.717   7.875 -0.2580 -0.1153  0.1508
  339loPI   C1B 5421   1.313  11.984   9.468  0.0697  0.0076  0.0442
  339loPI   C2B 5422   1.286  11.800   9.124 -0.1006  0.0274  0.1249
  339loPI   C3B 5423   1.125  11.666   8.731  0.1861 -0.0069 -0.0165
  339loPI   C4B 5424   1.015  11.238   8.462  0.1963 -0.2702 -0.0784
  340loPI    C1 5425   4.436   9.263  10.791  0.0424  0.0517 -0.3807
  340loPI    C2 5426   4.545   9.639  10.873 -0.1973  0.0793 -0.1782
  340loPI    C3 5427   4.277   9.453  11.104 -0.2160 -0.1545 -0.3837
  340loPI   PO4 5428   4.416   9.272  10.513 -0.0798 -0.0328 -0.0252
  340loPI   GL1 5429   4.360   9.203  10.163  0.0744 -0.1386  0.0289
  340loPI   GL2 5430   4.028   9.057  10.003  0.0752  0.0827  0.2263
  340loPI   C1A 5431   4.487   9.016   9.824  0.2652 -0.0741 -0.0872
  340loPI   C2A 5432   4.491   8.927   9.404  0.2468 -0.2349 -0.1518
  340loPI   C3A 5433   4.568   8.891   9.071 -0.4600  0.1766 -0.0233
  340loPI   C4A 5434   4.670   8.896   8.646 -0.0436 -0.1179 -0.0676
  340loPI   C5A 5435   4.415   8.902   8.242  0.0493 -0.0102 -0.0219
  340loPI   C6A 5436   4.562   8.926   7.788  0.1766 -0.0796  0.0391
  340loPI   C1B 5437   3.667   8.914   9.664 -0.1122 -0.2398  0.0692
  340loPI   C2B 5438   3.571   8.871   9.285  0.0985  0.1289 -0.0785
  340loPI   C3B 5439   3.686   8.847   8.877 -0.2038  0.0235  0.0250
  340loPI   C4B 5440   3.581   8.722   8.486 -0.2800  0.2518 -0.0203
  341loPI    C1 5441  12.032   7.678  10.835  0.0996 -0.2397 -0.1071
  341loPI    C2 5442  12.052   7.654  11.234 -0.2466  0.0637 -0.0665
  341loPI    C3 5443  12.182   7.350  11.009  0.2675  0.0274  0.2637
  341loPI   PO4 5444  12.181   7.918  10.675  0.0394 -0.1681  0.2044
  341loPI   GL1 5445  12.290   7.779  10.259 -0.2567  0.0391 -0.1221
  341loPI   GL2 5446  12.004   7.793  10.128 -0.2612  0.1581  0.1407
  341loPI   C1A 5447  12.536   7.890   9.992 -0.2421 -0.0264  0.0726
  341loPI   C2A 5448  12.499   7.868   9.537  0.1967  0.0690 -0.0745
  341loPI   C3A 5449  12.518   7.836   9.140 -0.0374  0.0659 -0.0481
  341loPI   C4A 5450  12.535   7.781   8.699 -0.3802 -0.4420 -0.0916
  341loPI   C5A 5451  12.740   7.689   8.204  0.4674  0.1611 -0.0604
  341loPI   C6A 5452  12.943   7.728   7.886  0.1160 -0.2139  0.0697
  341loPI   C1B 5453  11.972   7.594   9.682  0.3204  0.0819  0.1654
  341loPI   C2B 5454  11.971   7.575   9.261  0.1618  0.2643 -0.4440
  341loPI   C3B 5455  12.156   7.478   8.859 -0.0711 -0.0241 -0.2848
  341loPI   C4B 5456  12.275   7.517   8.369  0.4295  0.1149  0.0209
  342loPI    C1 5457   4.435   0.186  10.910 -0.0664  0.0567  0.0780
  342loPI    C2 5458   4.326  -0.080  11.188  0.0682 -0.0034  0.0740
  342loPI    C3 5459   4.674   0.114  11.222  0.0010  0.1247  0.0423
  342loPI   PO4 5460   4.299   0.019  10.719 -0.1879 -0.1334 -0.1437
  342loPI   GL1 5461   4.173   0.119  10.196  0.1213  0.0170 -0.2153
  342loPI   GL2 5462   3.997  -0.138  10.200  0.1892  0.3763  0.2551
  342loPI   C1A 5463   4.511   0.359   9.912 -0.0977 -0.0461  0.1180
  342loPI   C2A 5464   4.450   0.391   9.576  0.2651  0.1555 -0.1014
  342loPI   C3A 5465   4.469   0.444   9.139  0.1430  0.0461 -0.0723
  342loPI   C4A 5466   4.576   0.549   8.642  0.0101 -0.3717 -0.0636
  342loPI   C5A 5467   4.483   0.642   8.183 -0.0405 -0.0818 -0.1726
  342loPI   C6A 5468   4.553   0.735   7.698 -0.1204  0.1511  0.1095
  342loPI   C1B 5469   4.067   0.026   9.730 -0.0111  0.3582  0.0809
  342loPI   C2B 5470   4.021   0.090   9.325 -0.1444  0.0621  0.2611
  342loPI   C3B 5471   4.152   0.184   8.839 -0.4445 -0.2261  0.0037
  342loPI   C4B 5472   4.234   0.197   8.304 -0.0045  0.2800 -0.1278
  343loPI    C1 5473   2.203   4.663  10.889 -0.1346 -0.1230 -0.0104
  343loPI    C2 5474   2.149   4.546  11.267  0.0716  0.3050  0.1586
  343loPI    C3 5475   1.932   4.847  11.118 -0.0795  0.0727 -0.0997
  343loPI   PO4 5476   2.117   4.514  10.726  0.2842  0.1604  0.0081
  343loPI   GL1 5477   2.368   4.516  10.365  0.2379 -0.0908 -0.2113
  343loPI   GL2 5478   2.401   4.228  10.241  0.0775 -0.3369 -0.0302
  343loPI   C1A 5479   2.527   4.644  10.029 -0.1066  0.0519 -0.0206
  343loPI   C2A 5480   2.388   4.604   9.650  0.3820 -0.1215 -0.3151
  343loPI   C3A 5481   2.400   4.620   9.263 -0.4106 -0.3586  0.3661
  343loPI   C4A 5482   2.367   4.621   8.866 -0.1508  0.1002 -0.2624
  343loPI   C5A 5483   2.447   4.518   8.417  0.0455 -0.0823 -0.0190
  343loPI   C6A 5484   2.510   4.661   8.007  0.0027 -0.0823 -0.0149
  343loPI   C1B 5485   2.433   4.053   9.866  0.2597  0.0664  0.0915
  343loPI   C2B 5486   2.547   4.038   9.432 -0.3115 -0.0962  0.0626
  343loPI   C3B 5487   2.444   3.995   9.031  0.1450  0.3276  0.2548
  343loPI   C4B 5488   2.556   4.048   8.614  0.5796  0.1952  0.1115
  344loPI    C1 5489   6.001   9.052  11.177 -0.0220 -0.1618  0.0657
  344loPI    C2 5490   5.963   8.848  11.519 -0.2696  0.1280  0.2161
  344loPI    C3 5491   5.674   9.099  11.403 -0.1948  0.0220 -0.2161
  344loPI   PO4 5492   6.079   8.823  10.909  0.3456  0.0325  0.0697
  344loPI   GL1 5493   6.249   8.819  10.531 -0.0499 -0.1513 -0.1613
  344loPI   GL2 5494   5.960   8.985  10.363 -0.3731  0.0588 -0.1011
  344loPI   C1A 5495   6.392   8.754  10.053 -0.0302  0.0858  0.0511
  344loPI   C2A 5496   6.361   8.829   9.608 -0.0997  0.0622  0.1379
  344loPI   C3A 5497   6.343   8.794   9.238 -0.2066  0.2540  0.1126
  344loPI   C4A 5498   6.457   8.758   8.800  0.1368  0.2087  0.0354
  344loPI   C5A 5499   6.411   8.752   8.350  0.0981  0.0501  0.3182
  344loPI   C6A 5500   6.597   8.536   8.048 -0.0021  0.0359 -0.0489
  344loPI   C1B 5501   5.918   9.008   9.918  0.1007  0.1681 -0.1981
  344loPI   C2B 5502   5.838   8.913   9.463 -0.0171 -0.2481 -0.2094
  344loPI   C3B 5503   5.961   9.032   9.064  0.0798  0.1585  0.1280
  344loPI   C4B 5504   6.002   9.039   8.674  0.1962  0.0221  0.1764
  345loPI    C1 5505  15.802  12.514   9.649 -0.0070 -0.1127 -0.1925
  345loPI    C2 5506  16.162  12.636   9.773 -0.0474  0.0298 -0.2125
  345loPI    C3 5507  16.080  12.245   9.749  0.0181 -0.0014  0.0425
  345loPI   PO4 5508  15.741  12.669   9.440 -0.1395 -0.1605  0.3002
  345loPI   GL1 5509  15.771  12.842   9.095 -0.1550  0.1428 -0.1435
  345loPI   GL2 5510  15.517  13.023   9.171 -0.0848  0.0580  0.0876
  345loPI   C1A 5511  16.033  12.672   8.718 -0.0659 -0.1353 -0.3095
  345loPI   C2A 5512  16.224  12.746   8.326 -0.0708  0.3578  0.1236
  345loPI   C3A 5513  16.296  12.526   7.963 -0.1087 -0.2925  0.0744
  345loPI   C4A 5514  16.482  12.291   7.686  0.2167 -0.0356 -0.0941
  345loPI   C5A 5515  16.805  12.547   7.390 -0.2125 -0.3167  0.0622
  345loPI   C6A 5516  16.813  12.796   6.931 -0.2116 -0.0284 -0.0383
  345loPI   C1B 5517  15.393  13.148   8.920 -0.1597 -0.1251  0.5642
  345loPI   C2B 5518  15.347  13.172   8.375  0.0193  0.0435 -0.0693
  345loPI   C3B 5519  15.463  12.995   7.944  0.0630  0.0185 -0.3853
  345loPI   C4B 5520  15.393  13.051   7.660  0.0999  0.1984  0.0420
  346loPI    C1 5521  11.757   2.979  10.306  0.1512  0.1857  0.0633
  346loPI    C2 5522  11.513   2.698  10.159  0.2033  0.2332 -0.1169
  346loPI    C3 5523  11.360   3.025  10.332  0.1401  0.2217 -0.1505
  346loPI   PO4 5524  11.981   2.991  10.126 -0.4131  0.0341  0.2729
  346loPI   GL1 5525  12.081   3.172   9.770 -0.2901  0.0007  0.0534
  346loPI   GL2 5526  12.243   3.496   9.875 -0.1037  0.0955  0.0880
  346loPI   C1A 5527  12.270   2.947   9.469 -0.0071 -0.0374 -0.0529
  346loPI   C2A 5528  12.286   3.072   9.076 -0.0968  0.0684 -0.0982
  346loPI   C3A 5529  12.231   3.086   8.653  0.0286  0.3230  0.2480
  346loPI   C4A 5530  12.197   3.140   8.177  0.3268 -0.0409 -0.2779
  346loPI   C5A 5531  12.236   3.329   7.789  0.1275  0.0418 -0.1682
  346loPI   C6A 5532  12.091   3.127   7.423  0.1175  0.1856  0.4049
  346loPI   C1B 5533  12.202   3.616   9.392 -0.3382  0.0909 -0.0094
  346loPI   C2B 5534  12.254   3.634   8.965  0.2421 -0.2277  0.0826
  346loPI   C3B 5535  12.240   3.564   8.572  0.1116 -0.1290  0.2712
  346loPI   C4B 5536  12.198   3.680   8.231  0.2315 -0.2095 -0.1351
  347loPI    C1 5537   6.417   0.344  11.029  0.0551 -0.0257 -0.0674
  347loPI    C2 5538   6.487   0.046  11.286  0.2043  0.0946  0.0337
  347loPI    C3 5539   6.318   0.385  11.415  0.2370  0.1376 -0.0362
  347loPI   PO4 5540   6.348   0.244  10.825 -0.1361  0.0909 -0.4218
  347loPI   GL1 5541   6.697   0.156  10.374  0.2115 -0.0120 -0.2831
  347loPI   GL2 5542   6.403   0.031  10.377  0.1157 -0.1947  0.2118
  347loPI   C1A 5543   6.836   0.258   9.879 -0.0908 -0.5740 -0.2548
  347loPI   C2A 5544   6.911   0.365   9.508 -0.1975 -0.0282 -0.1848
  347loPI   C3A 5545   6.800   0.382   9.126 -0.2060  0.0695  0.2147
  347loPI   C4A 5546   6.802   0.435   8.790 -0.1360 -0.0670 -0.0084
  347loPI   C5A 5547   7.094   0.444   8.436 -0.0954 -0.0655  0.0637
  347loPI   C6A 5548   7.582   0.134   8.200 -0.1156  0.0476 -0.4207
  347loPI   C1B 5549   6.396  -0.094  10.095 -0.1497 -0.1388 -0.2324
  347loPI   C2B 5550   6.394  -0.022   9.632  0.0312 -0.3878 -0.2403
  347loPI   C3B 5551   6.370   0.078   9.241 -0.3087  0.0664  0.0956
  347loPI   C4B 5552   6.334   0.125   8.765  0.0937 -0.0763  0.1135
  348loPI    C1 5553   5.932   7.396  10.753  0.1834  0.2038 -0.1056
  348loPI    C2 5554   6.098   7.582  11.066  0.2555 -0.1070  0.0445
  348loPI    C3 5555   6.329   7.392  10.801  0.1567 -0.3767  0.1481
  348loPI   PO4 5556   5.741   7.319  10.851 -0.0700  0.3459  0.3795
  348loPI   GL1 5557   5.475   7.324  10.572 -0.1046 -0.1407  0.0626
  348loPI   GL2 5558   5.227   7.246  10.438 -0.1636 -0.1733 -0.0724
  348loPI   C1A 5559   5.720   7.148  10.226 -0.3686 -0.1902  0.2262
  348loPI   C2A 5560   5.766   7.104   9.844 -0.0537 -0.0571  0.2025
  348loPI   C3A 5561   5.663   7.028   9.491  0.2788 -0.1064 -0.0177
  348loPI   C4A 5562   5.763   7.015   9.147 -0.1555  0.0417 -0.2347
  348loPI   C5A 5563   5.760   7.050   8.778  0.0176 -0.0083  0.1849
  348loPI   C6A 5564   5.754   7.272   8.291 -0.3214  0.0593 -0.0263
  348loPI   C1B 5565   5.287   7.251  10.032  0.0561  0.0248 -0.1331
  348loPI   C2B 5566   5.252   7.214   9.670 -0.0369  0.0252 -0.1166
  348loPI   C3B 5567   5.269   7.218   9.259 -0.0878  0.1031 -0.0510
  348loPI   C4B 5568   5.259   7.301   8.831  0.0887 -0.3730 -0.0451
  349loPI    C1 5569  14.811   6.733  10.554 -0.0852  0.0051  0.0080
  349loPI    C2 5570  15.121   6.707  10.805 -0.1758  0.0370  0.1242
  349loPI    C3 5571  14.887   7.032  10.809 -0.1162  0.0837 -0.0741
  349loPI   PO4 5572  14.865   6.644  10.371 -0.1324  0.1574 -0.1046
  349loPI   GL1 5573  14.861   6.900   9.922 -0.2055  0.0861  0.1094
  349loPI   GL2 5574  14.720   6.553   9.893  0.1279 -0.0381  0.0693
  349loPI   C1A 5575  15.006   6.867   9.488 -0.3309  0.2125  0.0597
  349loPI   C2A 5576  15.018   6.816   8.966 -0.0094  0.1050 -0.0302
  349loPI   C3A 5577  14.958   6.848   8.554  0.0161 -0.3608 -0.1102
  349loPI   C4A 5578  15.090   6.858   8.136 -0.1647 -0.0044 -0.1072
  349loPI   C5A 5579  15.326   6.792   7.799 -0.1970 -0.0943  0.2560
  349loPI   C6A 5580  15.753   6.668   7.604 -0.3384 -0.3209  0.3417
  349loPI   C1B 5581  14.634   6.499   9.451 -0.1158  0.0354 -0.0530
  349loPI   C2B 5582  14.663   6.510   8.990 -0.0178 -0.3386  0.2459
  349loPI   C3B 5583  14.456   6.444   8.665 -0.1619 -0.1290 -0.1754
  349loPI   C4B 5584  14.490   6.384   8.204 -0.0844 -0.1873  0.0922
  350loPI    C1 5585   1.686   4.343  10.520 -0.2800  0.3143 -0.0260
  350loPI    C2 5586   1.614   4.083  10.815 -0.2137  0.1385 -0.1620
  350loPI    C3 5587   1.615   4.476  10.890  0.2192  0.0833  0.1627
  350loPI   PO4 5588   1.856   4.232  10.398  0.2226 -0.1001 -0.0552
  350loPI   GL1 5589   2.014   4.437  10.038 -0.2735 -0.1942  0.2106
  350loPI   GL2 5590   2.034   4.797   9.974 -0.0086  0.0479 -0.1054
  350loPI   C1A 5591   2.040   4.273   9.562 -0.0860 -0.0073 -0.1983
  350loPI   C2A 5592   2.002   4.247   9.077  0.0679 -0.0398 -0.1127
  350loPI   C3A 5593   2.044   4.246   8.622 -0.2915 -0.0699 -0.0007
  350loPI   C4A 5594   1.966   4.283   8.156 -0.1901  0.1813  0.0462
  350loPI   C5A 5595   1.559   4.396   8.122  0.0654 -0.0253  0.0156
  350loPI   C6A 5596   1.285   4.749   8.126 -0.1043 -0.2158 -0.1744
  350loPI   C1B 5597   1.872   4.807   9.586  0.1188 -0.1414  0.0492
  350loPI   C2B 5598   1.944   4.765   9.254  0.0012 -0.0194 -0.0124
  350loPI   C3B 5599   1.924   4.859   8.895  0.0294  0.2698 -0.1835
  350loPI   C4B 5600   1.943   4.712   8.438 -0.1042  0.2559  0.0197
  351loPI    C1 5601  10.426  12.122  10.663  0.2828 -0.0540 -0.0710
  351loPI    C2 5602  10.233  12.385  10.893  0.1479 -0.1443 -0.0796
  351loPI    C3 5603  10.579  12.228  11.017  0.0497 -0.2328  0.0869
  351loPI   PO4 5604  10.412  12.210  10.412  0.0242 -0.2736 -0.1164
  351loPI   GL1 5605  10.352  11.962  10.093  0.1908 -0.1586 -0.1211
  351loPI   GL2 5606  10.045  11.754   9.848  0.0271  0.1596  0.2011
  351loPI   C1A 5607  10.459  12.009   9.677  0.1463 -0.2225  0.0550
  351loPI   C2A 5608  10.463  12.061   9.327 -0.0236  0.3596 -0.1642
  351loPI   C3A 5609  10.418  12.106   8.921  0.0011 -0.1969  0.2243
  351loPI   C4A 5610  10.368  12.314   8.634  0.0615  0.0756  0.1947
  351loPI   C5A 5611  10.701  12.238   8.458  0.0985  0.2290 -0.0088
  351loPI   C6A 5612  10.832  12.303   7.956 -0.4866  0.0355  0.1502
  351loPI   C1B 5613  10.015  11.698   9.417 -0.1124  0.0900  0.1714
  351loPI   C2B 5614  10.073  11.723   9.075  0.0423  0.0650 -0.1994
  351loPI   C3B 5615  10.072  11.638   8.687 -0.0276 -0.1089  0.2201
  351loPI   C4B 5616  10.028  11.528   8.251  0.2435 -0.2340  0.4246
  352loPI    C1 5617   2.766  17.773  11.001 -0.1346 -0.2141  0.0070
  352loPI    C2 5618   2.940  17.424  10.910  0.2022 -0.0832  0.1338
  352loPI    C3 5619   2.938  17.554  11.288  0.1083  0.0687  0.0819
  352loPI   PO4 5620   2.769  17.872  10.764  0.1082 -0.4575 -0.0187
  352loPI   GL1 5621   2.634  17.872  10.347 -0.0103 -0.3073  0.4425
  352loPI   GL2 5622   2.323  17.647  10.256 -0.0314 -0.1264 -0.1294
  352loPI   C1A 5623   2.825  17.610   9.955 -0.1077  0.3315 -0.4385
  352loPI   C2A 5624   2.881  17.538   9.540 -0.1038 -0.1270  0.0368
  352loPI   C3A 5625   2.871  17.565   9.073 -0.2572  0.1628 -0.2234
  352loPI   C4A 5626   2.898  17.514   8.705  0.2088 -0.2700 -0.1911
  352loPI   C5A 5627   2.993  17.628   8.307 -0.0979 -0.2795  0.0427
  352loPI   C6A 5628   2.728  17.371   8.021 -0.0978  0.0298 -0.0250
  352loPI   C1B 5629   2.318  17.755   9.788  0.3208 -0.1061  0.0834
  352loPI   C2B 5630   2.403  17.668   9.289  0.1013 -0.1957 -0.1588
  352loPI   C3B 5631   2.354  17.735   8.858 -0.0646 -0.1321  0.1316
  352loPI   C4B 5632   2.543  17.751   8.463  0.5151  0.1612  0.3338
  353loPI    C1 5633   3.284  14.003  10.528 -0.0554  0.1179 -0.0041
  353loPI    C2 5634   3.123  13.640  10.475  0.2677 -0.0094 -0.1372
  353loPI    C3 5635   3.161  13.790  10.844 -0.1270  0.0137 -0.1015
  353loPI   PO4 5636   3.435  14.015  10.404 -0.2397  0.3436  0.3124
  353loPI   GL1 5637   3.543  14.199  10.048  0.1897  0.1867 -0.1353
  353loPI   GL2 5638   3.388  14.329   9.809  0.1500 -0.1985 -0.1605
  353loPI   C1A 5639   3.831  14.354   9.677  0.0730 -0.3460 -0.1313
  353loPI   C2A 5640   4.025  14.568   9.310 -0.1009 -0.1015  0.0899
  353loPI   C3A 5641   4.234  14.533   8.887  0.1329  0.2926  0.3824
  353loPI   C4A 5642   4.213  14.636   8.403 -0.3766 -0.0417 -0.1481
  353loPI   C5A 5643   4.497  14.453   8.085 -0.3258 -0.2980  0.1862
  353loPI   C6A 5644   4.583  14.453   7.730  0.2055 -0.0889 -0.2543
  353loPI   C1B 5645   3.407  14.298   9.391  0.1903  0.0723  0.1105
  353loPI   C2B 5646   3.485  14.333   9.056 -0.0149 -0.2127 -0.3219
  353loPI   C3B 5647   3.474  14.268   8.591 -0.0003  0.1396  0.1477
  353loPI   C4B 5648   3.483  13.956   8.294 -0.0018  0.5622  0.1021
  354loPI    C1 5649   5.694   3.709  11.324 -0.0748 -0.1630  0.1987
  354loPI    C2 5650   5.884   3.592  10.992  0.0870  0.0860  0.2011
  354loPI    C3 5651   5.985   3.436  11.346  0.0347 -0.0512  0.1559
  354loPI   PO4 5652   5.564   3.945  11.185 -0.1473 -0.0698 -0.3678
  354loPI   GL1 5653   5.435   4.010  10.802 -0.4026  0.2357  0.3994
  354loPI   GL2 5654   5.623   4.201  10.785 -0.0522  0.0051  0.0209
  354loPI   C1A 5655   5.619   3.845  10.425  0.3434 -0.2829 -0.0434
  354loPI   C2A 5656   5.795   3.849  10.061 -0.1065  0.0477  0.0011
  354loPI   C3A 5657   5.837   3.647   9.606 -0.1065 -0.0041  0.4065
  354loPI   C4A 5658   5.854   3.674   9.208 -0.1726  0.3145  0.1364
  354loPI   C5A 5659   5.753   3.737   8.801  0.0590 -0.1412  0.0500
  354loPI   C6A 5660   5.451   3.655   8.478  0.0520 -0.1280  0.2534
  354loPI   C1B 5661   5.584   4.324  10.268  0.1138 -0.1202 -0.2778
  354loPI   C2B 5662   5.571   4.234   9.807 -0.0726 -0.0571 -0.0718
  354loPI   C3B 5663   5.744   4.143   9.453 -0.0821  0.0293 -0.0687
  354loPI   C4B 5664   5.759   4.201   9.055 -0.0063  0.2493  0.1265
  355loPI    C1 5665   1.770  14.616  10.826 -0.1186  0.3002  0.0273
  355loPI    C2 5666   1.427  14.735  10.995 -0.2473 -0.0217  0.0001
  355loPI    C3 5667   1.673  14.489  11.193  0.2049  0.5778  0.2154
  355loPI   PO4 5668   1.825  14.879  10.626  0.4239  0.1195  0.1422
  355loPI   GL1 5669   1.970  14.769  10.391 -0.1024  0.0977  0.1115
  355loPI   GL2 5670   1.822  14.444  10.116  0.0571  0.3437  0.0491
  355loPI   C1A 5671   1.911  14.854   9.887 -0.1749  0.1049  0.1354
  355loPI   C2A 5672   2.122  15.057   9.532 -0.2607  0.0398 -0.2720
  355loPI   C3A 5673   2.283  15.161   9.065 -0.0466  0.0905  0.0583
  355loPI   C4A 5674   2.161  14.976   8.632  0.0312  0.3186 -0.2308
  355loPI   C5A 5675   2.240  15.153   8.198  0.0966  0.1772  0.1307
  355loPI   C6A 5676   2.641  15.361   7.872  0.3911  0.0579 -0.0380
  355loPI   C1B 5677   1.832  14.417   9.609 -0.0593  0.1555 -0.4445
  355loPI   C2B 5678   1.835  14.439   9.139  0.1955  0.1888 -0.0205
  355loPI   C3B 5679   2.203  14.475   8.751  0.3253  0.1877 -0.2118
  355loPI   C4B 5680   2.183  14.251   8.417 -0.2984 -0.0650  0.0284
  356loPI    C1 5681  14.549  16.860  10.014 -0.0700  0.0745 -0.2104
  356loPI    C2 5682  14.523  17.156  10.282  0.3182 -0.0416 -0.0369
  356loPI    C3 5683  14.402  16.787  10.379  0.2327 -0.0324 -0.1070
  356loPI   PO4 5684  14.697  17.047   9.835 -0.1911  0.1735 -0.1704
  356loPI   GL1 5685  14.678  17.068   9.515 -0.0075  0.1603  0.2666
  356loPI   GL2 5686  14.951  16.982   9.376  0.0525 -0.0785 -0.0878
  356loPI   C1A 5687  14.490  17.201   9.108 -0.0731  0.0198 -0.2570
  356loPI   C2A 5688  14.476  17.030   8.813 -0.1528 -0.1286 -0.1185
  356loPI   C3A 5689  14.416  17.187   8.383 -0.2533 -0.2091  0.2721
  356loPI   C4A 5690  14.150  17.303   8.039 -0.1736 -0.1900 -0.0743
  356loPI   C5A 5691  14.114  17.265   7.612 -0.0746 -0.1910  0.1029
  356loPI   C6A 5692  14.250  17.052   7.243 -0.0469  0.0860 -0.2102
  356loPI   C1B 5693  14.942  17.030   8.989  0.0469  0.0477  0.1704
  356loPI   C2B 5694  14.959  16.960   8.494 -0.1237  0.0401 -0.5701
  356loPI   C3B 5695  14.817  17.045   8.131 -0.0254 -0.1351  0.0109
  356loPI   C4B 5696  14.602  17.083   7.720 -0.1728  0.0051  0.1677
  357loPI    C1 5697   4.106   5.813  11.045  0.0041 -0.1409 -0.2452
  357loPI    C2 5698   3.749   5.639  11.001 -0.0080 -0.1415 -0.1481
  357loPI    C3 5699   3.860   5.779  11.359 -0.0185  0.0945 -0.2352
  357loPI   PO4 5700   4.252   5.634  10.934  0.2731  0.2221 -0.2309
  357loPI   GL1 5701   4.353   5.716  10.496  0.2069 -0.1065  0.0537
  357loPI   GL2 5702   4.027   5.816  10.542 -0.2405 -0.2515  0.0470
  357loPI   C1A 5703   4.617   5.605  10.144  0.1064 -0.1868 -0.1975
  357loPI   C2A 5704   4.594   5.530   9.699  0.0111 -0.1776  0.0797
  357loPI   C3A 5705   4.559   5.576   9.238 -0.0962 -0.1437 -0.0250
  357loPI   C4A 5706   4.659   5.562   8.879 -0.1237 -0.3157 -0.0026
  357loPI   C5A 5707   4.943   5.457   8.516 -0.3870  0.1124  0.0886
  357loPI   C6A 5708   5.139   5.208   8.170 -0.0457  0.3371  0.0124
  357loPI   C1B 5709   4.023   5.804  10.105  0.2529  0.1137  0.0545
  357loPI   C2B 5710   4.018   5.785   9.663 -0.0937 -0.0595  0.0953
  357loPI   C3B 5711   4.085   5.829   9.270 -0.2242  0.1701  0.3810
  357loPI   C4B 5712   4.205   5.743   8.874  0.0709  0.0306 -0.1200
  358loPI    C1 5713   3.123   8.235  11.168 -0.0440  0.2044 -0.0339
  358loPI    C2 5714   3.408   8.082  11.403 -0.0272  0.0517 -0.1522
  358loPI    C3 5715   3.304   8.466  11.440  0.0028  0.0395  0.0769
  358loPI   PO4 5716   3.145   8.194  10.869 -0.0063  0.1683  0.1834
  358loPI   GL1 5717   3.413   8.138  10.609 -0.2231  0.1603 -0.0713
  358loPI   GL2 5718   3.302   8.381  10.391  0.2364 -0.0434 -0.0636
  358loPI   C1A 5719   3.739   8.130  10.219 -0.0492  0.0573 -0.2517
  358loPI   C2A 5720   3.832   7.960   9.733 -0.0304  0.2422 -0.1056
  358loPI   C3A 5721   3.766   7.863   9.310  0.0935  0.1871 -0.1753
  358loPI   C4A 5722   3.793   7.763   9.006 -0.0757 -0.1390 -0.4084
  358loPI   C5A 5723   3.907   7.811   8.556  0.0142 -0.0295 -0.0339
  358loPI   C6A 5724   4.224   7.644   8.370  0.0507 -0.2048 -0.1138
  358loPI   C1B 5725   3.274   8.167   9.967  0.0722 -0.0533  0.1270
  358loPI   C2B 5726   3.317   8.066   9.559  0.0838  0.0482 -0.0492
  358loPI   C3B 5727   3.249   8.104   9.062  0.1354 -0.0962 -0.1449
  358loPI   C4B 5728   3.250   8.190   8.589 -0.3570 -0.2237 -0.1865
  359loPI    C1 5729   0.375  14.164  10.108  0.1402 -0.4466  0.0223
  359loPI    C2 5730   0.592  14.017  10.411  0.2657 -0.1163  0.0964
  359loPI    C3 5731   0.194  14.045  10.445  0.2665 -0.2012  0.1791
  359loPI   PO4 5732   0.539  14.042   9.876 -0.2682 -0.0883 -0.2292
  359loPI   GL1 5733   0.877  14.015   9.654  0.1176 -0.0001 -0.2101
  359loPI   GL2 5734   0.862  14.289   9.531 -0.2690  0.0288 -0.4072
  359loPI   C1A 5735   0.940  13.945   9.217  0.0144 -0.4177 -0.0837
  359loPI   C2A 5736   1.010  13.817   8.768  0.0681  0.2166  0.2679
  359loPI   C3A 5737   0.858  13.721   8.422  0.0064 -0.4545  0.0352
  359loPI   C4A 5738   0.784  13.755   8.033 -0.4515 -0.2112  0.1296
  359loPI   C5A 5739   0.614  13.795   7.590  0.0045  0.4296 -0.1551
  359loPI   C6A 5740   0.579  13.417   7.329  0.0306  0.2727 -0.0391
  359loPI   C1B 5741   0.840  14.424   9.136 -0.1038  0.0975 -0.1420
  359loPI   C2B 5742   0.869  14.304   8.732 -0.0287  0.3848 -0.0482
  359loPI   C3B 5743   0.775  14.223   8.285 -0.1175 -0.1183  0.0137
  359loPI   C4B 5744   1.009  14.160   7.928 -0.2741  0.1526  0.1492
  360loPI    C1 5745   7.964   7.967  10.958 -0.0519  0.0760  0.0745
  360loPI    C2 5746   8.307   7.788  11.060 -0.1863 -0.2573 -0.0419
  360loPI    C3 5747   8.096   7.988  11.335  0.1294  0.0062  0.0161
  360loPI   PO4 5748   7.898   7.773  10.680 -0.0420  0.3856  0.0501
  360loPI   GL1 5749   7.883   7.858  10.266  0.0667  0.1941  0.2334
  360loPI   GL2 5750   7.806   8.240  10.343 -0.1680  0.0753 -0.2877
  360loPI   C1A 5751   7.934   7.681   9.891 -0.0571 -0.2173 -0.0027
  360loPI   C2A 5752   7.908   7.576   9.473  0.1101 -0.2384  0.0443
  360loPI   C3A 5753   7.934   7.611   9.037 -0.1318  0.1075  0.4163
  360loPI   C4A 5754   7.884   7.783   8.565 -0.1176  0.5055  0.1620
  360loPI   C5A 5755   7.839   8.044   8.303 -0.1698  0.0596 -0.1157
  360loPI   C6A 5756   8.105   8.059   7.958  0.2512  0.0350  0.3583
  360loPI   C1B 5757   7.745   8.185   9.861 -0.0631 -0.1165  0.1033
  360loPI   C2B 5758   7.701   8.192   9.451 -0.4165  0.1974  0.0093
  360loPI   C3B 5759   7.759   8.212   9.120 -0.1173 -0.0512 -0.2788
  360loPI   C4B 5760   7.887   8.254   8.724  0.1532  0.0421  0.0080
  361loPI    C1 5761   9.546   1.762  10.687  0.0799 -0.0554  0.1184
  361loPI    C2 5762   9.385   1.404  10.766 -0.0658 -0.0443 -0.1175
  361loPI    C3 5763   9.684   1.543  10.991 -0.1588 -0.2150  0.1152
  361loPI   PO4 5764   9.679   1.706  10.417  0.2028  0.1405 -0.1812
  361loPI   GL1 5765   9.465   1.915  10.092  0.0899 -0.2932  0.2288
  361loPI   GL2 5766   9.612   1.663   9.900  0.1699  0.1981 -0.2066
  361loPI   C1A 5767   9.538   2.164   9.780  0.0191  0.1119  0.0704
  361loPI   C2A 5768   9.517   2.218   9.313  0.2376 -0.1872 -0.0457
  361loPI   C3A 5769   9.569   2.162   8.861  0.0436 -0.0779 -0.0193
  361loPI   C4A 5770   9.661   2.163   8.514 -0.0201  0.1342  0.2786
  361loPI   C5A 5771   9.545   2.126   8.068  0.4749 -0.2082 -0.1830
  361loPI   C6A 5772   9.356   1.902   7.710 -0.5871  0.0687  0.1833
  361loPI   C1B 5773   9.481   1.664   9.480  0.2400 -0.1735  0.0370
  361loPI   C2B 5774   9.348   1.780   9.116 -0.0190  0.1127  0.3702
  361loPI   C3B 5775   9.100   1.838   8.669 -0.2002 -0.0583 -0.0282
  361loPI   C4B 5776   9.180   1.881   8.247 -0.0803  0.0218 -0.2669
  362loPI    C1 5777  12.584  13.834   9.871 -0.3178 -0.0406 -0.2592
  362loPI    C2 5778  12.375  14.105  10.079  0.1720  0.1236  0.0347
  362loPI    C3 5779  12.519  14.198   9.717 -0.0922  0.0760 -0.0848
  362loPI   PO4 5780  12.544  13.548   9.884 -0.3772 -0.0105 -0.0405
  362loPI   GL1 5781  12.407  13.331   9.481  0.1749 -0.0206 -0.0864
  362loPI   GL2 5782  12.769  13.365   9.403  0.1486 -0.1070  0.1306
  362loPI   C1A 5783  12.153  13.080   9.260 -0.0700 -0.2017  0.0259
  362loPI   C2A 5784  12.030  13.113   8.833  0.1734 -0.2094  0.2128
  362loPI   C3A 5785  12.101  13.138   8.407  0.3584  0.2594  0.1649
  362loPI   C4A 5786  12.035  13.217   7.972  0.0638 -0.0864 -0.2476
  362loPI   C5A 5787  11.989  13.075   7.590 -0.0507  0.2825 -0.0092
  362loPI   C6A 5788  12.095  13.106   7.175  0.1340  0.4759 -0.3438
  362loPI   C1B 5789  12.456  13.348   9.004 -0.2121  0.0326 -0.1203
  362loPI   C2B 5790  12.470  13.416   8.628 -0.0786  0.0261  0.2009
  362loPI   C3B 5791  12.396  13.548   8.191  0.0478  0.0245  0.1485
  362loPI   C4B 5792  12.357  13.472   7.763 -0.0619  0.1320 -0.1289
  363loPI    C1 5793  12.628   9.675  10.557 -0.2801 -0.1620 -0.1797
  363loPI    C2 5794  12.712   9.461  10.229  0.1894 -0.0832 -0.1184
  363loPI    C3 5795  12.923   9.404  10.564 -0.1430 -0.0098  0.1085
  363loPI   PO4 5796  12.623   9.888  10.514 -0.0050  0.1314  0.4172
  363loPI   GL1 5797  12.641   9.907  10.044 -0.1108 -0.0103 -0.1908
  363loPI   GL2 5798  12.423   9.991   9.789  0.0535  0.3378 -0.1614
  363loPI   C1A 5799  12.711   9.597   9.713 -0.1015 -0.0171 -0.0239
  363loPI   C2A 5800  12.754   9.634   9.235  0.1517  0.2976 -0.2947
  363loPI   C3A 5801  12.724   9.626   8.728 -0.1238 -0.0560  0.2659
  363loPI   C4A 5802  12.598   9.545   8.274 -0.2815 -0.4148 -0.0260
  363loPI   C5A 5803  12.746   9.307   7.941  0.1578 -0.2456 -0.0531
  363loPI   C6A 5804  12.982   9.170   7.611  0.2590 -0.0389  0.1616
  363loPI   C1B 5805  12.361   9.897   9.339 -0.2724 -0.1598  0.0484
  363loPI   C2B 5806  12.328   9.808   8.896 -0.1110 -0.3588 -0.0451
  363loPI   C3B 5807  12.257   9.791   8.531  0.1836  0.1350 -0.1304
  363loPI   C4B 5808  12.131   9.774   8.132 -0.1861  0.1072  0.2177
  364loPI    C1 5809  13.010  12.067  10.199 -0.0401  0.0149  0.1339
  364loPI    C2 5810  12.726  12.041  10.479 -0.0750  0.2668  0.1244
  364loPI    C3 5811  13.086  12.188  10.572 -0.0428  0.2241  0.0678
  364loPI   PO4 5812  12.876  12.156  10.029  0.3139  0.1341 -0.0190
  364loPI   GL1 5813  12.885  12.150   9.655 -0.2732  0.0290  0.0279
  364loPI   GL2 5814  12.831  12.400   9.505  0.1167  0.3184  0.2480
  364loPI   C1A 5815  12.833  11.811   9.412  0.0040 -0.1600  0.1042
  364loPI   C2A 5816  12.730  11.763   9.032 -0.2552 -0.2017 -0.0139
  364loPI   C3A 5817  12.650  11.642   8.630 -0.0505 -0.0872 -0.3059
  364loPI   C4A 5818  12.561  11.923   8.368 -0.0948 -0.2539  0.0389
  364loPI   C5A 5819  12.586  12.131   7.915  0.0551  0.1379 -0.1123
  364loPI   C6A 5820  12.650  12.305   7.519  0.3352 -0.0489 -0.2078
  364loPI   C1B 5821  12.966  12.204   9.131 -0.0545  0.3373  0.1787
  364loPI   C2B 5822  12.913  12.090   8.721 -0.1636 -0.2125 -0.0493
  364loPI   C3B 5823  13.065  11.829   8.317  0.2576  0.0898 -0.1416
  364loPI   C4B 5824  13.221  11.842   7.924  0.0592 -0.2264  0.0379
  365loPI    C1 5825  15.379  10.116  10.264 -0.1515 -0.1863 -0.0014
  365loPI    C2 5826  15.692  10.200  10.498 -0.2796  0.0574  0.0866
  365loPI    C3 5827  15.386   9.987  10.642 -0.2160 -0.0649  0.0419
  365loPI   PO4 5828  15.435  10.001  10.087  0.1251 -0.1264  0.1869
  365loPI   GL1 5829  15.613   9.591   9.903 -0.2322  0.0777 -0.1873
  365loPI   GL2 5830  15.608   9.276   9.849 -0.0345 -0.0417 -0.1889
  365loPI   C1A 5831  15.492   9.700   9.428  0.0794  0.0692  0.1918
  365loPI   C2A 5832  15.418   9.615   9.039  0.1679 -0.1987 -0.0112
  365loPI   C3A 5833  15.478   9.564   8.602 -0.0737  0.2469 -0.0760
  365loPI   C4A 5834  15.464   9.619   8.178  0.0448 -0.1637 -0.2517
  365loPI   C5A 5835  15.598   9.570   7.803 -0.4935  0.2991  0.4033
  365loPI   C6A 5836  15.189   9.496   7.465  0.1504  0.5673  0.0386
  365loPI   C1B 5837  15.556   9.132   9.508 -0.1424  0.1241 -0.2363
  365loPI   C2B 5838  15.567   9.139   9.065 -0.2042 -0.0010 -0.0582
  365loPI   C3B 5839  15.567   9.013   8.639 -0.4210 -0.2740  0.0340
  365loPI   C4B 5840  15.567   9.135   8.256 -0.0114 -0.1548  0.0208
  366loPI    C1 5841   2.344  10.016  10.930  0.1542 -0.0471 -0.1697
  366loPI    C2 5842   2.154   9.758  11.171 -0.1959  0.0340 -0.3517
  366loPI    C3 5843   2.371  10.056  11.327 -0.0495 -0.1800 -0.1405
  366loPI   PO4 5844   2.110  10.055  10.725  0.1411  0.0724 -0.1157
  366loPI   GL1 5845   2.158  10.006  10.227  0.2162 -0.1852 -0.2460
  366loPI   GL2 5846   1.852  10.001  10.147 -0.0461  0.1115 -0.0806
  366loPI   C1A 5847   2.385   9.941   9.864  0.3404 -0.0136 -0.1261
  366loPI   C2A 5848   2.424   9.822   9.490  0.0012  0.1671  0.0315
  366loPI   C3A 5849   2.500   9.785   9.077  0.0310 -0.2622  0.1212
  366loPI   C4A 5850   2.468  10.149   8.761 -0.3799 -0.0392 -0.0145
  366loPI   C5A 5851   2.261  10.470   8.779  0.3607  0.1330  0.2032
  366loPI   C6A 5852   2.294  10.893   9.030 -0.4678  0.2977  0.4356
  366loPI   C1B 5853   1.545   9.839   9.797 -0.1511 -0.0284  0.3578
  366loPI   C2B 5854   1.548   9.723   9.415 -0.0068  0.1766 -0.1594
  366loPI   C3B 5855   1.665   9.713   9.007 -0.0214 -0.1073 -0.1601
  366loPI   C4B 5856   1.540   9.600   8.719  0.2150 -0.0022 -0.1140
  367loPI    C1 5857   9.685   6.311  11.364 -0.0468 -0.0652  0.1137
  367loPI    C2 5858   9.766   6.671  11.520 -0.0248 -0.0015 -0.0421
  367loPI    C3 5859   9.466   6.450  11.668 -0.2680  0.2338 -0.1746
  367loPI   PO4 5860   9.677   6.431  11.058 -0.4185 -0.1693  0.3388
  367loPI   GL1 5861   9.748   6.678  10.722 -0.1524 -0.1773 -0.3432
  367loPI   GL2 5862   9.617   6.974  10.587  0.0761 -0.3869  0.0572
  367loPI   C1A 5863   9.858   6.673  10.215 -0.0937 -0.1722  0.2970
  367loPI   C2A 5864   9.971   6.490   9.750  0.3649 -0.0512  0.0202
  367loPI   C3A 5865   9.913   6.384   9.375  0.0492 -0.3079 -0.0185
  367loPI   C4A 5866   9.935   6.396   8.911 -0.0794 -0.0182 -0.0741
  367loPI   C5A 5867   9.807   6.384   8.444  0.2989  0.0535  0.2097
  367loPI   C6A 5868   9.446   6.492   8.183 -0.0257 -0.0343 -0.2157
  367loPI   C1B 5869   9.480   6.980  10.076  0.2579  0.2753 -0.1756
  367loPI   C2B 5870   9.299   7.152   9.674  0.1508  0.2482  0.5151
  367loPI   C3B 5871   9.372   7.091   9.329 -0.1589  0.2693 -0.2230
  367loPI   C4B 5872   9.402   7.115   8.889  0.0976  0.1200 -0.1498
  368loPI    C1 5873  11.086  17.999  10.149 -0.1604 -0.1126 -0.2358
  368loPI    C2 5874  11.259  18.354  10.215 -0.1348 -0.1720  0.0275
  368loPI    C3 5875  11.435  18.019  10.343 -0.0824 -0.2956 -0.3550
  368loPI   PO4 5876  10.982  18.065   9.943 -0.2429 -0.1619  0.2189
  368loPI   GL1 5877  10.843  18.341   9.592  0.0452  0.1287 -0.1362
  368loPI   GL2 5878  10.578  18.475   9.663 -0.0091 -0.0810 -0.0370
  368loPI   C1A 5879  10.750  18.192   9.163  0.1600 -0.3090 -0.0620
  368loPI   C2A 5880  10.586  18.284   8.721 -0.0430 -0.2134  0.1942
  368loPI   C3A 5881  10.482  18.507   8.290  0.0635  0.3081 -0.1876
  368loPI   C4A 5882  10.248  18.542   7.880 -0.1996 -0.0986 -0.1118
  368loPI   C5A 5883  10.293  18.777   7.482  0.2648  0.3104 -0.0831
  368loPI   C6A 5884  10.416  19.086   7.202 -0.1644  0.1879 -0.0202
  368loPI   C1B 5885  10.619  18.686   9.328  0.0811 -0.0354 -0.0375
  368loPI   C2B 5886  10.484  18.822   8.886 -0.0687 -0.1010  0.0211
  368loPI   C3B 5887  10.352  19.030   8.472 -0.1596  0.2979  0.2292
  368loPI   C4B 5888  10.357  19.022   8.000 -0.0753  0.0321  0.2261
  369loPI    C1 5889  15.850   9.803  10.305 -0.2147 -0.0542  0.1425
  369loPI    C2 5890  16.153   9.778  10.565 -0.1352  0.1397  0.0705
  369loPI    C3 5891  15.805   9.597  10.645  0.0216 -0.1459  0.1200
  369loPI   PO4 5892  16.001   9.797  10.056  0.2033  0.2002 -0.0187
  369loPI   GL1 5893  16.029   9.549   9.641 -0.1510  0.0246 -0.1574
  369loPI   GL2 5894  16.333   9.680   9.686  0.0640  0.3191  0.0383
  369loPI   C1A 5895  15.891   9.575   9.208  0.0355  0.0020  0.0570
  369loPI   C2A 5896  15.947   9.440   8.702  0.1611  0.1492 -0.1674
  369loPI   C3A 5897  16.045   9.450   8.297 -0.3695 -0.1399 -0.2391
  369loPI   C4A 5898  16.183   9.447   7.826 -0.0173 -0.3618 -0.3605
  369loPI   C5A 5899  16.044   9.328   7.415 -0.1383  0.1267  0.0860
  369loPI   C6A 5900  16.061   9.118   7.128 -0.0020 -0.4146 -0.2310
  369loPI   C1B 5901  16.354   9.786   9.169 -0.2847 -0.1001  0.0795
  369loPI   C2B 5902  16.295   9.789   8.698  0.1865  0.0529  0.0615
  369loPI   C3B 5903  16.459   9.705   8.335 -0.0310  0.2552  0.1046
  369loPI   C4B 5904  16.423   9.908   7.908  0.1463  0.4737  0.1516
  370loPI    C1 5905  17.592   1.412  10.190 -0.0352  0.0459  0.1109
  370loPI    C2 5906  17.295   1.480  10.450 -0.0979  0.0114  0.0486
  370loPI    C3 5907  17.454   1.114  10.419 -0.0554  0.0275  0.0749
  370loPI   PO4 5908  17.521   1.613   9.979  0.0712 -0.0294 -0.1229
  370loPI   GL1 5909  17.322   1.913   9.680  0.1112 -0.2047  0.0510
  370loPI   GL2 5910  17.599   2.132   9.758  0.1796  0.0509  0.0587
  370loPI   C1A 5911  17.268   1.834   9.232  0.1076 -0.1509 -0.2731
  370loPI   C2A 5912  17.528   1.876   8.862 -0.1608 -0.1012 -0.1267
  370loPI   C3A 5913  17.738   2.049   8.575 -0.1365  0.1652  0.0537
  370loPI   C4A 5914  17.960   2.161   8.156 -0.0532  0.1440 -0.0345
  370loPI   C5A 5915  18.139   1.908   7.902  0.2232  0.1187  0.2319
  370loPI   C6A 5916  18.391   1.815   7.507 -0.0530  0.0333 -0.0318
  370loPI   C1B 5917  17.713   1.932   9.433 -0.1873  0.1673  0.1527
  370loPI   C2B 5918  18.006   1.802   9.187 -0.0202 -0.0542 -0.0867
  370loPI   C3B 5919  18.173   1.782   8.791  0.0806 -0.1290 -0.1346
  370loPI   C4B 5920  18.158   1.726   8.410  0.0270  0.0989 -0.3514
  371loPI    C1 5921   2.483   5.100  11.052  0.0019  0.0970 -0.1061
  371loPI    C2 5922   2.263   5.021  11.377  0.0804  0.0083 -0.0739
  371loPI    C3 5923   2.596   5.240  11.410 -0.1228  0.3385 -0.1589
  371loPI   PO4 5924   2.315   5.179  10.847 -0.2569  0.1124  0.2865
  371loPI   GL1 5925   2.401   5.504  10.506 -0.0746 -0.1528 -0.2713
  371loPI   GL2 5926   2.153   5.693  10.485  0.0962  0.2562  0.1400
  371loPI   C1A 5927   2.611   5.435  10.260 -0.3762 -0.1566  0.1675
  371loPI   C2A 5928   2.773   5.449   9.855 -0.1584 -0.0336  0.1303
  371loPI   C3A 5929   2.767   5.399   9.534 -0.2349 -0.0235  0.0312
  371loPI   C4A 5930   2.696   5.353   9.067 -0.0611  0.1088 -0.0923
  371loPI   C5A 5931   2.903   5.438   8.667 -0.1874  0.0186  0.0010
  371loPI   C6A 5932   3.163   5.665   8.327  0.3720 -0.1728 -0.0716
  371loPI   C1B 5933   2.129   5.627  10.041 -0.0316 -0.1343  0.0774
  371loPI   C2B 5934   2.200   5.578   9.577 -0.3859  0.0499 -0.0719
  371loPI   C3B 5935   2.236   5.574   9.147  0.4858  0.0377 -0.4104
  371loPI   C4B 5936   2.398   5.698   8.864 -0.0131  0.0873  0.2068
  372loPI    C1 5937   6.805   7.138  11.383 -0.2055 -0.1390 -0.0404
  372loPI    C2 5938   6.870   6.809  11.601  0.0130  0.0253  0.1468
  372loPI    C3 5939   7.178   7.039  11.490 -0.1183  0.0572 -0.1582
  372loPI   PO4 5940   6.592   7.124  11.121 -0.0237  0.0184  0.2286
  372loPI   GL1 5941   6.761   7.119  10.667  0.2055  0.0963 -0.1451
  372loPI   GL2 5942   6.856   6.808  10.608  0.2543  0.0618  0.1718
  372loPI   C1A 5943   6.604   7.154  10.337  0.0821  0.2242 -0.1470
  372loPI   C2A 5944   6.650   7.237   9.942 -0.2640 -0.0032 -0.2836
  372loPI   C3A 5945   6.607   7.189   9.554 -0.0273 -0.0131 -0.0113
  372loPI   C4A 5946   6.589   7.178   9.098  0.0652 -0.1028 -0.2086
  372loPI   C5A 5947   6.661   7.211   8.672  0.1491 -0.0133 -0.0618
  372loPI   C6A 5948   6.557   6.858   8.370 -0.2784  0.1895  0.0574
  372loPI   C1B 5949   6.696   6.682  10.201 -0.1796  0.0153  0.2929
  372loPI   C2B 5950   6.669   6.728   9.747  0.0027  0.2421 -0.3680
  372loPI   C3B 5951   6.752   6.714   9.284 -0.0264  0.0757 -0.0940
  372loPI   C4B 5952   6.726   6.767   8.847  0.3023 -0.0568  0.0920
  373loPI    C1 5953  15.979  15.680   9.593  0.0883 -0.1863  0.1443
  373loPI    C2 5954  16.002  15.941   9.896  0.0265 -0.0574  0.0391
  373loPI    C3 5955  15.888  15.564   9.965 -0.1200  0.0073  0.1559
  373loPI   PO4 5956  16.132  15.651   9.502  0.3542  0.0553 -0.1171
  373loPI   GL1 5957  16.295  15.531   9.188 -0.2244  0.4490  0.0422
  373loPI   GL2 5958  16.293  15.146   9.175 -0.1908 -0.0616  0.0031
  373loPI   C1A 5959  16.513  15.549   8.812 -0.3345  0.0922  0.4322
  373loPI   C2A 5960  16.491  15.787   8.427 -0.2229 -0.0831 -0.0251
  373loPI   C3A 5961  16.590  15.675   8.046  0.0263 -0.0945  0.0561
  373loPI   C4A 5962  16.643  15.364   7.716  0.3569 -0.1838 -0.1066
  373loPI   C5A 5963  16.704  15.211   7.380  0.0662 -0.1611 -0.1244
  373loPI   C6A 5964  16.840  15.186   6.998  0.1818  0.1135 -0.3064
  373loPI   C1B 5965  16.302  15.117   8.741 -0.1054  0.1163 -0.2648
  373loPI   C2B 5966  16.330  14.919   8.491 -0.1332  0.0613  0.0830
  373loPI   C3B 5967  16.317  15.088   8.072 -0.1078  0.4064  0.0150
  373loPI   C4B 5968  16.334  14.906   7.719  0.2292  0.1499  0.0774
  374loPI    C1 5969   6.488  12.152  11.119  0.0471 -0.2379 -0.1844
  374loPI    C2 5970   6.446  11.987  11.481  0.0948  0.0350 -0.0515
  374loPI    C3 5971   6.334  12.366  11.420 -0.1045 -0.0725 -0.3773
  374loPI   PO4 5972   6.362  11.986  10.934 -0.2812  0.5503 -0.0212
  374loPI   GL1 5973   6.200  12.052  10.589 -0.0338  0.0052  0.0675
  374loPI   GL2 5974   6.249  11.791  10.404  0.1751  0.2229 -0.1809
  374loPI   C1A 5975   6.261  12.173  10.119 -0.2061 -0.0839  0.0882
  374loPI   C2A 5976   6.256  12.226   9.687 -0.5899 -0.1636 -0.0599
  374loPI   C3A 5977   6.366  12.272   9.264  0.0719 -0.2347  0.4058
  374loPI   C4A 5978   6.349  12.285   8.811  0.0631 -0.1136  0.2429
  374loPI   C5A 5979   6.414  12.243   8.396 -0.1715  0.1621  0.3696
  374loPI   C6A 5980   6.408  12.346   7.992 -0.0030  0.0872 -0.2225
  374loPI   C1B 5981   6.389  11.734   9.956  0.3382  0.2930  0.0864
  374loPI   C2B 5982   6.404  11.786   9.447 -0.0707 -0.0900 -0.0965
  374loPI   C3B 5983   6.398  11.794   9.018  0.0425 -0.1386  0.1020
  374loPI   C4B 5984   6.416  11.611   8.576 -0.0050 -0.2754  0.0766
  375loPI    C1 5985  13.104  15.160   9.638 -0.0506 -0.2432  0.0174
  375loPI    C2 5986  13.385  15.135   9.922 -0.0623 -0.2498  0.0284
  375loPI    C3 5987  13.240  15.492   9.815 -0.1510 -0.2573  0.1216
  375loPI   PO4 5988  13.145  15.014   9.481 -0.3649  0.1766  0.2225
  375loPI   GL1 5989  13.165  15.077   9.063  0.1450  0.1795 -0.2332
  375loPI   GL2 5990  13.512  14.872   9.079 -0.2316  0.0039 -0.0854
  375loPI   C1A 5991  13.254  15.083   8.670  0.0798 -0.0529 -0.0378
  375loPI   C2A 5992  13.271  15.130   8.251 -0.0832 -0.2071 -0.3104
  375loPI   C3A 5993  13.384  15.054   7.879  0.2456  0.3659 -0.0962
  375loPI   C4A 5994  13.420  14.911   7.459 -0.0545 -0.2855  0.1343
  375loPI   C5A 5995  13.041  14.967   7.124  0.1404 -0.4060  0.0419
  375loPI   C6A 5996  12.494  15.004   6.957 -0.0858 -0.1790  0.1099
  375loPI   C1B 5997  13.798  14.935   8.644 -0.0778  0.2749  0.3017
  375loPI   C2B 5998  13.823  14.922   8.335  0.0901  0.4226  0.1728
  375loPI   C3B 5999  13.709  14.715   7.950 -0.3501  0.0858  0.1513
  375loPI   C4B 6000  13.721  14.492   7.643 -0.1682  0.1784 -0.2210
  376loPI    C1 6001   6.767  15.052  10.837 -0.0407 -0.1605  0.2342
  376loPI    C2 6002   7.158  14.995  10.894  0.0579  0.1132 -0.1353
  376loPI    C3 6003   6.959  15.257  11.121  0.1067  0.0393 -0.0061
  376loPI   PO4 6004   6.794  15.028  10.515 -0.0634 -0.0267  0.0476
  376loPI   GL1 6005   6.676  15.049  10.128  0.0207 -0.1286 -0.0871
  376loPI   GL2 6006   6.696  14.813  10.048  0.3171  0.0970  0.1490
  376loPI   C1A 6007   6.547  15.083   9.670  0.1418 -0.0770  0.1451
  376loPI   C2A 6008   6.492  15.092   9.135  0.1208 -0.0728 -0.1971
  376loPI   C3A 6009   6.443  15.133   8.696  0.0776 -0.0082  0.1346
  376loPI   C4A 6010   6.313  15.115   8.278  0.0211 -0.2400 -0.2317
  376loPI   C5A 6011   6.377  14.904   7.876 -0.0300  0.1343  0.3280
  376loPI   C6A 6012   6.210  15.165   7.537  0.2409 -0.0602 -0.0472
  376loPI   C1B 6013   6.497  14.530   9.725  0.0400  0.0129  0.0567
  376loPI   C2B 6014   6.504  14.655   9.335 -0.0435  0.0234  0.1219
  376loPI   C3B 6015   6.555  14.670   8.813 -0.2385  0.2789 -0.0135
  376loPI   C4B 6016   6.484  14.570   8.411 -0.3110 -0.0008 -0.2438
  377loPI    C1 6017   9.030   5.419  10.967 -0.0572  0.0296  0.2028
  377loPI    C2 6018   8.663   5.488  11.109 -0.2028  0.3812 -0.3171
  377loPI    C3 6019   8.973   5.701  11.245 -0.1279 -0.1108  0.3327
  377loPI   PO4 6020   9.014   5.487  10.689  0.1685 -0.0828 -0.0119
  377loPI   GL1 6021   8.923   5.519  10.265  0.0098  0.2484 -0.1231
  377loPI   GL2 6022   8.714   5.277  10.303 -0.1282 -0.1295  0.0005
  377loPI   C1A 6023   8.984   5.732   9.972 -0.1437 -0.5203 -0.1665
  377loPI   C2A 6024   9.123   5.811   9.589  0.0882  0.1926  0.0376
  377loPI   C3A 6025   8.973   5.818   9.132 -0.3189  0.0209 -0.1557
  377loPI   C4A 6026   9.028   5.714   8.735 -0.2617  0.1098 -0.0517
  377loPI   C5A 6027   9.220   5.646   8.334  0.0436  0.4171  0.1568
  377loPI   C6A 6028   9.350   5.439   7.955  0.2692  0.0131  0.3109
  377loPI   C1B 6029   8.665   5.441   9.859  0.0341 -0.2387  0.1584
  377loPI   C2B 6030   8.631   5.459   9.379  0.0403  0.0622  0.0083
  377loPI   C3B 6031   8.660   5.426   8.995  0.3616  0.4289 -0.0321
  377loPI   C4B 6032   8.733   5.294   8.510 -0.1234 -0.1923 -0.1685
  378loPI    C1 6033   5.141  17.372  11.149 -0.1130  0.0127 -0.2988
  378loPI    C2 6034   4.798  17.214  11.280  0.1405 -0.2557  0.0639
  378loPI    C3 6035   4.878  17.601  11.345  0.0643 -0.2785  0.3043
  378loPI   PO4 6036   5.236  17.203  10.908  0.0121 -0.1391 -0.0706
  378loPI   GL1 6037   5.233  17.309  10.557 -0.0381 -0.0640  0.0575
  378loPI   GL2 6038   5.028  17.391  10.382 -0.2220  0.1680 -0.0347
  378loPI   C1A 6039   5.467  17.216  10.235 -0.1198  0.0923 -0.0193
  378loPI   C2A 6040   5.610  17.300   9.835  0.0678  0.3026  0.0420
  378loPI   C3A 6041   5.570  17.394   9.422 -0.2260 -0.0313 -0.2685
  378loPI   C4A 6042   5.685  17.460   9.020  0.3049 -0.1335 -0.3340
  378loPI   C5A 6043   5.526  17.608   8.641 -0.3806  0.2096 -0.2284
  378loPI   C6A 6044   5.568  17.913   8.369 -0.2221 -0.5660 -0.2380
  378loPI   C1B 6045   5.175  17.622   9.945 -0.2078  0.0687 -0.1546
  378loPI   C2B 6046   5.107  17.588   9.557  0.1322 -0.1098 -0.1231
  378loPI   C3B 6047   5.084  17.696   9.190  0.0730  0.0805 -0.0348
  378loPI   C4B 6048   5.104  17.829   8.736  0.0100 -0.1426  0.4127
  379loPI    C1 6049  17.245  10.068  10.455  0.0606  0.0415  0.0095
  379loPI    C2 6050  17.386  10.411  10.605 -0.0858  0.1518 -0.1028
  379loPI    C3 6051  17.092  10.217  10.794  0.1510 -0.0313  0.0827
  379loPI   PO4 6052  17.398   9.855  10.339 -0.2197 -0.0369  0.1648
  379loPI   GL1 6053  17.739   9.937  10.123  0.3342  0.0083 -0.3876
  379loPI   GL2 6054  17.888   9.647  10.151  0.1564 -0.0559 -0.1225
  379loPI   C1A 6055  17.956   9.998   9.758  0.0372 -0.0305 -0.2414
  379loPI   C2A 6056  18.079  10.050   9.401  0.0059 -0.2231 -0.0397
  379loPI   C3A 6057  18.206   9.864   9.022 -0.1362 -0.2850 -0.1465
  379loPI   C4A 6058  18.260   9.822   8.597  0.2303 -0.0874 -0.1657
  379loPI   C5A 6059  18.156   9.843   8.103 -0.2154 -0.2895 -0.1236
  379loPI   C6A 6060  17.689   9.885   7.864 -0.0653  0.0074  0.0053
  379loPI   C1B 6061  17.690   9.617   9.696 -0.0182 -0.2407  0.5558
  379loPI   C2B 6062  17.748   9.632   9.321  0.1392 -0.2285  0.1345
  379loPI   C3B 6063  17.854   9.594   8.821  0.1150  0.1675  0.0138
  379loPI   C4B 6064  17.935   9.561   8.409 -0.1043  0.0259  0.2834
  380loPI    C1 6065  18.116   9.471  10.759 -0.2721 -0.0508 -0.1326
  380loPI    C2 6066  17.726   9.552  10.784 -0.2379 -0.0014  0.3513
  380loPI    C3 6067  17.989   9.771  10.991  0.0406 -0.0957  0.1046
  380loPI   PO4 6068  18.152   9.384  10.505  0.3316  0.0158  0.2459
  380loPI   GL1 6069  18.334   9.336  10.200  0.1379  0.0917 -0.0315
  380loPI   GL2 6070  18.460   9.050  10.122 -0.1459 -0.1803 -0.0989
  380loPI   C1A 6071  18.233   9.581   9.758  0.0934  0.0964 -0.4981
  380loPI   C2A 6072  18.260   9.443   9.378 -0.2351  0.2254 -0.2113
  380loPI   C3A 6073  18.297   9.373   8.930  0.0047  0.1653  0.1290
  380loPI   C4A 6074  18.383   9.335   8.601 -0.2119  0.1813 -0.1358
  380loPI   C5A 6075  18.395   9.417   8.168  0.1040  0.1943  0.2627
  380loPI   C6A 6076  18.245   9.490   7.735 -0.0460 -0.0357  0.2572
  380loPI   C1B 6077  18.430   9.089   9.697 -0.0406 -0.0949 -0.1194
  380loPI   C2B 6078  18.237   8.901   9.308 -0.1187 -0.1663 -0.1804
  380loPI   C3B 6079  18.350   8.820   8.852  0.1122  0.0709  0.1792
  380loPI   C4B 6080  18.389   8.849   8.402 -0.2790  0.2571 -0.1193
  381loPI    C1 6081   7.813  16.406  11.019  0.3508 -0.0577  0.0631
  381loPI    C2 6082   8.045  16.168  11.242 -0.0077 -0.1762  0.3203
  381loPI    C3 6083   7.807  16.437  11.418 -0.0713 -0.0602  0.0621
  381loPI   PO4 6084   7.917  16.434  10.815 -0.0875  0.1904 -0.0733
  381loPI   GL1 6085   7.886  16.215  10.460 -0.1503  0.0391 -0.2947
  381loPI   GL2 6086   7.890  15.947  10.287  0.1310  0.2849 -0.1442
  381loPI   C1A 6087   7.647  16.483  10.177  0.1396  0.1139  0.2468
  381loPI   C2A 6088   7.591  16.499   9.709  0.2404  0.3069  0.4291
  381loPI   C3A 6089   7.530  16.526   9.237 -0.1030  0.1511 -0.3791
  381loPI   C4A 6090   7.474  16.621   8.841 -0.3006 -0.1835  0.0715
  381loPI   C5A 6091   7.569  16.688   8.450  0.1752 -0.2425  0.2046
  381loPI   C6A 6092   7.856  16.688   8.092 -0.0808  0.0624 -0.1017
  381loPI   C1B 6093   7.707  15.998   9.825 -0.0281 -0.0380 -0.0709
  381loPI   C2B 6094   7.707  16.090   9.415  0.1186 -0.0801 -0.0951
  381loPI   C3B 6095   7.540  16.125   8.952 -0.5225  0.0362  0.0185
  381loPI   C4B 6096   7.518  16.190   8.552 -0.0196 -0.0823 -0.0263
  382loPI    C1 6097  15.348   0.315   9.851 -0.0127 -0.0344  0.1088
  382loPI    C2 6098  15.403   0.489  10.207  0.2507  0.1237 -0.0067
  382loPI    C3 6099  15.252   0.119  10.187 -0.2285  0.2973  0.2457
  382loPI   PO4 6100  15.174   0.519   9.739 -0.1279 -0.2783 -0.2273
  382loPI   GL1 6101  15.302   0.714   9.389  0.2626  0.0434 -0.0980
  382loPI   GL2 6102  15.041   0.825   9.196 -0.4838 -0.2138  0.3945
  382loPI   C1A 6103  15.475   0.665   8.976 -0.1128  0.4211 -0.2347
  382loPI   C2A 6104  15.544   0.771   8.472  0.1551 -0.1327  0.2222
  382loPI   C3A 6105  15.617   0.769   8.050  0.0846  0.1575  0.1218
  382loPI   C4A 6106  15.523   0.995   7.712 -0.0169 -0.3355 -0.1112
  382loPI   C5A 6107  15.306   1.284   7.524  0.1262 -0.0716 -0.0011
  382loPI   C6A 6108  15.161   1.452   7.136  0.0446  0.1283 -0.2059
  382loPI   C1B 6109  14.923   0.912   8.807  0.1607 -0.0928  0.0312
  382loPI   C2B 6110  15.022   1.012   8.425 -0.3676 -0.3665  0.0642
  382loPI   C3B 6111  15.071   1.033   8.056  0.0172  0.1930  0.0175
  382loPI   C4B 6112  14.925   0.849   7.754 -0.0412 -0.0313 -0.2344
  383loPI    C1 6113   0.413   3.570  10.528  0.1026 -0.0813 -0.1050
  383loPI    C2 6114   0.577   3.740  10.851 -0.0700  0.0159 -0.0671
  383loPI    C3 6115   0.222   3.559  10.879 -0.0672 -0.0106 -0.1940
  383loPI   PO4 6116   0.460   3.698  10.355 -0.2305  0.4014 -0.0222
  383loPI   GL1 6117   0.497   3.874   9.967  0.0926  0.1247 -0.2275
  383loPI   GL2 6118   0.610   4.138  10.115 -0.1714  0.1056 -0.0214
  383loPI   C1A 6119   0.698   3.779   9.592  0.0126  0.2618  0.1600
  383loPI   C2A 6120   0.757   3.789   9.226 -0.1428 -0.0314  0.0084
  383loPI   C3A 6121   0.740   3.817   8.781 -0.2277 -0.4188  0.0103
  383loPI   C4A 6122   0.687   3.879   8.398 -0.1408 -0.1028 -0.1013
  383loPI   C5A 6123   0.693   4.020   7.909 -0.1375 -0.2992 -0.2201
  383loPI   C6A 6124   0.420   4.111   7.625  0.1987 -0.0722 -0.4585
  383loPI   C1B 6125   0.640   4.314   9.772  0.2180 -0.0402  0.0492
  383loPI   C2B 6126   0.578   4.330   9.467 -0.0529  0.2279  0.1496
  383loPI   C3B 6127   0.588   4.322   9.042 -0.0654  0.3450 -0.1145
  383loPI   C4B 6128   0.658   4.363   8.575 -0.0396  0.2206 -0.2699
  384loPI    C1 6129   7.697  16.948  11.176 -0.0785 -0.1725  0.2301
  384loPI    C2 6130   7.346  17.136  11.221  0.0654  0.1196  0.1540
  384loPI    C3 6131   7.689  17.333  11.285  0.2264 -0.0335 -0.2122
  384loPI   PO4 6132   7.626  16.871  10.874  0.1253  0.1747 -0.1290
  384loPI   GL1 6133   7.827  16.779  10.497 -0.2041  0.1488  0.0599
  384loPI   GL2 6134   7.717  17.125  10.416 -0.3462  0.1650  0.2715
  384loPI   C1A 6135   8.106  16.558  10.110  0.1352 -0.2136  0.1395
  384loPI   C2A 6136   8.045  16.362   9.701  0.1583 -0.0580 -0.2197
  384loPI   C3A 6137   8.101  16.384   9.321  0.1377  0.3873 -0.1421
  384loPI   C4A 6138   7.982  16.482   8.987 -0.5204  0.2312 -0.2732
  384loPI   C5A 6139   8.053  16.402   8.557 -0.2635 -0.0130  0.4354
  384loPI   C6A 6140   8.322  16.353   8.028 -0.0532 -0.0625 -0.2691
  384loPI   C1B 6141   7.612  17.001  10.017 -0.0153  0.0117  0.3427
  384loPI   C2B 6142   7.469  17.022   9.585  0.0126 -0.0496 -0.1785
  384loPI   C3B 6143   7.555  17.134   9.176  0.3440  0.1570 -0.1442
  384loPI   C4B 6144   7.404  17.127   8.785 -0.0491  0.1521 -0.0097
  385loPI    C1 6145   0.070   7.189  10.536  0.2022  0.2623  0.0015
  385loPI    C2 6146   0.297   7.213  10.865  0.2474  0.1550 -0.0213
  385loPI    C3 6147   0.332   7.489  10.577 -0.0401  0.4488  0.2175
  385loPI   PO4 6148  -0.024   6.887  10.547 -0.1948 -0.0787  0.2015
  385loPI   GL1 6149   0.206   6.543  10.295 -0.2260 -0.0757  0.1479
  385loPI   GL2 6150   0.209   6.894  10.127  0.0009  0.0856 -0.4236
  385loPI   C1A 6151   0.251   6.437   9.949  0.0484 -0.0345 -0.1223
  385loPI   C2A 6152   0.264   6.393   9.514 -0.1395 -0.2074  0.0013
  385loPI   C3A 6153   0.340   6.344   9.113 -0.2719  0.1004 -0.0051
  385loPI   C4A 6154   0.280   6.370   8.723  0.1567 -0.1100  0.0282
  385loPI   C5A 6155   0.282   6.299   8.281 -0.0736  0.0686 -0.3732
  385loPI   C6A 6156  -0.021   6.282   7.957  0.4681 -0.1792 -0.0372
  385loPI   C1B 6157   0.232   6.862   9.678 -0.1405 -0.1590  0.0934
  385loPI   C2B 6158   0.214   6.941   9.273 -0.1489 -0.0733  0.1333
  385loPI   C3B 6159   0.272   6.877   8.803 -0.1214  0.0006 -0.2099
  385loPI   C4B 6160   0.214   6.753   8.394  0.0219  0.3060 -0.2520
  386loPI    C1 6161   3.854   0.828  10.866 -0.0453 -0.0209 -0.0562
  386loPI    C2 6162   3.554   0.762  11.122  0.1939 -0.1054  0.2071
  386loPI    C3 6163   3.828   1.042  11.203  0.1505  0.0189 -0.0653
  386loPI   PO4 6164   3.727   0.676  10.647 -0.1342  0.2935  0.0715
  386loPI   GL1 6165   3.846   0.655  10.246  0.4805 -0.0228 -0.0170
  386loPI   GL2 6166   3.933   0.917  10.198  0.2068 -0.2720  0.3561
  386loPI   C1A 6167   3.988   0.487   9.843  0.2960 -0.0453 -0.0922
  386loPI   C2A 6168   4.017   0.544   9.352 -0.2560 -0.2393 -0.0895
  386loPI   C3A 6169   3.995   0.656   8.946 -0.2190 -0.1810 -0.0233
  386loPI   C4A 6170   4.062   0.651   8.525  0.4218 -0.1024  0.0024
  386loPI   C5A 6171   4.023   0.557   8.045 -0.0238 -0.3571 -0.1803
  386loPI   C6A 6172   4.144   0.440   7.673  0.3684 -0.0255 -0.4012
  386loPI   C1B 6173   3.940   0.992   9.725 -0.1946  0.2038 -0.1110
  386loPI   C2B 6174   3.908   1.015   9.251  0.0934 -0.1537 -0.1570
  386loPI   C3B 6175   3.830   1.160   8.848  0.2683 -0.0930  0.1880
  386loPI   C4B 6176   3.852   1.390   8.553 -0.3589 -0.0207  0.2287
  387loPI    C1 6177  11.191   9.488  10.569 -0.2679  0.1607  0.0295
  387loPI    C2 6178  11.056   9.725  10.863 -0.0525  0.0865  0.1912
  387loPI    C3 6179  10.898   9.361  10.809 -0.2044  0.1640  0.1097
  387loPI   PO4 6180  11.165   9.523  10.360  0.1078 -0.0845  0.2184
  387loPI   GL1 6181  11.275   9.598   9.965  0.0131  0.2450  0.0703
  387loPI   GL2 6182  10.868   9.693   9.938  0.3056 -0.0145  0.1240
  387loPI   C1A 6183  11.451   9.779   9.584  0.0256  0.0854 -0.1334
  387loPI   C2A 6184  11.372   9.565   9.181 -0.1777 -0.0173  0.0182
  387loPI   C3A 6185  11.357   9.354   8.795 -0.4054 -0.2706 -0.1861
  387loPI   C4A 6186  11.407   9.285   8.397 -0.0173  0.2313 -0.0995
  387loPI   C5A 6187  11.560   9.080   8.069 -0.1282  0.0590 -0.1027
  387loPI   C6A 6188  11.624   8.732   7.836 -0.1890  0.0088 -0.2120
  387loPI   C1B 6189  10.982   9.614   9.544 -0.3835  0.0767  0.3843
  387loPI   C2B 6190  10.854   9.550   9.104 -0.0728  0.2324 -0.2949
  387loPI   C3B 6191  10.873   9.496   8.689 -0.1241 -0.0716 -0.2094
  387loPI   C4B 6192  10.985   9.480   8.221  0.0862  0.0856  0.1698
  388loPI    C1 6193  12.735   6.583  10.582  0.1660  0.2544 -0.1381
  388loPI    C2 6194  12.972   6.435  10.869  0.2222  0.3352 -0.1427
  388loPI    C3 6195  12.798   6.792  10.917  0.1529  0.3047 -0.1669
  388loPI   PO4 6196  12.834   6.529  10.319  0.3854 -0.2471  0.2142
  388loPI   GL1 6197  12.863   6.434   9.856  0.1221 -0.0462 -0.1184
  388loPI   GL2 6198  13.019   6.108  10.019 -0.3117  0.2780 -0.0044
  388loPI   C1A 6199  12.781   6.240   9.468  0.0722  0.0271  0.2399
  388loPI   C2A 6200  12.750   6.213   9.016 -0.1657 -0.0138 -0.1234
  388loPI   C3A 6201  12.690   6.349   8.605 -0.3139  0.0496  0.2953
  388loPI   C4A 6202  12.764   6.313   8.156 -0.0597  0.2206 -0.3316
  388loPI   C5A 6203  12.748   5.978   7.961 -0.1600 -0.1990 -0.0596
  388loPI   C6A 6204  12.896   5.502   8.082 -0.2398 -0.2053  0.3796
  388loPI   C1B 6205  13.218   6.050   9.667  0.1108  0.1691  0.0039
  388loPI   C2B 6206  13.332   6.082   9.206  0.1111  0.1057  0.0031
  388loPI   C3B 6207  13.185   6.102   8.785  0.3818 -0.0489  0.0858
  388loPI   C4B 6208  13.153   6.023   8.349  0.3004  0.1837  0.0982
  389loPI    C1 6209  14.368  11.040  10.021 -0.1062 -0.2220  0.0806
  389loPI    C2 6210  14.159  11.321  10.213 -0.1380 -0.2111  0.0302
  389loPI    C3 6211  14.449  11.121  10.404  0.2210  0.1999 -0.0701
  389loPI   PO4 6212  14.351  11.096   9.807  0.1238 -0.2797 -0.2681
  389loPI   GL1 6213  14.536  11.233   9.382 -0.0276 -0.1007  0.0447
  389loPI   GL2 6214  14.737  11.386   9.162  0.1799  0.2248  0.3962
  389loPI   C1A 6215  14.211  11.151   9.003  0.3382 -0.2451  0.2918
  389loPI   C2A 6216  14.214  11.062   8.640 -0.0449  0.1260 -0.4124
  389loPI   C3A 6217  14.265  11.001   8.265  0.1393  0.3464  0.2352
  389loPI   C4A 6218  14.303  10.796   7.960  0.0696  0.1328  0.2919
  389loPI   C5A 6219  14.371  10.674   7.572 -0.2406 -0.0193 -0.0524
  389loPI   C6A 6220  14.629  10.384   7.244 -0.3462 -0.0181  0.0148
  389loPI   C1B 6221  14.637  11.303   8.690 -0.1564 -0.1621 -0.4096
  389loPI   C2B 6222  14.618  11.353   8.238 -0.0692 -0.1220  0.0349
  389loPI   C3B 6223  14.801  11.365   7.839 -0.1095 -0.0134  0.0831
  389loPI   C4B 6224  14.997  11.266   7.484 -0.0220 -0.2258  0.1566
  390loPI    C1 6225   7.323   4.463  11.278 -0.3156 -0.0259  0.0902
  390loPI    C2 6226   7.263   4.765  11.533 -0.0850 -0.1579  0.3056
  390loPI    C3 6227   7.346   4.399  11.672  0.0429 -0.2320  0.0405
  390loPI   PO4 6228   7.134   4.420  11.167  0.1696  0.2233 -0.1563
  390loPI   GL1 6229   6.965   4.434  10.857 -0.1402 -0.0280  0.4699
  390loPI   GL2 6230   6.891   4.681  10.619 -0.2712  0.1451 -0.2290
  390loPI   C1A 6231   6.836   4.069  10.510 -0.4093  0.2027  0.0080
  390loPI   C2A 6232   7.085   4.002  10.049 -0.2699  0.1163  0.0038
  390loPI   C3A 6233   7.059   4.168   9.698 -0.0145 -0.1391 -0.0952
  390loPI   C4A 6234   7.049   4.193   9.265  0.2329  0.0781 -0.1218
  390loPI   C5A 6235   7.133   4.237   8.788 -0.3132 -0.2624 -0.0254
  390loPI   C6A 6236   7.060   3.940   8.466 -0.2609  0.3977  0.1018
  390loPI   C1B 6237   6.998   4.654  10.155 -0.1194  0.3072  0.3823
  390loPI   C2B 6238   6.947   4.693   9.674 -0.1863 -0.2696 -0.2197
  390loPI   C3B 6239   6.947   4.709   9.258 -0.2801  0.0352  0.0866
  390loPI   C4B 6240   7.010   4.711   8.886  0.0939  0.0258 -0.0873
  391loPI    C1 6241   8.273  14.945  10.660  0.1118 -0.0663  0.3371
  391loPI    C2 6242   8.260  15.190  10.976  0.2887  0.0881  0.2268
  391loPI    C3 6243   8.601  15.144  10.772  0.1112  0.1988 -0.1042
  391loPI   PO4 6244   8.128  15.051  10.440 -0.0986  0.0443 -0.0181
  391loPI   GL1 6245   7.905  15.059  10.053  0.3199  0.1923  0.0374
  391loPI   GL2 6246   7.829  15.472  10.016  0.0673 -0.1840 -0.2813
  391loPI   C1A 6247   7.952  15.026   9.592 -0.2083  0.0328 -0.2506
  391loPI   C2A 6248   7.851  15.051   9.115 -0.1153  0.1199 -0.2476
  391loPI   C3A 6249   7.773  15.071   8.733  0.0533 -0.1918  0.0815
  391loPI   C4A 6250   7.683  15.212   8.359  0.0977  0.0360  0.0377
  391loPI   C5A 6251   7.622  15.403   7.953  0.0118  0.1644  0.0383
  391loPI   C6A 6252   7.449  15.715   7.630  0.1194 -0.1238  0.2314
  391loPI   C1B 6253   7.837  15.554   9.684 -0.3253  0.0626  0.0257
  391loPI   C2B 6254   7.795  15.582   9.228 -0.0732  0.3166 -0.0298
  391loPI   C3B 6255   7.666  15.587   8.756 -0.2373  0.1690 -0.1929
  391loPI   C4B 6256   7.509  15.719   8.364  0.0682  0.0842 -0.3969
  392loPI    C1 6257  11.520  17.337  10.347 -0.2771 -0.0468  0.1104
  392loPI    C2 6258  11.589  17.570  10.665 -0.0804  0.0963 -0.0341
  392loPI    C3 6259  11.823  17.253  10.595 -0.1208  0.0677 -0.0397
  392loPI   PO4 6260  11.517  17.536  10.187  0.2401 -0.0604  0.2063
  392loPI   GL1 6261  11.380  17.606   9.795 -0.0031 -0.2204  0.0901
  392loPI   GL2 6262  11.339  17.861   9.733  0.0022  0.0618 -0.0028
  392loPI   C1A 6263  11.162  17.515   9.389  0.1924 -0.4494  0.4756
  392loPI   C2A 6264  11.074  17.604   8.969  0.0735  0.2325  0.3390
  392loPI   C3A 6265  11.220  17.579   8.488  0.0264 -0.1941 -0.1295
  392loPI   C4A 6266  11.100  17.549   8.072  0.3140 -0.0234 -0.1199
  392loPI   C5A 6267  10.926  17.735   7.788 -0.1000  0.0434 -0.0623
  392loPI   C6A 6268  11.128  18.036   7.639 -0.2298 -0.0724  0.3312
  392loPI   C1B 6269  11.235  18.102   9.320  0.3267 -0.0213 -0.0894
  392loPI   C2B 6270  11.121  18.139   8.886 -0.3671 -0.1889 -0.0390
  392loPI   C3B 6271  10.998  18.117   8.591 -0.1222  0.1433  0.0544
  392loPI   C4B 6272  11.043  18.020   8.170  0.1128  0.0252 -0.0965
  393loPI    C1 6273   2.903   2.084  10.839 -0.0342 -0.0117  0.2455
  393loPI    C2 6274   3.251   2.261  10.924 -0.1016  0.1613  0.1661
  393loPI    C3 6275   3.083   2.013  11.189  0.2468 -0.1885  0.0688
  393loPI   PO4 6276   3.039   1.969  10.622 -0.0744  0.1477 -0.0598
  393loPI   GL1 6277   3.007   1.749  10.217  0.2675 -0.0112 -0.0099
  393loPI   GL2 6278   3.306   1.863  10.160  0.0813 -0.0197 -0.1625
  393loPI   C1A 6279   2.845   2.004   9.996 -0.0590  0.0550  0.2274
  393loPI   C2A 6280   2.822   2.048   9.529 -0.0625  0.1576 -0.1641
  393loPI   C3A 6281   2.916   2.043   9.134 -0.2914 -0.0659 -0.2961
  393loPI   C4A 6282   2.766   2.043   8.759 -0.3890 -0.1031  0.0044
  393loPI   C5A 6283   2.878   2.065   8.445 -0.2091  0.3223 -0.2529
  393loPI   C6A 6284   3.265   2.033   8.312  0.1347 -0.1228 -0.0126
  393loPI   C1B 6285   3.265   1.851   9.755  0.0465  0.0080 -0.1032
  393loPI   C2B 6286   3.295   1.834   9.378 -0.1678 -0.1094 -0.0112
  393loPI   C3B 6287   3.306   1.707   8.885  0.1236 -0.0933  0.0158
  393loPI   C4B 6288   3.508   1.776   8.614  0.0067 -0.0294  0.1389
  394loPI    C1 6289   1.276  15.558  10.438 -0.1867 -0.0909 -0.1446
  394loPI    C2 6290   1.271  15.660  10.825  0.0162 -0.0052 -0.1631
  394loPI    C3 6291   1.601  15.721  10.607 -0.0620 -0.1504 -0.3243
  394loPI   PO4 6292   1.118  15.734  10.329  0.2037  0.0250 -0.0902
  394loPI   GL1 6293   1.424  15.975  10.128 -0.0771 -0.1803  0.0960
  394loPI   GL2 6294   1.273  16.216   9.920 -0.1373 -0.1111 -0.0482
  394loPI   C1A 6295   1.350  15.845   9.630  0.0997  0.1968 -0.0483
  394loPI   C2A 6296   1.324  15.691   9.205 -0.3345  0.0347  0.0993
  394loPI   C3A 6297   1.589  15.781   8.761  0.1797  0.0075  0.2476
  394loPI   C4A 6298   1.756  15.772   8.502 -0.0798  0.1918 -0.4120
  394loPI   C5A 6299   1.884  15.506   8.113  0.0153 -0.0103  0.4323
  394loPI   C6A 6300   2.175  15.545   7.755 -0.0344  0.2321 -0.1186
  394loPI   C1B 6301   1.523  16.337   9.592 -0.1871  0.1105  0.2264
  394loPI   C2B 6302   1.620  16.590   9.249 -0.2019  0.2011 -0.1012
  394loPI   C3B 6303   1.777  16.573   8.957 -0.0744 -0.1275  0.0964
  394loPI   C4B 6304   1.948  16.278   8.772 -0.0579 -0.0865  0.0920
  395loPI    C1 6305   7.651   2.560  11.054  0.0382  0.0556 -0.0264
  395loPI    C2 6306   7.879   2.716  11.343  0.3344 -0.3234 -0.0460
  395loPI    C3 6307   7.510   2.587  11.427  0.0837  0.3626 -0.0294
  395loPI   PO4 6308   7.622   2.667  10.867  0.1076  0.0111 -0.1268
  395loPI   GL1 6309   7.487   2.628  10.453  0.3208  0.1864 -0.4609
  395loPI   GL2 6310   7.357   2.988  10.298  0.3633 -0.1108 -0.0853
  395loPI   C1A 6311   7.401   2.618  10.019 -0.1156 -0.2143 -0.0942
  395loPI   C2A 6312   7.339   2.576   9.577  0.0050 -0.2591 -0.1107
  395loPI   C3A 6313   7.315   2.629   9.207  0.2169 -0.1867 -0.0932
  395loPI   C4A 6314   7.240   2.646   8.762  0.0266  0.1868 -0.0895
  395loPI   C5A 6315   7.101   2.628   8.233 -0.0236  0.1642 -0.3665
  395loPI   C6A 6316   6.924   2.431   7.914  0.2916  0.3131 -0.1076
  395loPI   C1B 6317   7.254   3.134   9.770 -0.0800  0.0322  0.1067
  395loPI   C2B 6318   7.255   3.134   9.377  0.1608  0.1490  0.3047
  395loPI   C3B 6319   7.372   3.083   8.928  0.1454 -0.2337  0.0427
  395loPI   C4B 6320   7.515   2.985   8.473 -0.1022 -0.4226 -0.0376
  396loPI    C1 6321   5.411  11.046  10.957 -0.2156 -0.0271 -0.2083
  396loPI    C2 6322   5.100  11.212  11.146 -0.1685 -0.0855 -0.0783
  396loPI    C3 6323   5.460  11.385  11.163 -0.1878 -0.0316 -0.2078
  396loPI   PO4 6324   5.350  10.984  10.761  0.2381 -0.1019  0.0086
  396loPI   GL1 6325   5.237  10.678  10.422 -0.0672 -0.1434  0.2796
  396loPI   GL2 6326   4.896  10.906  10.422  0.1049 -0.0029  0.0232
  396loPI   C1A 6327   5.564  10.550  10.017  0.0729  0.1112 -0.1407
  396loPI   C2A 6328   5.630  10.517   9.612 -0.1577 -0.2187 -0.0847
  396loPI   C3A 6329   5.522  10.595   9.170  0.0957 -0.0716 -0.4381
  396loPI   C4A 6330   5.672  10.500   8.770 -0.0255 -0.0839  0.0223
  396loPI   C5A 6331   5.764  10.593   8.345  0.0761  0.3560 -0.3039
  396loPI   C6A 6332   5.716  10.865   8.048 -0.1066 -0.2390 -0.0703
  396loPI   C1B 6333   5.070  10.812   9.991  0.2452  0.3451  0.1992
  396loPI   C2B 6334   5.165  10.779   9.560 -0.0472 -0.0797 -0.1535
  396loPI   C3B 6335   5.079  10.848   9.140  0.1139 -0.1012 -0.1499
  396loPI   C4B 6336   5.178  10.652   8.695  0.1829 -0.0654  0.0255
  397loPI    C1 6337   2.884  10.040  10.753 -0.1864 -0.1425 -0.0524
  397loPI    C2 6338   2.883   9.957  11.144 -0.0763 -0.1036 -0.0435
  397loPI    C3 6339   2.736  10.305  11.013 -0.2743 -0.1897 -0.0540
  397loPI   PO4 6340   2.725   9.906  10.609  0.0854 -0.1444  0.0518
  397loPI   GL1 6341   2.852   9.670  10.288  0.2482  0.0115 -0.0610
  397loPI   GL2 6342   3.075   9.693  10.105 -0.1894  0.0487 -0.1440
  397loPI   C1A 6343   2.635   9.447   9.820  0.1106  0.1799 -0.0658
  397loPI   C2A 6344   2.592   9.333   9.446 -0.1529  0.4820 -0.5132
  397loPI   C3A 6345   2.632   9.315   8.988  0.0966 -0.5267  0.2194
  397loPI   C4A 6346   2.485   9.633   8.613  0.0178  0.0450 -0.1358
  397loPI   C5A 6347   2.575   9.771   8.110  0.0681  0.1076 -0.1646
  397loPI   C6A 6348   2.936   9.743   7.806  0.3757 -0.0860 -0.1109
  397loPI   C1B 6349   3.109   9.575   9.664  0.0928 -0.2791 -0.1666
  397loPI   C2B 6350   3.079   9.598   9.201 -0.2336  0.2281  0.0675
  397loPI   C3B 6351   2.986   9.593   8.755  0.1101 -0.2525 -0.2693
  397loPI   C4B 6352   3.018   9.541   8.283 -0.3385 -0.3145 -0.1568
  398loPI    C1 6353  11.874   5.167  10.899 -0.0560  0.0356  0.1905
  398loPI    C2 6354  11.979   5.207  11.283  0.3973 -0.1900  0.0970
  398loPI    C3 6355  11.807   4.869  11.157  0.0846 -0.0474  0.1324
  398loPI   PO4 6356  11.995   5.243  10.721  0.3814  0.0336  0.3093
  398loPI   GL1 6357  11.892   5.222  10.310 -0.2680 -0.2736 -0.2536
  398loPI   GL2 6358  11.657   5.313  10.412 -0.0616 -0.0912  0.1421
  398loPI   C1A 6359  12.152   5.007   9.938 -0.2197 -0.3910  0.0147
  398loPI   C2A 6360  12.080   5.050   9.466  0.2188 -0.1027 -0.1048
  398loPI   C3A 6361  11.930   5.064   9.035 -0.1065 -0.1671 -0.0542
  398loPI   C4A 6362  11.855   5.069   8.729 -0.2464 -0.5044 -0.1236
  398loPI   C5A 6363  11.856   5.174   8.338  0.2143 -0.2863  0.0525
  398loPI   C6A 6364  11.461   5.225   8.006  0.0315 -0.0982  0.0968
  398loPI   C1B 6365  11.653   5.327   9.888  0.1292  0.1738  0.0046
  398loPI   C2B 6366  11.544   5.330   9.486  0.4844 -0.1498  0.0502
  398loPI   C3B 6367  11.477   5.211   9.084 -0.1251 -0.0951  0.1410
  398loPI   C4B 6368  11.369   5.204   8.646  0.0158 -0.0252  0.4178
  399loPI    C1 6369  12.833   4.333  10.839 -0.0464  0.2423  0.0827
  399loPI    C2 6370  12.727   3.979  10.993 -0.0343  0.0665 -0.3017
  399loPI    C3 6371  12.463   4.280  10.983 -0.1342 -0.0178 -0.2275
  399loPI   PO4 6372  12.882   4.227  10.590  0.1048 -0.1016 -0.0329
  399loPI   GL1 6373  12.909   4.223  10.159  0.0355  0.1154  0.0656
  399loPI   GL2 6374  12.608   4.274   9.982  0.2098  0.0097  0.2513
  399loPI   C1A 6375  13.021   4.105   9.751 -0.1244  0.3636  0.1966
  399loPI   C2A 6376  13.118   4.139   9.408 -0.2664 -0.0540  0.1223
  399loPI   C3A 6377  13.122   4.148   9.054 -0.1662  0.2313  0.1411
  399loPI   C4A 6378  13.190   4.226   8.665 -0.1204 -0.3235 -0.0856
  399loPI   C5A 6379  12.928   4.279   8.307 -0.0191  0.3205  0.2994
  399loPI   C6A 6380  12.657   4.275   8.007  0.1624  0.2370  0.1253
  399loPI   C1B 6381  12.589   4.369   9.647 -0.0223  0.2025  0.0894
  399loPI   C2B 6382  12.700   4.386   9.288 -0.0983  0.1591  0.3016
  399loPI   C3B 6383  12.698   4.465   8.865 -0.1511  0.0117 -0.0466
  399loPI   C4B 6384  12.459   4.413   8.447 -0.1113  0.1437 -0.0040
  400loPI    C1 6385  15.421   3.614  10.169 -0.0257 -0.0239 -0.1018
  400loPI    C2 6386  15.335   3.802  10.511 -0.1961  0.0873 -0.2045
  400loPI    C3 6387  15.670   3.892  10.312  0.1173 -0.2736  0.1439
  400loPI   PO4 6388  15.079   3.599  10.134 -0.1231 -0.0156  0.2713
  400loPI   GL1 6389  15.045   3.903   9.722 -0.2148  0.0486 -0.4528
  400loPI   GL2 6390  15.445   3.840   9.725  0.0377 -0.0254  0.1930
  400loPI   C1A 6391  15.091   3.847   9.371  0.1301  0.0195 -0.2785
  400loPI   C2A 6392  15.000   3.917   9.007 -0.1388  0.1239  0.1277
  400loPI   C3A 6393  14.903   3.997   8.553  0.1301 -0.1371 -0.4438
  400loPI   C4A 6394  15.050   3.908   8.193  0.3092  0.0037 -0.4064
  400loPI   C5A 6395  15.119   4.199   7.904  0.0895  0.0233  0.0233
  400loPI   C6A 6396  15.503   4.545   7.888  0.0500  0.1204 -0.2423
  400loPI   C1B 6397  15.562   3.723   9.284  0.1205  0.1050 -0.1266
  400loPI   C2B 6398  15.537   3.832   8.856  0.1266  0.1608  0.0779
  400loPI   C3B 6399  15.530   3.804   8.468  0.1275 -0.4791  0.1065
  400loPI   C4B 6400  15.580   4.084   8.014  0.2648  0.2116  0.1486
  401loPI    C1 6401   5.667   3.154  11.126  0.1295 -0.2438 -0.0694
  401loPI    C2 6402   5.472   2.835  11.268 -0.0766 -0.1385 -0.1119
  401loPI    C3 6403   5.707   3.050  11.510 -0.0142 -0.2647 -0.0596
  401loPI   PO4 6404   5.785   3.107  10.945 -0.0397 -0.3390  0.1201
  401loPI   GL1 6405   5.798   2.919  10.532 -0.2994 -0.2813 -0.2363
  401loPI   GL2 6406   5.512   2.835  10.590 -0.2004 -0.0799  0.3292
  401loPI   C1A 6407   5.871   3.017  10.143  0.4048 -0.2496  0.3038
  401loPI   C2A 6408   5.920   3.193   9.709  0.1155 -0.0932  0.1849
  401loPI   C3A 6409   5.901   3.138   9.269 -0.0295 -0.2591  0.1339
  401loPI   C4A 6410   5.801   3.177   8.847 -0.0561  0.0407 -0.2745
  401loPI   C5A 6411   5.994   3.231   8.442  0.3420  0.1986 -0.0081
  401loPI   C6A 6412   5.795   3.472   8.156 -0.0968 -0.0957 -0.2958
  401loPI   C1B 6413   5.236   2.905  10.183 -0.2028  0.0928  0.1678
  401loPI   C2B 6414   4.938   2.996   9.889 -0.2863  0.1166  0.0447
  401loPI   C3B 6415   4.932   3.170   9.429  0.2909  0.1167  0.1021
  401loPI   C4B 6416   5.032   3.051   8.956 -0.0746  0.0176  0.1152
  402loPI    C1 6417  12.679  17.124   9.825 -0.1311  0.0180 -0.2004
  402loPI    C2 6418  12.932  16.867   9.999 -0.0783  0.1646 -0.0582
  402loPI    C3 6419  12.560  16.909  10.140 -0.1255  0.0795 -0.1561
  402loPI   PO4 6420  12.770  17.058   9.585  0.0664  0.1588 -0.1853
  402loPI   GL1 6421  12.708  17.100   9.122  0.2754  0.0825 -0.0345
  402loPI   GL2 6422  12.417  17.116   9.204 -0.2005  0.2883  0.1425
  402loPI   C1A 6423  12.631  16.927   8.798  0.0531 -0.3390 -0.0191
  402loPI   C2A 6424  12.574  16.914   8.246  0.1124 -0.2654 -0.1987
  402loPI   C3A 6425  12.504  16.869   7.764  0.3985 -0.1508  0.3567
  402loPI   C4A 6426  12.121  16.923   7.484  0.0183  0.3254 -0.0360
  402loPI   C5A 6427  11.916  16.719   7.167  0.0339  0.2156 -0.0635
  402loPI   C6A 6428  11.829  16.300   7.080  0.1755  0.0492  0.3353
  402loPI   C1B 6429  12.144  17.168   8.908  0.0065  0.1452 -0.0680
  402loPI   C2B 6430  12.110  17.178   8.425 -0.0699  0.1101 -0.1823
  402loPI   C3B 6431  12.214  17.173   8.011  0.2831 -0.1065 -0.1903
  402loPI   C4B 6432  12.236  17.414   7.642  0.1388 -0.1749  0.0358
  403loPI    C1 6433  11.992  10.272  10.480  0.2153  0.3663 -0.1677
  403loPI    C2 6434  11.946  10.336  10.872 -0.0863 -0.4260 -0.0533
  403loPI    C3 6435  12.302  10.225  10.728  0.0877  0.1020 -0.0539
  403loPI   PO4 6436  11.773  10.038  10.473  0.1465  0.0757 -0.0630
  403loPI   GL1 6437  11.767   9.960  10.021  0.3063 -0.4119 -0.0610
  403loPI   GL2 6438  11.897  10.294   9.947  0.1328 -0.5179 -0.0350
  403loPI   C1A 6439  11.960   9.894   9.642  0.2156  0.1401  0.0542
  403loPI   C2A 6440  11.898   9.719   9.243  0.1147 -0.2285 -0.2919
  403loPI   C3A 6441  11.802   9.683   8.830 -0.1721  0.1250  0.1065
  403loPI   C4A 6442  11.785   9.557   8.405 -0.0906 -0.1159  0.0066
  403loPI   C5A 6443  11.657   9.578   8.031 -0.0746 -0.1140 -0.0766
  403loPI   C6A 6444  11.287   9.824   7.910  0.1203  0.6400  0.4568
  403loPI   C1B 6445  11.635  10.238   9.527 -0.1017 -0.1751 -0.2648
  403loPI   C2B 6446  11.662  10.111   9.095 -0.1143  0.0699  0.0477
  403loPI   C3B 6447  11.676  10.080   8.626  0.0667  0.1801 -0.0514
  403loPI   C4B 6448  11.746  10.065   8.172  0.0959 -0.2993  0.1749
  404loPI    C1 6449   1.857   5.353  10.998 -0.1810 -0.2245  0.0539
  404loPI    C2 6450   1.642   5.377  11.335  0.0962 -0.0271  0.2203
  404loPI    C3 6451   2.022   5.502  11.330  0.1114 -0.0767 -0.1541
  404loPI   PO4 6452   1.759   5.416  10.753 -0.1238 -0.2094  0.1801
  404loPI   GL1 6453   1.765   5.354  10.242 -0.1458 -0.0490 -0.2392
  404loPI   GL2 6454   2.080   5.198  10.229  0.1223 -0.1705 -0.1536
  404loPI   C1A 6455   1.866   5.281   9.787 -0.2276 -0.1411  0.0457
  404loPI   C2A 6456   1.844   5.301   9.316 -0.0691  0.0986  0.2756
  404loPI   C3A 6457   1.769   5.343   8.841  0.2795 -0.1492  0.4034
  404loPI   C4A 6458   2.128   5.292   8.553 -0.1494  0.2371  0.2580
  404loPI   C5A 6459   2.465   5.407   8.274 -0.1599 -0.2972  0.0853
  404loPI   C6A 6460   2.420   5.135   7.953  0.1278 -0.0328  0.0649
  404loPI   C1B 6461   2.338   5.176   9.914  0.0586 -0.0923  0.0197
  404loPI   C2B 6462   2.326   5.130   9.475  0.2378 -0.1560 -0.1083
  404loPI   C3B 6463   2.307   5.116   9.040  0.3322 -0.1828 -0.1103
  404loPI   C4B 6464   2.547   5.054   8.586  0.1545 -0.1280  0.0391
  405loPI    C1 6465  17.937  15.067   9.954 -0.1633  0.2529  0.0861
  405loPI    C2 6466  18.221  15.029  10.233 -0.1785 -0.1300  0.0552
  405loPI    C3 6467  17.957  15.329  10.255  0.0408  0.0519  0.2515
  405loPI   PO4 6468  18.035  15.100   9.718 -0.4895 -0.0075  0.2794
  405loPI   GL1 6469  18.249  15.060   9.280  0.0175  0.2146  0.0512
  405loPI   GL2 6470  18.393  15.256   9.426  0.3634  0.0267 -0.4039
  405loPI   C1A 6471  18.290  14.633   9.007  0.0003 -0.1078 -0.0505
  405loPI   C2A 6472  18.415  14.413   8.708  0.1068 -0.0064  0.2053
  405loPI   C3A 6473  18.493  14.511   8.365 -0.0090 -0.0071  0.0572
  405loPI   C4A 6474  18.934  14.597   8.220  0.1189 -0.0100 -0.2065
  405loPI   C5A 6475  19.156  14.553   7.871 -0.0338  0.0320 -0.0134
  405loPI   C6A 6476  19.164  14.292   7.524 -0.1656 -0.1743  0.1382
  405loPI   C1B 6477  18.394  15.424   9.015 -0.0958  0.0411 -0.1922
  405loPI   C2B 6478  18.561  15.509   8.603  0.0407 -0.0131  0.0888
  405loPI   C3B 6479  18.493  15.621   8.238  0.1123 -0.0446 -0.0849
  405loPI   C4B 6480  18.422  15.893   7.966  0.1733 -0.1251  0.2673
  406loPI    C1 6481  13.318   6.050  10.922 -0.2057 -0.1312 -0.0144
  406loPI    C2 6482  13.543   6.050  11.253  0.0450  0.3139 -0.1758
  406loPI    C3 6483  13.173   6.200  11.263 -0.0536  0.0662 -0.0342
  406loPI   PO4 6484  13.521   6.198  10.736 -0.2372  0.0950  0.1162
  406loPI   GL1 6485  13.582   5.875  10.398  0.3996 -0.1075 -0.0264
  406loPI   GL2 6486  13.683   5.941  10.054  0.0630 -0.1653  0.1413
  406loPI   C1A 6487  13.453   5.507  10.008 -0.3697 -0.2160 -0.2088
  406loPI   C2A 6488  13.476   5.512   9.436  0.0706 -0.0959 -0.0692
  406loPI   C3A 6489  13.375   5.602   8.938 -0.4624 -0.2453  0.3566
  406loPI   C4A 6490  13.247   5.630   8.575 -0.0285  0.2749 -0.0380
  406loPI   C5A 6491  13.344   5.595   8.227  0.0074  0.0712  0.1260
  406loPI   C6A 6492  13.286   5.351   7.781 -0.0917 -0.1331 -0.2051
  406loPI   C1B 6493  13.665   5.936   9.615 -0.0106  0.2754 -0.0635
  406loPI   C2B 6494  13.849   5.866   9.140  0.0716  0.4294  0.1557
  406loPI   C3B 6495  13.735   5.952   8.797 -0.0464 -0.1319  0.0916
  406loPI   C4B 6496  13.789   5.823   8.497  0.2937 -0.0811 -0.1403
  407loPI    C1 6497   2.858   0.239  10.873 -0.1909 -0.2263 -0.1719
  407loPI    C2 6498   3.033  -0.120  10.867  0.0199 -0.1275 -0.0436
  407loPI    C3 6499   2.730  -0.049  11.119  0.0619 -0.1769  0.0213
  407loPI   PO4 6500   2.877   0.312  10.691 -0.2485 -0.1226 -0.1336
  407loPI   GL1 6501   2.817   0.162  10.312  0.1203  0.0041 -0.0807
  407loPI   GL2 6502   2.504   0.332  10.304  0.0304  0.1427  0.0295
  407loPI   C1A 6503   3.135  -0.098   9.934  0.0708 -0.0479  0.0144
  407loPI   C2A 6504   3.183  -0.151   9.457  0.1735 -0.0517 -0.3264
  407loPI   C3A 6505   3.227  -0.019   9.084  0.0561  0.1355 -0.1220
  407loPI   C4A 6506   3.287  -0.028   8.640  0.0446  0.5792  0.1482
  407loPI   C5A 6507   3.243   0.281   8.368  0.0898  0.0087 -0.0606
  407loPI   C6A 6508   3.171   0.653   8.352  0.1441 -0.4579 -0.1471
  407loPI   C1B 6509   2.675   0.190   9.849  0.1863  0.0244 -0.2361
  407loPI   C2B 6510   2.695   0.082   9.462  0.0171  0.0059  0.3276
  407loPI   C3B 6511   2.733   0.099   9.003  0.0032  0.0828  0.0994
  407loPI   C4B 6512   2.844   0.030   8.542  0.0026 -0.3376  0.1453
  408loPI    C1 6513  14.075   3.539  10.571  0.0306  0.0743  0.2716
  408loPI    C2 6514  13.703   3.604  10.439  0.0339  0.1810  0.3138
  408loPI    C3 6515  13.891   3.884  10.654  0.1073  0.0932  0.3647
  408loPI   PO4 6516  14.188   3.471  10.328  0.0538 -0.0500 -0.0203
  408loPI   GL1 6517  14.177   3.446  10.019 -0.1672  0.2863  0.3441
  408loPI   GL2 6518  14.192   3.112   9.904  0.1845  0.0189 -0.0109
  408loPI   C1A 6519  14.070   3.692   9.550 -0.1149 -0.2081 -0.1839
  408loPI   C2A 6520  14.051   3.774   9.072 -0.0907 -0.1200  0.1020
  408loPI   C3A 6521  14.096   3.820   8.625 -0.0280  0.4050  0.0326
  408loPI   C4A 6522  13.973   3.750   8.140  0.1178  0.0555  0.1828
  408loPI   C5A 6523  13.731   3.892   7.818  0.1294 -0.0905 -0.1328
  408loPI   C6A 6524  13.570   3.647   7.416 -0.0063  0.0999  0.2184
  408loPI   C1B 6525  14.210   3.178   9.500 -0.1113  0.0299  0.0458
  408loPI   C2B 6526  14.151   3.232   9.078  0.1948 -0.3845  0.2533
  408loPI   C3B 6527  14.114   3.314   8.693 -0.0789 -0.0278 -0.3287
  408loPI   C4B 6528  14.310   3.417   8.318  0.0845  0.4511  0.2974
  409loPI    C1 6529  17.259   8.355  10.315 -0.0445  0.0179  0.0273
  409loPI    C2 6530  16.976   8.253  10.578  0.0676  0.1331  0.1940
  409loPI    C3 6531  17.358   8.280  10.695  0.1758 -0.1962 -0.0697
  409loPI   PO4 6532  17.172   8.169  10.138  0.3345 -0.2664 -0.5035
  409loPI   GL1 6533  17.099   7.812   9.926  0.1867  0.1897  0.0223
  409loPI   GL2 6534  17.317   7.597   9.958  0.0457  0.3457  0.1156
  409loPI   C1A 6535  17.142   7.925   9.399 -0.0894 -0.1091 -0.0810
  409loPI   C2A 6536  17.176   7.994   8.900  0.0733  0.1914 -0.0012
  409loPI   C3A 6537  17.161   7.955   8.499 -0.0260  0.1707  0.1030
  409loPI   C4A 6538  17.123   7.932   8.119  0.1268  0.1329 -0.1097
  409loPI   C5A 6539  17.105   7.677   7.795  0.1549 -0.0632 -0.0088
  409loPI   C6A 6540  16.848   7.654   7.394 -0.1553  0.1839  0.0213
  409loPI   C1B 6541  17.300   7.480   9.531 -0.0297 -0.1795  0.1481
  409loPI   C2B 6542  17.248   7.421   9.117 -0.0289  0.0748  0.1747
  409loPI   C3B 6543  17.175   7.449   8.571  0.0637  0.2378 -0.1673
  409loPI   C4B 6544  17.350   7.396   8.157  0.2105 -0.1738 -0.0880
  410loPI    C1 6545   7.499  12.158  10.794 -0.1480  0.3578 -0.1904
  410loPI    C2 6546   7.758  12.389  10.994 -0.0037  0.2194 -0.2153
  410loPI    C3 6547   7.387  12.336  11.135  0.1146  0.0762  0.0495
  410loPI   PO4 6548   7.577  12.205  10.550 -0.0318  0.0171  0.1295
  410loPI   GL1 6549   7.257  12.124  10.224  0.1710  0.3253  0.2637
  410loPI   GL2 6550   7.455  11.877  10.153  0.0930 -0.2638  0.0239
  410loPI   C1A 6551   7.196  12.336   9.748  0.1941  0.0454  0.0798
  410loPI   C2A 6552   7.225  12.379   9.277  0.3417  0.1437  0.2950
  410loPI   C3A 6553   7.223  12.298   8.864 -0.0729  0.0594 -0.2556
  410loPI   C4A 6554   7.240  12.427   8.487  0.1064 -0.1000 -0.3496
  410loPI   C5A 6555   7.434  12.104   8.223  0.0774  0.1810  0.0558
  410loPI   C6A 6556   7.324  11.659   8.136  0.1967 -0.0742  0.1346
  410loPI   C1B 6557   7.255  11.810   9.838 -0.4316  0.1268  0.2056
  410loPI   C2B 6558   7.184  11.805   9.438 -0.1024 -0.2703 -0.1678
  410loPI   C3B 6559   7.277  11.844   9.075  0.1520 -0.3836  0.1302
  410loPI   C4B 6560   7.153  11.847   8.599  0.0199 -0.2795 -0.0365
  411loPI    C1 6561  16.593   6.061  10.936 -0.2774 -0.2797 -0.0563
  411loPI    C2 6562  16.194   6.041  10.935 -0.2964 -0.0308  0.3353
  411loPI    C3 6563  16.381   6.285  11.191  0.1121 -0.2210  0.2263
  411loPI   PO4 6564  16.597   6.096  10.663 -0.1631 -0.0627 -0.0816
  411loPI   GL1 6565  16.740   5.883  10.221  0.0608  0.1541 -0.1752
  411loPI   GL2 6566  16.726   5.611  10.234  0.2282 -0.3039  0.0416
  411loPI   C1A 6567  16.966   6.047   9.991 -0.0970 -0.0436  0.3124
  411loPI   C2A 6568  16.960   6.070   9.590 -0.0494  0.1603  0.1367
  411loPI   C3A 6569  16.891   6.160   9.102 -0.1040 -0.0689 -0.3244
  411loPI   C4A 6570  16.999   6.102   8.632 -0.2463 -0.0359  0.2250
  411loPI   C5A 6571  16.813   6.077   8.310  0.2167 -0.1702  0.0569
  411loPI   C6A 6572  16.440   6.148   8.017 -0.1261 -0.0744 -0.0030
  411loPI   C1B 6573  16.642   5.752   9.728  0.1526  0.0911  0.1892
  411loPI   C2B 6574  16.565   5.780   9.278 -0.0532 -0.2622 -0.0835
  411loPI   C3B 6575  16.528   5.794   8.777 -0.3058 -0.1615  0.0152
  411loPI   C4B 6576  16.407   5.728   8.292  0.3675 -0.1515 -0.1479
  412loPI    C1 6577  13.945  15.243   9.882  0.1145  0.2381  0.0075
  412loPI    C2 6578  13.732  15.581   9.867  0.2294  0.3130  0.0539
  412loPI    C3 6579  13.795  15.400  10.218  0.1326  0.2204  0.0239
  412loPI   PO4 6580  14.076  15.241   9.541  0.0718 -0.2411  0.0876
  412loPI   GL1 6581  13.990  15.115   9.086 -0.2537  0.0209  0.0014
  412loPI   GL2 6582  14.153  15.288   8.952 -0.3006  0.0010  0.0791
  412loPI   C1A 6583  13.693  15.348   8.919  0.5456 -0.1757  0.0108
  412loPI   C2A 6584  13.742  15.478   8.473  0.1314 -0.2437 -0.1029
  412loPI   C3A 6585  13.668  15.544   8.048  0.0151  0.2010  0.0766
  412loPI   C4A 6586  13.709  15.309   7.662 -0.0897 -0.4405  0.0265
  412loPI   C5A 6587  13.982  15.450   7.333  0.2054 -0.0603 -0.0992
  412loPI   C6A 6588  14.077  15.520   6.966  0.0690  0.0562  0.0840
  412loPI   C1B 6589  14.191  15.156   8.505  0.1839  0.1746 -0.2380
  412loPI   C2B 6590  14.105  15.243   8.064  0.1182 -0.0750 -0.1329
  412loPI   C3B 6591  14.191  15.201   7.706  0.1594  0.2300  0.0739
  412loPI   C4B 6592  14.457  15.501   7.622  0.1671 -0.1600  0.2845
  413loPI    C1 6593  11.912  16.682   9.635 -0.1214 -0.2002  0.0206
  413loPI    C2 6594  11.970  16.448   9.954  0.1554 -0.0465  0.0867
  413loPI    C3 6595  12.094  16.828   9.960 -0.1022  0.0432 -0.0973
  413loPI   PO4 6596  12.001  16.622   9.502  0.1933  0.0556 -0.0617
  413loPI   GL1 6597  11.905  16.448   9.136 -0.0039  0.0187  0.0570
  413loPI   GL2 6598  12.110  16.691   9.013 -0.2616  0.1500  0.1783
  413loPI   C1A 6599  11.804  16.470   8.677  0.3175 -0.0696 -0.0946
  413loPI   C2A 6600  11.752  16.333   8.315 -0.0547  0.0998 -0.0326
  413loPI   C3A 6601  11.757  16.200   7.892 -0.1899  0.0271  0.0715
  413loPI   C4A 6602  11.874  15.952   7.551 -0.2064 -0.0725  0.1621
  413loPI   C5A 6603  11.769  15.654   7.312  0.1939  0.3064 -0.0046
  413loPI   C6A 6604  11.749  15.225   7.328  0.1195  0.1381  0.1818
  413loPI   C1B 6605  12.261  16.709   8.630  0.3373 -0.0099 -0.2673
  413loPI   C2B 6606  12.118  16.689   8.193 -0.0470 -0.1823 -0.2200
  413loPI   C3B 6607  12.011  16.557   7.818 -0.0932 -0.0103 -0.3480
  413loPI   C4B 6608  12.207  16.371   7.578 -0.2516  0.1614  0.0078
  414loPI    C1 6609   0.890   7.106  11.123 -0.0834  0.1272  0.0092
  414loPI    C2 6610   0.588   6.845  11.130  0.0622 -0.0420  0.0602
  414loPI    C3 6611   0.945   6.742  11.279  0.2069  0.0783 -0.1980
  414loPI   PO4 6612   0.768   7.209  10.891  0.2267 -0.0963  0.0148
  414loPI   GL1 6613   0.850   7.147  10.450  0.0331 -0.0850  0.2511
  414loPI   GL2 6614   0.636   7.173  10.263 -0.0799  0.0795 -0.2895
  414loPI   C1A 6615   0.998   6.981  10.000  0.0989  0.1677 -0.0136
  414loPI   C2A 6616   1.109   7.001   9.631  0.1893  0.1216  0.1192
  414loPI   C3A 6617   1.188   6.971   9.208  0.0971  0.0246  0.1192
  414loPI   C4A 6618   1.120   6.986   8.677 -0.1264  0.2556  0.1631
  414loPI   C5A 6619   0.993   6.970   8.367  0.1953 -0.0842  0.0610
  414loPI   C6A 6620   0.782   7.135   8.037 -0.0614 -0.0541 -0.0677
  414loPI   C1B 6621   0.587   7.246   9.839  0.1901 -0.2769  0.1931
  414loPI   C2B 6622   0.576   7.213   9.497 -0.0747  0.3960  0.0103
  414loPI   C3B 6623   0.684   7.200   9.049  0.0553  0.0469 -0.1845
  414loPI   C4B 6624   0.683   7.260   8.650  0.1556  0.1657  0.1587
  415loPI    C1 6625  13.989   4.978  10.707  0.3707  0.0384  0.0966
  415loPI    C2 6626  13.757   5.163  10.976  0.2534  0.1739 -0.0947
  415loPI    C3 6627  14.059   4.930  11.098  0.0660  0.0578  0.1561
  415loPI   PO4 6628  14.022   5.167  10.482  0.0164 -0.2222 -0.0483
  415loPI   GL1 6629  13.902   5.342  10.042  0.0317  0.1266 -0.5035
  415loPI   GL2 6630  14.108   5.463   9.987 -0.4618  0.0890  0.3819
  415loPI   C1A 6631  13.840   5.240   9.607  0.1676 -0.0232 -0.1246
  415loPI   C2A 6632  13.873   5.366   9.197  0.2172  0.2445 -0.4805
  415loPI   C3A 6633  13.794   5.370   8.786 -0.0679  0.2326  0.3096
  415loPI   C4A 6634  13.794   5.311   8.349 -0.0968 -0.1852 -0.0463
  415loPI   C5A 6635  13.754   5.122   8.089  0.3280  0.1548 -0.1552
  415loPI   C6A 6636  13.733   4.820   7.750 -0.1122 -0.1078 -0.1051
  415loPI   C1B 6637  14.234   5.657   9.608 -0.0255  0.0244 -0.2049
  415loPI   C2B 6638  14.295   5.673   9.220 -0.0688  0.0189 -0.1739
  415loPI   C3B 6639  14.185   5.763   8.770  0.0115 -0.0559  0.2325
  415loPI   C4B 6640  14.177   5.568   8.324 -0.1762  0.0503  0.0046
  416loPI    C1 6641  17.743   9.037  10.879 -0.0605 -0.3134  0.2373
  416loPI    C2 6642  18.108   9.081  11.037 -0.0734 -0.0289  0.1922
  416loPI    C3 6643  17.798   9.283  11.190 -0.0510  0.4051 -0.3074
  416loPI   PO4 6644  17.838   9.019  10.661 -0.0127 -0.0478  0.4354
  416loPI   GL1 6645  17.906   8.963  10.254  0.0081  0.1838 -0.1230
  416loPI   GL2 6646  18.124   8.684  10.087  0.2046 -0.0545 -0.0896
  416loPI   C1A 6647  17.926   9.174   9.909 -0.1431  0.2467 -0.1504
  416loPI   C2A 6648  17.812   9.101   9.556  0.1193 -0.2435  0.0629
  416loPI   C3A 6649  17.854   9.182   9.128 -0.0043  0.0986 -0.0032
  416loPI   C4A 6650  17.978   9.073   8.690  0.1794  0.0331 -0.3097
  416loPI   C5A 6651  17.899   9.076   8.211 -0.1169 -0.2335  0.0166
  416loPI   C6A 6652  17.901   9.085   7.746  0.1482  0.1019 -0.0720
  416loPI   C1B 6653  17.953   8.629   9.726  0.1991  0.0052  0.2154
  416loPI   C2B 6654  17.851   8.520   9.354 -0.1039  0.0627  0.2087
  416loPI   C3B 6655  17.986   8.504   8.927  0.3072 -0.1924  0.0183
  416loPI   C4B 6656  17.954   8.531   8.456 -0.1140 -0.0797  0.2249
  417loPI    C1 6657   4.358   3.704  11.463  0.0414 -0.2018 -0.0570
  417loPI    C2 6658   4.470   3.424  11.725 -0.1319 -0.0079  0.2302
  417loPI    C3 6659   4.099   3.421  11.576 -0.1241  0.0513  0.2097
  417loPI   PO4 6660   4.489   3.779  11.284 -0.1730 -0.0370 -0.0089
  417loPI   GL1 6661   4.351   3.718  10.872 -0.1410 -0.2422  0.2455
  417loPI   GL2 6662   4.655   3.730  10.713 -0.2558 -0.0372  0.0840
  417loPI   C1A 6663   4.307   3.918  10.380  0.0804 -0.1522 -0.1821
  417loPI   C2A 6664   4.319   3.850  10.000  0.4566  0.2333  0.0836
  417loPI   C3A 6665   4.312   3.846   9.648 -0.1305  0.3956  0.3595
  417loPI   C4A 6666   4.409   3.735   9.267  0.1412 -0.1640 -0.0144
  417loPI   C5A 6667   4.327   3.656   8.830 -0.0472 -0.2469 -0.1220
  417loPI   C6A 6668   4.410   3.694   8.433 -0.0891 -0.1105 -0.0955
  417loPI   C1B 6669   4.624   3.588  10.350 -0.0629 -0.1914  0.1145
  417loPI   C2B 6670   4.813   3.706   9.987  0.1948 -0.0513 -0.0185
  417loPI   C3B 6671   4.829   3.623   9.554  0.2773  0.0773 -0.0737
  417loPI   C4B 6672   4.915   3.609   9.112 -0.1880  0.0852 -0.0695
  418loPI    C1 6673  10.695   8.943  11.023  0.0038 -0.3181  0.3559
  418loPI    C2 6674  10.437   9.244  11.071  0.1994 -0.0483 -0.1994
  418loPI    C3 6675  10.409   8.918  11.301 -0.5062  0.0564 -0.1136
  418loPI   PO4 6676  10.757   8.907  10.683  0.2271 -0.0669 -0.0042
  418loPI   GL1 6677  10.691   8.796  10.208 -0.1539 -0.2222  0.1257
  418loPI   GL2 6678  10.554   8.519   9.979  0.0422 -0.1226  0.0580
  418loPI   C1A 6679  10.354   8.985   9.937 -0.2222 -0.1641  0.0605
  418loPI   C2A 6680  10.068   8.833   9.665 -0.0172 -0.3675  0.0653
  418loPI   C3A 6681   9.987   8.772   9.267 -0.4413  0.0768  0.0606
  418loPI   C4A 6682  10.043   8.753   8.806  0.1243 -0.1529  0.3586
  418loPI   C5A 6683  10.092   8.833   8.386  0.2496  0.3738 -0.0940
  418loPI   C6A 6684  10.201   8.894   8.024  0.0649  0.0514  0.1828
  418loPI   C1B 6685  10.592   8.627   9.558  0.1830 -0.2082 -0.1955
  418loPI   C2B 6686  10.562   8.646   9.253 -0.1807 -0.1000 -0.1875
  418loPI   C3B 6687  10.554   8.539   8.915 -0.0788  0.1079 -0.2975
  418loPI   C4B 6688  10.589   8.570   8.534  0.3695  0.0941  0.1047
  419loPI    C1 6689  13.646  11.239  10.242 -0.1860  0.0038  0.1857
  419loPI    C2 6690  13.487  11.383  10.579  0.0426  0.1885  0.2173
  419loPI    C3 6691  13.857  11.231  10.582  0.0146  0.1155  0.0658
  419loPI   PO4 6692  13.427  11.236  10.087 -0.2166  0.0920  0.3446
  419loPI   GL1 6693  13.400  11.213   9.743 -0.2505  0.1547 -0.0763
  419loPI   GL2 6694  13.474  10.933   9.596 -0.1158 -0.3033  0.2501
  419loPI   C1A 6695  13.012  11.334   9.469 -0.2487 -0.1025  0.1028
  419loPI   C2A 6696  12.943  11.336   9.063 -0.1122 -0.3016  0.1336
  419loPI   C3A 6697  13.027  11.347   8.568 -0.2950  0.0441  0.1406
  419loPI   C4A 6698  13.231  11.261   8.162 -0.0301 -0.3625  0.1510
  419loPI   C5A 6699  13.280  11.290   7.670 -0.3487  0.1506 -0.2754
  419loPI   C6A 6700  13.484  10.921   7.351  0.2564  0.0430 -0.3047
  419loPI   C1B 6701  13.314  11.014   9.219 -0.0506  0.2332 -0.0096
  419loPI   C2B 6702  13.293  10.970   8.819 -0.0479  0.2763  0.0000
  419loPI   C3B 6703  13.324  10.743   8.454 -0.1839 -0.0069 -0.2923
  419loPI   C4B 6704  13.384  10.698   8.000  0.0380 -0.1037 -0.1182
  420loPI    C1 6705   7.580   1.581  10.870  0.1351  0.0370 -0.0447
  420loPI    C2 6706   7.481   1.913  11.071  0.2975  0.0985 -0.0647
  420loPI    C3 6707   7.592   1.584  11.270  0.1587  0.0626 -0.0456
  420loPI   PO4 6708   7.701   1.690  10.713 -0.1798 -0.1207 -0.0236
  420loPI   GL1 6709   7.748   1.849  10.292  0.1256 -0.1767 -0.2177
  420loPI   GL2 6710   7.546   2.118  10.229  0.1278 -0.4369 -0.0255
  420loPI   C1A 6711   7.920   1.868  10.004  0.0424  0.1210  0.0258
  420loPI   C2A 6712   8.017   1.940   9.608 -0.0775 -0.1540 -0.1640
  420loPI   C3A 6713   7.845   1.858   9.244  0.0188 -0.0144 -0.2270
  420loPI   C4A 6714   7.770   1.971   8.779 -0.1866  0.1638  0.0806
  420loPI   C5A 6715   7.805   2.059   8.316  0.2306  0.0626  0.0393
  420loPI   C6A 6716   7.430   2.199   8.081 -0.0254 -0.0361  0.0812
  420loPI   C1B 6717   7.449   2.177   9.842 -0.0886 -0.0442  0.0638
  420loPI   C2B 6718   7.454   2.024   9.434  0.2635 -0.2464  0.1648
  420loPI   C3B 6719   7.304   2.056   8.923  0.1028 -0.0230 -0.0134
  420loPI   C4B 6720   7.358   2.223   8.573  0.4168 -0.1540  0.2512
  421loPI    C1 6721  16.471  13.265   9.740  0.1676 -0.0050 -0.2832
  421loPI    C2 6722  16.784  13.447   9.572  0.3126 -0.1050 -0.1247
  421loPI    C3 6723  16.769  13.401   9.969 -0.0123  0.1031 -0.1092
  421loPI   PO4 6724  16.275  13.420   9.689  0.3002 -0.3449  0.1738
  421loPI   GL1 6725  16.333  13.407   9.147 -0.1949  0.5276 -0.0357
  421loPI   GL2 6726  16.482  13.645   9.201 -0.0682 -0.1049  0.2354
  421loPI   C1A 6727  16.446  13.121   8.811 -0.5005 -0.1816 -0.0821
  421loPI   C2A 6728  16.541  13.134   8.399  0.0804 -0.3329 -0.0833
  421loPI   C3A 6729  16.611  13.008   8.020  0.1896 -0.1735 -0.0924
  421loPI   C4A 6730  16.450  12.903   7.567 -0.0910  0.1162  0.1861
  421loPI   C5A 6731  16.198  13.087   7.192  0.1889  0.5037 -0.3027
  421loPI   C6A 6732  15.971  13.209   6.836  0.0656  0.1080 -0.0712
  421loPI   C1B 6733  16.687  13.543   8.801  0.0047 -0.3408 -0.0994
  421loPI   C2B 6734  16.789  13.610   8.369  0.0465 -0.3623  0.1233
  421loPI   C3B 6735  16.842  13.456   7.848 -0.1288  0.1271  0.1062
  421loPI   C4B 6736  16.403  13.332   7.670  0.0149 -0.4095  0.1295
  422loPI    C1 6737  14.977  15.969  10.069  0.0704 -0.2440 -0.2673
  422loPI    C2 6738  15.173  15.950  10.417 -0.0746 -0.3003 -0.1876
  422loPI    C3 6739  14.777  16.005  10.414 -0.0132  0.1784 -0.3550
  422loPI   PO4 6740  15.106  16.101   9.948  0.0756 -0.3489 -0.0550
  422loPI   GL1 6741  15.061  16.206   9.506  0.2227 -0.0293  0.1741
  422loPI   GL2 6742  14.765  16.255   9.261 -0.0316  0.0053  0.0290
  422loPI   C1A 6743  15.398  16.114   9.140 -0.0873  0.2523 -0.1138
  422loPI   C2A 6744  15.663  15.909   8.854 -0.0295  0.5517  0.0299
  422loPI   C3A 6745  15.691  15.833   8.500  0.0097 -0.0074 -0.1241
  422loPI   C4A 6746  15.650  16.051   8.095 -0.0070 -0.0844  0.1408
  422loPI   C5A 6747  15.552  16.227   7.764  0.0613 -0.2937 -0.2377
  422loPI   C6A 6748  15.406  16.388   7.382 -0.0041 -0.1819  0.2356
  422loPI   C1B 6749  14.924  16.179   8.868 -0.0584 -0.1122  0.1456
  422loPI   C2B 6750  14.837  16.254   8.437 -0.0455 -0.1576 -0.1184
  422loPI   C3B 6751  14.697  15.912   8.263 -0.0262 -0.4525  0.1159
  422loPI   C4B 6752  14.529  15.574   8.104  0.2370  0.0671  0.1441
  423loPI    C1 6753   2.606  11.361  10.288  0.0073  0.0728  0.0234
  423loPI    C2 6754   2.874  11.404  10.582  0.1085  0.0925 -0.0706
  423loPI    C3 6755   2.486  11.355  10.669  0.1685 -0.1473  0.0728
  423loPI   PO4 6756   2.762  11.381  10.110  0.0405  0.2056 -0.1158
  423loPI   GL1 6757   3.169  11.577   9.896  0.1250 -0.1643 -0.4042
  423loPI   GL2 6758   3.261  11.222   9.893  0.1396  0.2182 -0.1389
  423loPI   C1A 6759   3.400  11.755   9.607 -0.1693 -0.1324  0.0984
  423loPI   C2A 6760   3.597  11.842   9.363  0.1742  0.0563  0.0877
  423loPI   C3A 6761   3.690  11.883   9.004 -0.3966  0.4961 -0.2022
  423loPI   C4A 6762   3.658  11.752   8.633 -0.0653 -0.3275  0.3561
  423loPI   C5A 6763   3.779  11.940   8.240 -0.1871 -0.1069  0.0575
  423loPI   C6A 6764   3.502  12.181   7.965  0.2652  0.0755  0.0019
  423loPI   C1B 6765   3.270  11.085   9.495 -0.1040  0.1247  0.1279
  423loPI   C2B 6766   3.321  10.996   9.000  0.1664 -0.2193 -0.2770
  423loPI   C3B 6767   3.191  10.941   8.725 -0.0180 -0.3301 -0.1669
  423loPI   C4B 6768   3.369  10.786   8.394 -0.2221  0.2878 -0.1055
  424loPI    C1 6769   6.434   8.018  11.146 -0.1816 -0.2778 -0.1767
  424loPI    C2 6770   6.699   7.965  11.441 -0.0749 -0.2664 -0.2694
  424loPI    C3 6771   6.307   7.961  11.521 -0.0423  0.1076 -0.0663
  424loPI   PO4 6772   6.504   7.902  10.981 -0.0963 -0.0479 -0.1871
  424loPI   GL1 6773   6.411   7.817  10.513 -0.2682  0.1164 -0.1413
  424loPI   GL2 6774   6.723   7.707  10.444 -0.1826  0.0987 -0.0307
  424loPI   C1A 6775   6.221   7.433  10.289  0.1113 -0.1577  0.1091
  424loPI   C2A 6776   6.150   7.420   9.862 -0.0025  0.0750 -0.0128
  424loPI   C3A 6777   6.134   7.387   9.418  0.3013  0.1534  0.0373
  424loPI   C4A 6778   6.131   7.377   8.939  0.0631  0.3441 -0.2619
  424loPI   C5A 6779   6.206   7.304   8.496 -0.3051  0.1348 -0.2335
  424loPI   C6A 6780   6.396   7.250   8.086  0.0735  0.0231 -0.1060
  424loPI   C1B 6781   6.558   7.688   9.977 -0.1417  0.2445  0.0404
  424loPI   C2B 6782   6.509   7.722   9.541  0.2142 -0.1164  0.2587
  424loPI   C3B 6783   6.516   7.723   9.167  0.2228 -0.3811 -0.0133
  424loPI   C4B 6784   6.618   7.811   8.787 -0.2567  0.1430 -0.2188
  425loPI    C1 6785  16.587  13.820   9.774  0.1571 -0.3716  0.0311
  425loPI    C2 6786  16.511  14.137  10.006  0.3639 -0.1062 -0.2554
  425loPI    C3 6787  16.826  13.903  10.084  0.1260 -0.3339  0.0451
  425loPI   PO4 6788  16.622  14.010   9.496 -0.1058  0.2140 -0.0131
  425loPI   GL1 6789  16.541  14.249   9.193 -0.0130 -0.0524  0.0976
  425loPI   GL2 6790  16.279  14.143   9.032 -0.2897 -0.1059  0.1574
  425loPI   C1A 6791  16.841  14.211   8.883 -0.0221 -0.1562 -0.2824
  425loPI   C2A 6792  16.927  14.086   8.484 -0.0453 -0.0204  0.2213
  425loPI   C3A 6793  16.961  14.330   8.129  0.0929  0.1126 -0.0248
  425loPI   C4A 6794  17.130  14.566   7.859  0.1163  0.4090 -0.1375
  425loPI   C5A 6795  17.406  14.533   7.563 -0.0967  0.5614 -0.3568
  425loPI   C6A 6796  17.543  14.604   7.136 -0.3760  0.0526  0.0711
  425loPI   C1B 6797  16.393  14.125   8.738  0.2302  0.1242  0.1784
  425loPI   C2B 6798  16.442  14.036   8.340 -0.4081  0.0426 -0.0247
  425loPI   C3B 6799  16.647  13.984   8.039 -0.0873 -0.0836 -0.1128
  425loPI   C4B 6800  16.505  13.835   7.533 -0.0321  0.1184  0.3785
  426loPI    C1 6801  15.676   8.353  10.195  0.0038 -0.0094 -0.0461
  426loPI    C2 6802  15.316   8.494  10.297  0.1402  0.2849  0.0423
  426loPI    C3 6803  15.620   8.517  10.556  0.2796  0.2507 -0.1167
  426loPI   PO4 6804  15.723   8.136  10.173  0.4402  0.0260  0.0454
  426loPI   GL1 6805  15.632   7.956   9.822  0.0806 -0.0014 -0.0463
  426loPI   GL2 6806  15.319   7.791   9.830 -0.1819 -0.0341  0.1012
  426loPI   C1A 6807  15.714   8.022   9.388  0.0795  0.4094 -0.1413
  426loPI   C2A 6808  15.785   7.987   8.916 -0.1101  0.3168  0.3146
  426loPI   C3A 6809  15.703   8.115   8.580  0.0495  0.1068  0.0388
  426loPI   C4A 6810  15.768   8.085   8.143 -0.2490 -0.0454 -0.1675
  426loPI   C5A 6811  15.646   7.757   7.776 -0.2517 -0.0677 -0.1075
  426loPI   C6A 6812  15.219   7.662   7.599 -0.3741  0.1166  0.0224
  426loPI   C1B 6813  15.050   7.543   9.508 -0.1600 -0.1415 -0.2059
  426loPI   C2B 6814  15.056   7.542   9.086 -0.0692 -0.0666 -0.3804
  426loPI   C3B 6815  14.871   7.353   8.727  0.0656 -0.0495 -0.1241
  426loPI   C4B 6816  14.865   7.246   8.281  0.1558  0.0320  0.1393
  427loPI    C1 6817   4.057   2.380  11.171  0.1165  0.2307 -0.2041
  427loPI    C2 6818   4.207   2.733  11.287 -0.2275  0.2751  0.1254
  427loPI    C3 6819   3.891   2.578  11.477 -0.1329 -0.1737 -0.0706
  427loPI   PO4 6820   4.070   2.399  10.906 -0.0218  0.0521 -0.1037
  427loPI   GL1 6821   4.062   2.758  10.540  0.2699 -0.2130 -0.2474
  427loPI   GL2 6822   3.748   2.641  10.491  0.1845 -0.1265 -0.1131
  427loPI   C1A 6823   4.072   3.010  10.192 -0.1962 -0.0891  0.0037
  427loPI   C2A 6824   4.085   3.057   9.688  0.1030 -0.0098  0.1612
  427loPI   C3A 6825   4.085   2.949   9.233  0.0777 -0.0733  0.0023
  427loPI   C4A 6826   4.110   3.012   8.738  0.0158 -0.3672 -0.0912
  427loPI   C5A 6827   3.918   3.459   8.629  0.4430 -0.1011 -0.0210
  427loPI   C6A 6828   3.904   3.887   8.427  0.0171  0.1700 -0.0031
  427loPI   C1B 6829   3.659   2.636  10.029 -0.2286 -0.0815  0.2474
  427loPI   C2B 6830   3.743   2.679   9.618 -0.0013  0.2096 -0.2467
  427loPI   C3B 6831   3.673   2.568   9.208 -0.1420 -0.2723 -0.0058
  427loPI   C4B 6832   3.727   2.607   8.801 -0.1057 -0.2404  0.1895
  428loPI    C1 6833   1.672   5.854  11.296 -0.0309 -0.0528  0.0075
  428loPI    C2 6834   1.605   6.242  11.364  0.0902 -0.0505  0.1185
  428loPI    C3 6835   1.361   5.966  11.520  0.0057 -0.0197  0.0419
  428loPI   PO4 6836   1.800   5.845  10.948 -0.1141  0.1382  0.0012
  428loPI   GL1 6837   1.729   5.981  10.482  0.0342 -0.2743 -0.0962
  428loPI   GL2 6838   1.456   5.709  10.470  0.2142  0.0471  0.1347
  428loPI   C1A 6839   1.759   5.996  10.074  0.1193  0.3929  0.1018
  428loPI   C2A 6840   1.687   5.800   9.655  0.0951  0.4573 -0.1550
  428loPI   C3A 6841   1.700   5.726   9.224 -0.0625  0.2662  0.2412
  428loPI   C4A 6842   1.885   5.880   8.888 -0.0373  0.1841  0.0363
  428loPI   C5A 6843   2.197   5.768   8.444  0.1033  0.4171 -0.1163
  428loPI   C6A 6844   2.244   5.800   7.978  0.1556  0.0104 -0.0309
  428loPI   C1B 6845   1.417   5.533   9.956 -0.0666 -0.1158  0.0009
  428loPI   C2B 6846   1.329   5.507   9.552 -0.1261 -0.0885 -0.4525
  428loPI   C3B 6847   1.258   5.430   9.146 -0.2260  0.1804  0.2408
  428loPI   C4B 6848   1.297   5.446   8.767  0.1231  0.0374  0.1077
  429loPI    C1 6849   4.300   7.639  10.689  0.1978  0.0116 -0.0980
  429loPI    C2 6850   4.372   7.566  11.076  0.1682  0.1715 -0.0618
  429loPI    C3 6851   4.236   7.925  10.962 -0.2473 -0.0135 -0.1681
  429loPI   PO4 6852   4.167   7.365  10.567 -0.3001 -0.0665 -0.2708
  429loPI   GL1 6853   3.763   7.384  10.469 -0.0784 -0.0566 -0.0878
  429loPI   GL2 6854   3.508   7.675  10.433  0.0359 -0.1790 -0.0692
  429loPI   C1A 6855   3.776   7.270  10.043 -0.1779  0.1745  0.0057
  429loPI   C2A 6856   3.682   7.207   9.634  0.0698 -0.0497  0.0533
  429loPI   C3A 6857   3.821   7.343   9.317 -0.0119  0.2465 -0.0498
  429loPI   C4A 6858   3.901   7.315   8.872  0.0007 -0.1370  0.1891
  429loPI   C5A 6859   3.756   7.329   8.407  0.1383  0.1412  0.3793
  429loPI   C6A 6860   3.951   7.258   7.923 -0.0669 -0.1434 -0.0542
  429loPI   C1B 6861   3.429   7.708   9.948  0.0066 -0.2443  0.0054
  429loPI   C2B 6862   3.272   7.581   9.571  0.0632 -0.1599 -0.0245
  429loPI   C3B 6863   3.381   7.502   9.105 -0.0751  0.3579 -0.1893
  429loPI   C4B 6864   3.378   7.682   8.686  0.0595 -0.1092  0.1360
  430loPI    C1 6865  10.427   1.005  10.594  0.1396  0.2100  0.0541
  430loPI    C2 6866  10.153   1.113  10.864  0.1738  0.0233  0.1653
  430loPI    C3 6867  10.188   0.729  10.758  0.2659  0.0737  0.0109
  430loPI   PO4 6868  10.337   1.187  10.415 -0.2138  0.4630 -0.1152
  430loPI   GL1 6869  10.066   1.347  10.075  0.3862  0.3531 -0.2078
  430loPI   GL2 6870  10.185   1.546  10.024 -0.1462 -0.1838  0.0260
  430loPI   C1A 6871   9.982   0.983   9.737 -0.0377  0.2898 -0.0513
  430loPI   C2A 6872   9.993   0.946   9.216 -0.1675 -0.1317 -0.0257
  430loPI   C3A 6873   9.816   1.133   8.796  0.0820 -0.0341 -0.0225
  430loPI   C4A 6874   9.783   1.244   8.329  0.3470  0.2877 -0.2573
  430loPI   C5A 6875   9.896   1.010   7.935 -0.1944  0.2161 -0.1130
  430loPI   C6A 6876  10.033   0.668   7.630 -0.1824  0.1297 -0.1775
  430loPI   C1B 6877   9.902   1.443   9.569 -0.0493 -0.1980 -0.2986
  430loPI   C2B 6878   9.779   1.432   9.169 -0.2546 -0.1390 -0.2322
  430loPI   C3B 6879   9.772   1.660   8.720  0.1007  0.0296  0.0056
  430loPI   C4B 6880   9.654   1.707   8.345 -0.0856  0.0307  0.0602
  431loPI    C1 6881   3.912   6.183  10.801 -0.0950 -0.0835  0.0044
  431loPI    C2 6882   3.838   6.237  11.191 -0.0976 -0.0631  0.0011
  431loPI    C3 6883   3.628   6.440  10.917  0.2062  0.2591  0.0013
  431loPI   PO4 6884   4.158   6.256  10.811  0.0409 -0.1519  0.0454
  431loPI   GL1 6885   4.334   6.275  10.489 -0.0939 -0.1343 -0.1320
  431loPI   GL2 6886   4.561   6.161  10.378 -0.0890  0.1716  0.0165
  431loPI   C1A 6887   4.137   6.278  10.184 -0.2291 -0.2017  0.2443
  431loPI   C2A 6888   3.981   6.230   9.890 -0.0702 -0.1620 -0.0018
  431loPI   C3A 6889   4.036   6.254   9.510 -0.0465  0.0861  0.3093
  431loPI   C4A 6890   4.076   6.294   9.122 -0.1150  0.1525 -0.0593
  431loPI   C5A 6891   4.056   6.371   8.681 -0.0871 -0.5148  0.0114
  431loPI   C6A 6892   3.942   6.760   8.270 -0.1158 -0.1135 -0.0095
  431loPI   C1B 6893   4.508   6.059   9.937  0.0723  0.2103 -0.1280
  431loPI   C2B 6894   4.599   5.999   9.492 -0.1285  0.2986 -0.3137
  431loPI   C3B 6895   4.532   6.104   9.044 -0.1309 -0.6200  0.0218
  431loPI   C4B 6896   4.603   6.043   8.617  0.1672  0.0340  0.0955
  432loPI    C1 6897  13.285   0.137   9.946  0.1419  0.0642  0.0020
  432loPI    C2 6898  13.027  -0.132  10.090  0.0921  0.0900 -0.0392
  432loPI    C3 6899  13.254   0.081  10.341  0.1543 -0.0126 -0.0078
  432loPI   PO4 6900  13.199   0.318   9.671  0.1032  0.1975  0.1341
  432loPI   GL1 6901  12.955   0.326   9.278 -0.2335 -0.2094  0.2676
  432loPI   GL2 6902  13.354   0.457   9.174 -0.0269  0.3629 -0.0394
  432loPI   C1A 6903  12.788   0.400   8.834 -0.0786 -0.1943  0.2977
  432loPI   C2A 6904  12.658   0.482   8.457 -0.0132 -0.1075 -0.0693
  432loPI   C3A 6905  12.781   0.494   8.060 -0.0208 -0.2282 -0.1885
  432loPI   C4A 6906  13.033   0.375   7.703  0.0041 -0.0313  0.0070
  432loPI   C5A 6907  13.369   0.736   7.543 -0.0292  0.1691 -0.2210
  432loPI   C6A 6908  13.520   0.905   7.125 -0.1948 -0.1531 -0.1207
  432loPI   C1B 6909  13.308   0.332   8.698 -0.0993 -0.0676  0.0630
  432loPI   C2B 6910  13.204   0.191   8.225 -0.0300 -0.1143  0.2464
  432loPI   C3B 6911  13.143  -0.058   7.854  0.0560  0.0795  0.2510
  432loPI   C4B 6912  13.009  -0.087   7.425  0.1241 -0.0210 -0.0470
  433loPI    C1 6913  10.429  11.582  10.408  0.0354  0.0144  0.2606
  433loPI    C2 6914  10.758  11.354  10.408 -0.0101 -0.0517  0.2826
  433loPI    C3 6915  10.703  11.625  10.696  0.1110  0.0846  0.1789
  433loPI   PO4 6916  10.198  11.411  10.396  0.2876  0.0650 -0.0201
  433loPI   GL1 6917  10.246  11.082  10.175  0.1589 -0.0047 -0.1963
  433loPI   GL2 6918  10.385  11.245   9.997  0.1144  0.1311  0.1338
  433loPI   C1A 6919  10.236  10.717   9.891  0.1205 -0.0861  0.0812
  433loPI   C2A 6920  10.131  10.720   9.411  0.3028  0.1540 -0.0573
  433loPI   C3A 6921  10.289  10.637   8.962  0.4179 -0.2615  0.0779
  433loPI   C4A 6922  10.210  10.640   8.615  0.0652 -0.1622 -0.1579
  433loPI   C5A 6923  10.194  10.716   8.160  0.0637  0.2234 -0.2462
  433loPI   C6A 6924   9.994  10.476   7.833 -0.0336 -0.1708  0.0072
  433loPI   C1B 6925  10.101  11.211   9.637  0.1542  0.0734 -0.0605
  433loPI   C2B 6926  10.094  11.218   9.297  0.1497  0.3847  0.0097
  433loPI   C3B 6927  10.176  11.198   8.907  0.1186  0.0263  0.0870
  433loPI   C4B 6928  10.059  11.074   8.487 -0.0458 -0.2901 -0.0854
  434loPI    C1 6929   2.230  17.993  10.611  0.0644 -0.2636  0.1761
  434loPI    C2 6930   2.116  18.212  10.925 -0.0511 -0.1074  0.0269
  434loPI    C3 6931   2.059  17.816  10.927  0.1583 -0.1397  0.2974
  434loPI   PO4 6932   2.112  18.087  10.399 -0.0312 -0.0966 -0.0676
  434loPI   GL1 6933   2.299  18.383  10.109  0.1422 -0.2963 -0.0128
  434loPI   GL2 6934   2.633  18.193  10.004  0.1094 -0.3851  0.2991
  434loPI   C1A 6935   2.288  18.254   9.696 -0.1800  0.1825 -0.1565
  434loPI   C2A 6936   2.338  18.198   9.248  0.3567  0.2610  0.3380
  434loPI   C3A 6937   2.457  18.234   8.827  0.2637 -0.1089  0.2223
  434loPI   C4A 6938   2.406  18.242   8.459 -0.1043 -0.2134  0.2520
  434loPI   C5A 6939   2.516  18.092   8.105 -0.0351  0.1165 -0.1649
  434loPI   C6A 6940   2.860  17.903   7.824 -0.0628 -0.0791 -0.2322
  434loPI   C1B 6941   2.726  18.081   9.696 -0.3327 -0.0764  0.1061
  434loPI   C2B 6942   2.820  18.052   9.268  0.1491 -0.0408  0.2813
  434loPI   C3B 6943   2.893  18.017   8.791 -0.0546  0.0018 -0.0936
  434loPI   C4B 6944   3.026  18.111   8.378  0.0955  0.1363  0.0279
  435loPI    C1 6945   5.143   4.282  11.160 -0.0768 -0.1041 -0.1989
  435loPI    C2 6946   4.956   3.935  11.092 -0.1296 -0.0845 -0.1544
  435loPI    C3 6947   4.815   4.188  11.369  0.2098 -0.2644  0.1925
  435loPI   PO4 6948   5.217   4.381  10.988  0.0937 -0.1588 -0.3707
  435loPI   GL1 6949   5.107   4.450  10.648 -0.4643  0.0352 -0.0884
  435loPI   GL2 6950   4.883   4.275  10.668 -0.0507  0.1315  0.1999
  435loPI   C1A 6951   5.129   4.442  10.049  0.0984  0.0780 -0.1314
  435loPI   C2A 6952   5.238   4.473   9.547 -0.2226  0.0458 -0.3572
  435loPI   C3A 6953   5.290   4.393   9.214  0.0653  0.2536 -0.0900
  435loPI   C4A 6954   5.532   4.645   8.770  0.1606  0.2592 -0.1552
  435loPI   C5A 6955   5.847   4.706   8.532 -0.3104  0.1379  0.0821
  435loPI   C6A 6956   6.276   4.608   8.590 -0.0725 -0.4346  0.0244
  435loPI   C1B 6957   4.730   4.175  10.225  0.0685 -0.1437  0.2574
  435loPI   C2B 6958   4.721   4.153   9.730  0.3008 -0.0405 -0.1015
  435loPI   C3B 6959   4.851   4.080   9.368 -0.1024 -0.0578 -0.4462
  435loPI   C4B 6960   4.851   4.144   8.971 -0.4118 -0.1212  0.0894
  436loPI    C1 6961  11.781   1.495  10.411 -0.0119 -0.0099 -0.2092
  436loPI    C2 6962  11.556   1.480  10.741  0.2527  0.2068 -0.0143
  436loPI    C3 6963  11.714   1.145  10.591 -0.0363  0.0798 -0.0421
  436loPI   PO4 6964  11.636   1.663  10.212 -0.0561 -0.0945  0.1117
  436loPI   GL1 6965  11.406   1.678   9.897  0.0390 -0.1132 -0.2727
  436loPI   GL2 6966  11.639   1.470   9.750  0.0439 -0.0597 -0.3411
  436loPI   C1A 6967  11.434   1.877   9.502  0.0821 -0.0962 -0.0148
  436loPI   C2A 6968  11.593   1.902   9.107  0.0657 -0.1001 -0.1512
  436loPI   C3A 6969  11.616   1.884   8.695 -0.0498 -0.4323 -0.2099
  436loPI   C4A 6970  11.554   1.806   8.242  0.0804  0.0021  0.2411
  436loPI   C5A 6971  11.857   1.724   7.986 -0.2374  0.1203  0.0160
  436loPI   C6A 6972  12.127   1.802   7.640 -0.0515 -0.0978 -0.1230
  436loPI   C1B 6973  11.564   1.443   9.355  0.1908 -0.3812  0.0328
  436loPI   C2B 6974  11.540   1.395   8.896  0.4040  0.0893  0.0124
  436loPI   C3B 6975  11.742   1.369   8.445  0.1301 -0.2115 -0.2027
  436loPI   C4B 6976  11.633   1.255   8.086  0.0514 -0.0816 -0.0582
  437loPI    C1 6977   5.837   5.508  11.518 -0.0092 -0.3691 -0.2387
  437loPI    C2 6978   6.200   5.609  11.386  0.0218  0.1147  0.1837
  437loPI    C3 6979   6.163   5.367  11.703 -0.0351 -0.1545 -0.0245
  437loPI   PO4 6980   5.660   5.568  11.396  0.0972  0.0473 -0.2598
  437loPI   GL1 6981   5.379   5.459  11.023 -0.0814 -0.0247 -0.1970
  437loPI   GL2 6982   5.424   5.839  10.901 -0.0774 -0.0708  0.1829
  437loPI   C1A 6983   5.506   5.181  10.701  0.2763 -0.0757  0.5039
  437loPI   C2A 6984   5.534   5.258  10.198 -0.1348  0.2078  0.4480
  437loPI   C3A 6985   5.520   5.215   9.809  0.3756 -0.1382  0.0342
  437loPI   C4A 6986   5.537   5.308   9.383  0.0061 -0.1199  0.2293
  437loPI   C5A 6987   5.568   5.170   8.925 -0.0462  0.2823  0.2706
  437loPI   C6A 6988   5.377   5.091   8.594  0.0365 -0.1975 -0.0084
  437loPI   C1B 6989   5.567   5.759  10.499 -0.0313 -0.2746 -0.1757
  437loPI   C2B 6990   5.476   5.785  10.022  0.0376  0.0622  0.2539
  437loPI   C3B 6991   5.536   5.752   9.624 -0.1139  0.1674 -0.0333
  437loPI   C4B 6992   5.506   5.795   9.144 -0.1541  0.1670  0.3880
  438loPI    C1 6993  14.294   6.699  10.438  0.1452 -0.1007  0.0155
  438loPI    C2 6994  14.398   6.954  10.728  0.0772  0.0384 -0.0807
  438loPI    C3 6995  14.113   6.681  10.793  0.0243  0.1046 -0.0342
  438loPI   PO4 6996  14.377   6.798  10.270 -0.0233  0.1085  0.2240
  438loPI   GL1 6997  14.384   7.163   9.958  0.2418 -0.0512 -0.1288
  438loPI   GL2 6998  14.655   7.377   9.893  0.1059  0.0434  0.1774
  438loPI   C1A 6999  14.470   6.926   9.606  0.1622 -0.2534 -0.2202
  438loPI   C2A 7000  14.694   7.113   9.232  0.0298  0.0474 -0.1435
  438loPI   C3A 7001  14.529   6.949   8.861 -0.2963 -0.3280  0.1102
  438loPI   C4A 7002  14.432   6.950   8.409  0.2984 -0.0314 -0.1045
  438loPI   C5A 7003  14.308   7.031   8.022 -0.2630 -0.3226  0.0163
  438loPI   C6A 7004  14.050   6.921   7.723  0.1164  0.1257  0.3823
  438loPI   C1B 7005  14.467   7.542   9.438 -0.1338 -0.1555  0.1123
  438loPI   C2B 7006  14.517   7.590   9.042  0.1036  0.0053 -0.1363
  438loPI   C3B 7007  14.405   7.506   8.666 -0.2107 -0.0208  0.4427
  438loPI   C4B 7008  14.297   7.547   8.178  0.1856 -0.0445 -0.0830
  439loPI    C1 7009   9.235   2.419  11.061  0.0110 -0.1420 -0.1858
  439loPI    C2 7010   9.435   2.073  11.045  0.2047 -0.0326 -0.1643
  439loPI    C3 7011   9.341   2.234  11.399  0.0049 -0.1245 -0.1743
  439loPI   PO4 7012   9.004   2.362  10.901  0.1224  0.1806  0.1783
  439loPI   GL1 7013   8.888   2.531  10.464 -0.1229 -0.2346  0.2094
  439loPI   GL2 7014   8.973   2.876  10.290  0.0011  0.1993  0.0708
  439loPI   C1A 7015   8.784   2.509  10.021  0.2471 -0.2169 -0.3148
  439loPI   C2A 7016   8.623   2.617   9.680 -0.3851 -0.0041 -0.2171
  439loPI   C3A 7017   8.659   2.664   9.249  0.3007 -0.1349  0.2566
  439loPI   C4A 7018   8.685   2.637   8.773  0.0432  0.2539  0.1490
  439loPI   C5A 7019   8.655   2.667   8.385 -0.0721 -0.2644 -0.1374
  439loPI   C6A 7020   8.794   2.551   7.993 -0.0519 -0.0489 -0.1712
  439loPI   C1B 7021   9.030   2.960   9.823  0.1893 -0.0111  0.0024
  439loPI   C2B 7022   9.048   2.986   9.206  0.0163 -0.2694 -0.0097
  439loPI   C3B 7023   9.123   2.865   8.814  0.0818  0.0124 -0.3053
  439loPI   C4B 7024   9.133   2.889   8.334 -0.3228  0.0403 -0.0919
  440loPI    C1 7025   4.659  15.069  10.686 -0.0334  0.0071  0.1759
  440loPI    C2 7026   4.601  15.463  10.727  0.0479  0.0761 -0.3160
  440loPI    C3 7027   4.371  15.205  10.928  0.0512  0.3717  0.0784
  440loPI   PO4 7028   4.923  15.118  10.525  0.3243  0.1416  0.2086
  440loPI   GL1 7029   4.859  15.130  10.030 -0.2272  0.4050 -0.0555
  440loPI   GL2 7030   4.628  14.969  10.143  0.2026  0.0284 -0.1204
  440loPI   C1A 7031   5.063  15.196   9.589  0.0930  0.1189 -0.0387
  440loPI   C2A 7032   5.048  15.194   9.158 -0.2072  0.2037  0.0054
  440loPI   C3A 7033   5.055  15.232   8.715  0.1867  0.3164 -0.0530
  440loPI   C4A 7034   5.137  15.235   8.279  0.0397 -0.0850  0.0739
  440loPI   C5A 7035   5.410  14.947   8.000 -0.1343 -0.1331 -0.2447
  440loPI   C6A 7036   5.669  14.592   7.839 -0.1459 -0.1139 -0.0593
  440loPI   C1B 7037   4.673  14.896   9.672  0.3129 -0.0042  0.0224
  440loPI   C2B 7038   4.611  14.810   9.212 -0.0140 -0.1986 -0.0753
  440loPI   C3B 7039   4.539  14.994   8.785  0.1846  0.1913 -0.1217
  440loPI   C4B 7040   4.606  15.043   8.402 -0.0492 -0.0264  0.0914
  441loPI    C1 7041   4.734   8.407  10.862  0.3555 -0.2572  0.0904
  441loPI    C2 7042   4.652   8.200  11.194 -0.1887  0.1259  0.2096
  441loPI    C3 7043   4.634   8.600  11.198  0.2141  0.1561 -0.1802
  441loPI   PO4 7044   4.554   8.308  10.661  0.0245 -0.1369  0.0268
  441loPI   GL1 7045   4.625   8.006  10.315 -0.0605  0.3078 -0.0771
  441loPI   GL2 7046   4.695   7.606  10.367  0.2426  0.1330  0.0353
  441loPI   C1A 7047   4.705   7.987   9.953  0.3783 -0.1088  0.0987
  441loPI   C2A 7048   4.730   7.987   9.512 -0.0161  0.0973 -0.0342
  441loPI   C3A 7049   4.658   7.886   9.087  0.3098  0.0472 -0.1424
  441loPI   C4A 7050   4.662   7.925   8.650 -0.2903 -0.3890 -0.1065
  441loPI   C5A 7051   4.419   8.050   8.307  0.2280  0.0164  0.2100
  441loPI   C6A 7052   4.226   8.256   7.989  0.3066  0.1712  0.2922
  441loPI   C1B 7053   4.813   7.350   9.947  0.0826 -0.2700  0.1182
  441loPI   C2B 7054   4.830   7.393   9.558 -0.0447 -0.0013  0.1748
  441loPI   C3B 7055   4.810   7.420   9.113  0.0909  0.0385 -0.0773
  441loPI   C4B 7056   4.672   7.446   8.633  0.2791  0.0228  0.2284
  442loPI    C1 7057   6.534   8.877  10.956  0.0420 -0.0142  0.0312
  442loPI    C2 7058   6.749   8.825  11.290 -0.1549 -0.0841  0.1491
  442loPI    C3 7059   6.485   9.124  11.267 -0.2039 -0.1319  0.0887
  442loPI   PO4 7060   6.655   8.854  10.782 -0.2228 -0.0070  0.3388
  442loPI   GL1 7061   6.738   9.183  10.493  0.3032 -0.3269 -0.3637
  442loPI   GL2 7062   7.003   9.400  10.477 -0.0653  0.0856  0.0589
  442loPI   C1A 7063   6.779   9.052  10.052 -0.0695 -0.4653  0.0791
  442loPI   C2A 7064   6.702   9.195   9.677 -0.1919  0.0167  0.1771
  442loPI   C3A 7065   6.756   9.147   9.225 -0.0950  0.0800  0.0410
  442loPI   C4A 7066   6.787   9.112   8.745 -0.1664  0.2658 -0.2484
  442loPI   C5A 7067   6.805   9.048   8.272 -0.2074  0.0862  0.0088
  442loPI   C6A 7068   6.615   9.068   7.963  0.4121 -0.1781 -0.0962
  442loPI   C1B 7069   7.060   9.454  10.068 -0.4123  0.1425 -0.1255
  442loPI   C2B 7070   7.118   9.416   9.640  0.1258 -0.0325 -0.0434
  442loPI   C3B 7071   7.137   9.505   9.309 -0.4031 -0.0009  0.1288
  442loPI   C4B 7072   7.229   9.405   8.903 -0.0896  0.1944  0.0109
  443loPI    C1 7073  16.407  14.517   9.688 -0.0104 -0.3661  0.0792
  443loPI    C2 7074  16.213  14.557  10.035  0.1008 -0.4978  0.1577
  443loPI    C3 7075  16.603  14.644  10.013 -0.0291  0.0746 -0.0744
  443loPI   PO4 7076  16.211  14.617   9.528 -0.2045 -0.0485 -0.1005
  443loPI   GL1 7077  16.086  14.618   9.102  0.0436  0.1751 -0.0176
  443loPI   GL2 7078  15.896  14.952   8.965 -0.0522  0.0810  0.0476
  443loPI   C1A 7079  15.986  14.566   8.663 -0.1128  0.0173  0.1208
  443loPI   C2A 7080  15.999  14.585   8.205  0.0468  0.3520 -0.0124
  443loPI   C3A 7081  15.884  14.736   7.827  0.0421  0.0305 -0.2103
  443loPI   C4A 7082  15.704  14.559   7.510  0.2112 -0.1416 -0.1195
  443loPI   C5A 7083  15.422  14.510   7.252  0.2679 -0.0362  0.0708
  443loPI   C6A 7084  15.298  14.868   7.093  0.2069 -0.2577 -0.0618
  443loPI   C1B 7085  15.812  15.031   8.520  0.1175 -0.1866 -0.0208
  443loPI   C2B 7086  15.857  15.149   8.048 -0.2068 -0.1167 -0.0149
  443loPI   C3B 7087  15.911  15.160   7.598 -0.1746  0.1686  0.3557
  443loPI   C4B 7088  15.910  15.003   7.284 -0.1970 -0.1570 -0.1472
  444loPI    C1 7089   9.511  16.760  10.594 -0.0453  0.0636 -0.1576
  444loPI    C2 7090   9.884  16.622  10.638 -0.0833 -0.0670 -0.2357
  444loPI    C3 7091   9.722  16.857  10.919 -0.0413 -0.2375 -0.0674
  444loPI   PO4 7092   9.480  16.915  10.323  0.0633  0.0747 -0.1065
  444loPI   GL1 7093   9.529  17.018   9.908 -0.0175 -0.3658  0.0415
  444loPI   GL2 7094   9.783  17.212   9.891 -0.0861  0.0580 -0.0041
  444loPI   C1A 7095   9.480  16.765   9.505  0.0682  0.0050  0.0372
  444loPI   C2A 7096   9.372  16.693   9.108  0.0872 -0.0902  0.2623
  444loPI   C3A 7097   9.346  16.822   8.718  0.2217  0.1146 -0.0737
  444loPI   C4A 7098   9.325  16.878   8.330 -0.4266  0.0618  0.0267
  444loPI   C5A 7099   9.416  16.913   7.983  0.1317 -0.3117 -0.0677
  444loPI   C6A 7100   9.250  17.361   7.750 -0.2065 -0.1335 -0.1898
  444loPI   C1B 7101   9.926  17.146   9.441  0.0424  0.0085 -0.4349
  444loPI   C2B 7102   9.777  17.042   9.054 -0.2746  0.3152  0.1086
  444loPI   C3B 7103   9.773  17.219   8.708  0.0763  0.1227  0.1446
  444loPI   C4B 7104   9.769  17.153   8.268 -0.2103  0.3318 -0.1519
  445loPI    C1 7105  15.837   3.418  10.383  0.0293 -0.0451 -0.0644
  445loPI    C2 7106  16.156   3.370  10.619 -0.0077  0.1136  0.0190
  445loPI    C3 7107  15.875   3.638  10.714  0.1082  0.3726 -0.3435
  445loPI   PO4 7108  15.927   3.399  10.195 -0.0408  0.1469 -0.0493
  445loPI   GL1 7109  15.738   3.270   9.887  0.1824  0.0642 -0.0690
  445loPI   GL2 7110  15.529   3.174   9.799 -0.1862 -0.2287  0.1333
  445loPI   C1A 7111  15.881   3.475   9.565 -0.3353  0.0454 -0.0390
  445loPI   C2A 7112  15.988   3.536   9.159  0.1769  0.0589  0.0010
  445loPI   C3A 7113  16.032   3.557   8.824  0.1286  0.1484 -0.2271
  445loPI   C4A 7114  16.058   3.513   8.403 -0.3293 -0.0465  0.0144
  445loPI   C5A 7115  16.083   3.540   7.998 -0.1933  0.4329  0.1777
  445loPI   C6A 7116  16.071   3.896   7.771  0.0207 -0.2147 -0.2401
  445loPI   C1B 7117  15.598   3.143   9.334  0.0533 -0.3886  0.2662
  445loPI   C2B 7118  15.631   3.229   8.870  0.1327  0.0415  0.3016
  445loPI   C3B 7119  15.546   3.288   8.437 -0.0725  0.0878  0.0436
  445loPI   C4B 7120  15.604   3.588   8.026  0.2775  0.0797  0.1004
  446loPI    C1 7121   0.540  10.497  10.706  0.0311 -0.1308  0.0444
  446loPI    C2 7122   0.849  10.354  10.915 -0.0880  0.0581  0.3570
  446loPI    C3 7123   0.490  10.180  10.944 -0.0275 -0.1288  0.0349
  446loPI   PO4 7124   0.709  10.556  10.393  0.0397 -0.1845  0.3602
  446loPI   GL1 7125   0.749  10.429  10.037  0.0129  0.1980 -0.0753
  446loPI   GL2 7126   0.870  10.658   9.874  0.0658 -0.3030  0.0041
  446loPI   C1A 7127   0.499  10.294   9.697 -0.2411 -0.2298 -0.2216
  446loPI   C2A 7128   0.605  10.126   9.387 -0.0104 -0.1592 -0.3798
  446loPI   C3A 7129   0.540  10.067   9.013 -0.0802  0.3278  0.1169
  446loPI   C4A 7130   0.685  10.004   8.621  0.0214 -0.2381  0.0280
  446loPI   C5A 7131   0.723   9.891   8.166  0.0389  0.1621 -0.1171
  446loPI   C6A 7132   0.999  10.173   7.908  0.0869 -0.0550 -0.2745
  446loPI   C1B 7133   0.963  10.514   9.469 -0.1056  0.0413 -0.4135
  446loPI   C2B 7134   0.935  10.386   9.085 -0.1816 -0.0343 -0.1042
  446loPI   C3B 7135   1.110  10.339   8.624  0.0538 -0.0118 -0.0923
  446loPI   C4B 7136   1.124  10.200   8.405  0.0882  0.1467  0.0948
  447loPI    C1 7137  11.853  13.139  10.418  0.0274  0.1212  0.0442
  447loPI    C2 7138  12.198  13.308  10.304  0.1165 -0.1987 -0.1727
  447loPI    C3 7139  12.176  13.114  10.653  0.0554  0.1228  0.0060
  447loPI   PO4 7140  11.730  13.171  10.153 -0.0672  0.1735  0.1544
  447loPI   GL1 7141  11.764  12.857   9.745  0.0713 -0.0648  0.1320
  447loPI   GL2 7142  11.722  12.571   9.705 -0.2030  0.1678 -0.1007
  447loPI   C1A 7143  11.486  13.101   9.484 -0.1556 -0.4043  0.0244
  447loPI   C2A 7144  11.475  13.315   9.104 -0.0982  0.0296  0.2920
  447loPI   C3A 7145  11.630  13.290   8.716 -0.1480 -0.1039 -0.2159
  447loPI   C4A 7146  11.541  13.279   8.265  0.2764  0.1474  0.0018
  447loPI   C5A 7147  11.460  13.323   7.820  0.0280  0.0203  0.1527
  447loPI   C6A 7148  11.288  13.307   7.329  0.2023  0.0226 -0.2047
  447loPI   C1B 7149  11.742  12.659   9.252 -0.1245 -0.0742  0.1527
  447loPI   C2B 7150  11.615  12.790   8.820 -0.2730 -0.4892 -0.0126
  447loPI   C3B 7151  11.644  12.782   8.440  0.0389  0.4821 -0.2165
  447loPI   C4B 7152  11.508  12.871   8.023  0.2687 -0.0233  0.2264
  448loPI    C1 7153  10.818   7.122  10.912  0.2656  0.1456 -0.2154
  448loPI    C2 7154  11.057   6.820  11.021  0.0657  0.0004 -0.1738
  448loPI    C3 7155  10.966   7.108  11.283 -0.0511 -0.1083 -0.0936
  448loPI   PO4 7156  10.587   7.152  10.765 -0.4191  0.2667 -0.3881
  448loPI   GL1 7157  10.578   7.185  10.274  0.1662  0.2375 -0.3605
  448loPI   GL2 7158  10.349   6.913  10.391 -0.1588 -0.1672 -0.3628
  448loPI   C1A 7159  10.693   7.047   9.855 -0.1306 -0.0532  0.1454
  448loPI   C2A 7160  10.655   7.042   9.460  0.0820 -0.0542  0.2807
  448loPI   C3A 7161  10.709   6.997   9.029 -0.1220  0.2520  0.0606
  448loPI   C4A 7162  10.747   7.044   8.735  0.0487  0.1886  0.0775
  448loPI   C5A 7163  10.789   7.118   8.329 -0.2695  0.1339  0.1938
  448loPI   C6A 7164  10.637   7.305   8.001  0.1316 -0.2072 -0.0417
  448loPI   C1B 7165  10.278   6.751   9.982 -0.2072 -0.0599  0.0479
  448loPI   C2B 7166  10.306   6.726   9.547 -0.2131  0.1981 -0.0503
  448loPI   C3B 7167  10.360   6.688   9.131  0.0959 -0.2161 -0.1320
  448loPI   C4B 7168  10.329   6.658   8.724 -0.0029  0.1308  0.1257
  449loPI    C1 7169  13.600   8.752  10.641  0.0256  0.1253  0.2426
  449loPI    C2 7170  13.731   8.510  10.931  0.0298 -0.1820 -0.0091
  449loPI    C3 7171  13.368   8.675  10.958  0.0120 -0.2446  0.1478
  449loPI   PO4 7172  13.561   8.689  10.462  0.1628 -0.2209 -0.0419
  449loPI   GL1 7173  13.387   8.347  10.103 -0.1033  0.2626 -0.1846
  449loPI   GL2 7174  13.077   8.190  10.095  0.0589  0.0638 -0.1536
  449loPI   C1A 7175  13.362   8.440   9.624  0.0586 -0.0953  0.1727
  449loPI   C2A 7176  13.415   8.538   9.240 -0.0220  0.1472  0.0484
  449loPI   C3A 7177  13.356   8.456   8.778 -0.3114 -0.0020  0.0367
  449loPI   C4A 7178  13.288   8.420   8.263 -0.1518 -0.0389  0.0227
  449loPI   C5A 7179  12.846   8.196   7.988  0.1297  0.0341 -0.1694
  449loPI   C6A 7180  12.451   7.972   7.881 -0.1973  0.1150  0.2877
  449loPI   C1B 7181  12.890   8.135   9.658  0.1843 -0.1374  0.2845
  449loPI   C2B 7182  12.940   8.174   9.276  0.2074  0.2089 -0.0469
  449loPI   C3B 7183  12.928   8.097   8.904 -0.0401  0.4529 -0.1365
  449loPI   C4B 7184  12.945   8.178   8.496  0.0139 -0.1212 -0.4090
  450loPI    C1 7185   8.351  11.081  10.813 -0.2070 -0.0988 -0.0328
  450loPI    C2 7186   8.627  10.965  11.079  0.0159  0.0613 -0.1907
  450loPI    C3 7187   8.273  11.102  11.205  0.0067 -0.1454  0.0140
  450loPI   PO4 7188   8.484  10.921  10.569 -0.0143  0.1561 -0.1994
  450loPI   GL1 7189   8.656  11.066  10.152 -0.2702 -0.0506  0.0404
  450loPI   GL2 7190   8.312  11.057   9.939  0.1843  0.0772  0.0018
  450loPI   C1A 7191   8.796  10.798   9.811 -0.1850 -0.0868  0.1815
  450loPI   C2A 7192   8.803  10.815   9.401 -0.0344 -0.0684  0.0989
  450loPI   C3A 7193   8.808  10.817   8.996 -0.1678  0.1284 -0.3187
  450loPI   C4A 7194   8.836  10.770   8.620 -0.0304  0.0053  0.2591
  450loPI   C5A 7195   9.048  11.012   8.292 -0.1353  0.2892 -0.1009
  450loPI   C6A 7196   9.102  11.165   7.869 -0.2159  0.0151  0.0695
  450loPI   C1B 7197   8.410  10.976   9.577 -0.0322 -0.0418  0.0915
  450loPI   C2B 7198   8.292  10.933   9.116 -0.0023  0.1614 -0.1093
  450loPI   C3B 7199   8.308  11.020   8.717 -0.0001  0.2555  0.1182
  450loPI   C4B 7200   8.207  10.869   8.366 -0.0852 -0.4266  0.1997
  451loPI    C1 7201  17.881   8.192  10.805  0.0052  0.0315 -0.0468
  451loPI    C2 7202  17.833   8.261  11.196  0.0301 -0.2454  0.0072
  451loPI    C3 7203  17.713   8.534  10.928  0.1075 -0.0088  0.2097
  451loPI   PO4 7204  17.778   7.976  10.616  0.1245  0.0034  0.0403
  451loPI   GL1 7205  17.720   8.081  10.167 -0.0375 -0.2004 -0.0999
  451loPI   GL2 7206  18.000   8.235  10.013  0.1565 -0.1133  0.0703
  451loPI   C1A 7207  17.622   7.906   9.824 -0.0276  0.0911 -0.1631
  451loPI   C2A 7208  17.648   7.804   9.399 -0.1064  0.0555 -0.2553
  451loPI   C3A 7209  17.593   7.769   9.050 -0.3028  0.3374  0.5374
  451loPI   C4A 7210  17.619   7.647   8.566 -0.0927  0.0423 -0.0343
  451loPI   C5A 7211  17.892   7.659   8.117  0.0809  0.0630  0.3788
  451loPI   C6A 7212  17.574   7.636   7.817  0.0255 -0.1571 -0.1868
  451loPI   C1B 7213  18.024   8.143   9.629 -0.1185  0.0366  0.1063
  451loPI   C2B 7214  18.091   8.046   9.207  0.0344 -0.1005  0.5000
  451loPI   C3B 7215  18.088   8.021   8.834  0.2328  0.2205  0.2737
  451loPI   C4B 7216  18.098   8.032   8.377 -0.2569  0.1670 -0.2662
  452loPI    C1 7217  16.585  12.881  10.068 -0.1385  0.2218 -0.0701
  452loPI    C2 7218  16.213  13.023  10.098 -0.2387 -0.0472 -0.0209
  452loPI    C3 7219  16.339  12.737  10.348 -0.0647 -0.0984 -0.1655
  452loPI   PO4 7220  16.655  12.766   9.762  0.1660 -0.2102 -0.1185
  452loPI   GL1 7221  16.844  12.646   9.369  0.0164  0.2033  0.1403
  452loPI   GL2 7222  16.715  12.962   9.250 -0.2424  0.0223  0.0493
  452loPI   C1A 7223  17.089  12.673   8.893 -0.0319  0.0277 -0.5461
  452loPI   C2A 7224  17.099  12.764   8.425  0.0693  0.0536 -0.0096
  452loPI   C3A 7225  17.381  12.695   8.105 -0.0477 -0.1573 -0.2034
  452loPI   C4A 7226  17.474  12.942   7.739 -0.3573  0.2131  0.0306
  452loPI   C5A 7227  17.763  13.142   7.434  0.0790 -0.1884  0.1413
  452loPI   C6A 7228  18.115  13.157   7.151 -0.0389  0.1062  0.3101
  452loPI   C1B 7229  16.607  12.651   8.970  0.3118 -0.1158  0.0953
  452loPI   C2B 7230  16.610  12.610   8.602  0.2822  0.0366  0.3706
  452loPI   C3B 7231  16.710  12.484   8.226 -0.0515 -0.0436 -0.0645
  452loPI   C4B 7232  16.943  12.652   7.895  0.0368 -0.1383 -0.0432
  453loPI    C1 7233   0.502   2.524  10.724 -0.0411  0.3154 -0.0710
  453loPI    C2 7234   0.636   2.705  11.054 -0.0437 -0.1148  0.1731
  453loPI    C3 7235   0.243   2.693  10.978 -0.0342  0.0987  0.0825
  453loPI   PO4 7236   0.598   2.672  10.470 -0.0617  0.1254 -0.0386
  453loPI   GL1 7237   0.682   2.821  10.097  0.2328  0.0774  0.0613
  453loPI   GL2 7238   0.926   2.982  10.196 -0.1166  0.0042  0.1138
  453loPI   C1A 7239   0.754   2.732   9.641 -0.3260 -0.1491  0.0497
  453loPI   C2A 7240   0.892   2.690   9.150 -0.1810 -0.0178  0.0323
  453loPI   C3A 7241   0.897   2.745   8.679  0.0790 -0.1821  0.0884
  453loPI   C4A 7242   0.884   2.740   8.254 -0.2356  0.2577 -0.1343
  453loPI   C5A 7243   1.074   3.158   8.067 -0.1594 -0.1357 -0.0543
  453loPI   C6A 7244   0.922   3.562   7.989  0.0430  0.3774 -0.1980
  453loPI   C1B 7245   1.165   2.985   9.837 -0.0876 -0.3171  0.1441
  453loPI   C2B 7246   1.329   3.040   9.511  0.0883  0.0157  0.0119
  453loPI   C3B 7247   1.358   3.069   9.093 -0.4092  0.0886  0.0454
  453loPI   C4B 7248   1.360   3.084   8.625 -0.0620 -0.1931  0.1420
  454loPI    C1 7249   7.609   7.639  11.175 -0.0733  0.1236  0.1618
  454loPI    C2 7250   7.578   7.917  11.462 -0.5521  0.0971  0.1445
  454loPI    C3 7251   7.544   7.529  11.554  0.2032  0.0240  0.1826
  454loPI   PO4 7252   7.364   7.764  10.901 -0.1053 -0.2688  0.0114
  454loPI   GL1 7253   7.219   7.654  10.538 -0.0205 -0.0477 -0.0719
  454loPI   GL2 7254   7.336   7.963  10.422  0.1783  0.0665 -0.2032
  454loPI   C1A 7255   7.085   7.503  10.090 -0.1175 -0.1413 -0.0990
  454loPI   C2A 7256   6.982   7.533   9.615 -0.2321  0.0128  0.0723
  454loPI   C3A 7257   6.984   7.513   9.094  0.1356  0.0150  0.0122
  454loPI   C4A 7258   7.012   7.499   8.668 -0.1348 -0.1654  0.1084
  454loPI   C5A 7259   6.871   7.611   8.247 -0.2321  0.2159  0.1594
  454loPI   C6A 7260   6.864   7.363   7.841  0.1159  0.1281  0.2415
  454loPI   C1B 7261   7.489   7.778   9.994 -0.1887 -0.0818  0.0003
  454loPI   C2B 7262   7.442   7.784   9.669 -0.0925  0.3637  0.0579
  454loPI   C3B 7263   7.487   7.786   9.197 -0.0787  0.3978 -0.1183
  454loPI   C4B 7264   7.410   7.787   8.813  0.1030 -0.0002  0.1342
  455loPI    C1 7265  15.288   4.233  10.707 -0.2643  0.0379  0.1571
  455loPI    C2 7266  15.457   4.396  11.032 -0.0205  0.0671  0.0182
  455loPI    C3 7267  15.550   4.022  10.923 -0.0992  0.0586 -0.0210
  455loPI   PO4 7268  15.322   4.496  10.452  0.1478 -0.2662 -0.0920
  455loPI   GL1 7269  15.299   4.557   9.941 -0.0981  0.0263 -0.1144
  455loPI   GL2 7270  15.258   4.777   9.686  0.0320  0.0248 -0.2555
  455loPI   C1A 7271  15.461   4.353   9.533 -0.3575  0.0805 -0.2071
  455loPI   C2A 7272  15.421   4.191   9.184 -0.0598 -0.2087  0.2054
  455loPI   C3A 7273  15.379   4.253   8.735  0.1333 -0.2409 -0.3677
  455loPI   C4A 7274  15.307   4.424   8.375  0.0348  0.1639 -0.0909
  455loPI   C5A 7275  15.088   4.692   8.183  0.0120 -0.1427 -0.2167
  455loPI   C6A 7276  15.072   4.737   7.735  0.1853  0.0543  0.2228
  455loPI   C1B 7277  15.246   4.759   9.254 -0.1243 -0.1087  0.2144
  455loPI   C2B 7278  15.285   4.768   8.801  0.1029  0.0191 -0.0511
  455loPI   C3B 7279  15.508   4.994   8.300  0.2308  0.1482 -0.0318
  455loPI   C4B 7280  15.620   5.273   8.046  0.2224 -0.2054 -0.1926
  456loPI    C1 7281   6.630   1.623  10.923  0.1184 -0.1033 -0.0903
  456loPI    C2 7282   6.478   1.989  10.980  0.0442 -0.1094 -0.2441
  456loPI    C3 7283   6.855   1.910  11.088  0.0649  0.0164 -0.2231
  456loPI   PO4 7284   6.578   1.567  10.742 -0.2719  0.1703 -0.1483
  456loPI   GL1 7285   6.346   1.549  10.421 -0.0768 -0.3772  0.0006
  456loPI   GL2 7286   6.238   1.822  10.561  0.0595 -0.1224 -0.1213
  456loPI   C1A 7287   6.212   1.473   9.974 -0.2044 -0.1217 -0.0628
  456loPI   C2A 7288   6.032   1.594   9.620 -0.0477  0.0416  0.0650
  456loPI   C3A 7289   6.114   1.638   9.242 -0.2730  0.0143  0.1147
  456loPI   C4A 7290   6.042   1.722   8.904  0.0028  0.1779  0.1229
  456loPI   C5A 7291   5.993   1.640   8.523  0.3644 -0.2225  0.3622
  456loPI   C6A 7292   5.933   1.330   8.216  0.1703 -0.1929  0.0584
  456loPI   C1B 7293   6.209   2.000  10.206  0.0806 -0.0641  0.0558
  456loPI   C2B 7294   6.184   2.026   9.862  0.2673 -0.0613 -0.1446
  456loPI   C3B 7295   6.059   2.094   9.515 -0.0020 -0.0590  0.2814
  456loPI   C4B 7296   6.022   2.254   9.114 -0.0661  0.2443 -0.1586
  457loPI    C1 7297   2.599   3.457  11.164  0.0715  0.0341 -0.0572
  457loPI    C2 7298   2.205   3.445  11.227  0.0761  0.0208 -0.0311
  457loPI    C3 7299   2.449   3.583  11.512  0.0906  0.0251 -0.0456
  457loPI   PO4 7300   2.547   3.601  10.905 -0.2210  0.2028  0.0744
  457loPI   GL1 7301   2.644   3.760  10.459 -0.1821  0.3291  0.1071
  457loPI   GL2 7302   2.479   3.537  10.418 -0.2972  0.1943 -0.1755
  457loPI   C1A 7303   2.853   3.856  10.118 -0.0599  0.1914 -0.1624
  457loPI   C2A 7304   2.940   3.841   9.807 -0.0339  0.0230 -0.0254
  457loPI   C3A 7305   3.024   3.854   9.430 -0.0164  0.1353 -0.1414
  457loPI   C4A 7306   2.950   3.888   8.926 -0.0436  0.2317  0.3026
  457loPI   C5A 7307   2.940   3.815   8.459 -0.1717  0.2671 -0.4861
  457loPI   C6A 7308   2.599   3.809   8.117  0.2627  0.0818  0.0179
  457loPI   C1B 7309   2.492   3.577   9.929 -0.1890 -0.0416 -0.0774
  457loPI   C2B 7310   2.542   3.551   9.594  0.0102 -0.0845 -0.0686
  457loPI   C3B 7311   2.660   3.584   9.136 -0.0516  0.0459 -0.3993
  457loPI   C4B 7312   2.702   3.507   8.707  0.1530  0.0916  0.0553
  458loPI    C1 7313   5.239   8.854  10.902  0.4174 -0.2425  0.0328
  458loPI    C2 7314   5.145   8.586  11.184  0.0510  0.0279  0.1764
  458loPI    C3 7315   5.220   8.965  11.286  0.2660  0.0506 -0.0560
  458loPI   PO4 7316   5.134   8.666  10.637 -0.4363 -0.0640 -0.3374
  458loPI   GL1 7317   4.991   8.641  10.298  0.0979 -0.2164  0.0392
  458loPI   GL2 7318   4.737   8.450  10.206 -0.1145 -0.0497 -0.1875
  458loPI   C1A 7319   5.014   8.783   9.886 -0.0076 -0.0988  0.0877
  458loPI   C2A 7320   5.012   8.705   9.447 -0.2386  0.3046  0.1993
  458loPI   C3A 7321   5.064   8.796   8.945  0.4194 -0.1353 -0.2067
  458loPI   C4A 7322   5.204   8.911   8.529  0.3679  0.2736  0.1215
  458loPI   C5A 7323   4.975   8.773   8.197 -0.3782  0.0397  0.2117
  458loPI   C6A 7324   4.720   8.446   8.053 -0.1782  0.2033 -0.1804
  458loPI   C1B 7325   4.653   8.481   9.738  0.1259  0.0396 -0.2017
  458loPI   C2B 7326   4.524   8.407   9.296  0.1852  0.0006  0.0099
  458loPI   C3B 7327   4.646   8.409   8.942  0.2518 -0.6111  0.1664
  458loPI   C4B 7328   4.691   8.422   8.493 -0.0555  0.0529  0.0980
  459loPI    C1 7329  12.937   8.570  10.739 -0.2571 -0.0380 -0.0960
  459loPI    C2 7330  12.936   8.966  10.793 -0.1228 -0.0513  0.0104
  459loPI    C3 7331  12.716   8.732  11.031 -0.0201 -0.0591  0.0985
  459loPI   PO4 7332  12.960   8.566  10.414  0.1818 -0.1898 -0.1354
  459loPI   GL1 7333  12.995   8.704   9.925  0.2463  0.0555 -0.1726
  459loPI   GL2 7334  12.805   8.950  10.079  0.1276  0.2258  0.3192
  459loPI   C1A 7335  12.967   8.674   9.519 -0.1642  0.1121 -0.1165
  459loPI   C2A 7336  12.889   8.658   9.068 -0.0669 -0.0470 -0.0884
  459loPI   C3A 7337  12.891   8.665   8.683  0.0615 -0.2372 -0.0458
  459loPI   C4A 7338  12.833   8.610   8.307  0.0681 -0.0672  0.2003
  459loPI   C5A 7339  12.657   8.830   8.005  0.2615 -0.1156  0.1825
  459loPI   C6A 7340  12.388   9.042   7.609 -0.2317  0.2967  0.1219
  459loPI   C1B 7341  12.852   9.096   9.695  0.1728 -0.1823  0.1137
  459loPI   C2B 7342  12.769   9.148   9.325 -0.0461  0.0566 -0.0843
  459loPI   C3B 7343  12.765   9.131   8.936 -0.1120 -0.0775 -0.0312
  459loPI   C4B 7344  12.671   9.077   8.499 -0.0520  0.1124 -0.2615
  460loPI    C1 7345   7.151  10.542  10.954  0.2990 -0.1489 -0.0458
  460loPI    C2 7346   7.113  10.870  10.729  0.0082 -0.1242  0.0353
  460loPI    C3 7347   7.313  10.887  11.075 -0.2217  0.0318  0.1632
  460loPI   PO4 7348   7.176  10.341  10.725 -0.1278  0.0086  0.2722
  460loPI   GL1 7349   7.524  10.412  10.408  0.0441  0.1566 -0.1110
  460loPI   GL2 7350   7.431  10.777  10.325  0.0723  0.1657 -0.1742
  460loPI   C1A 7351   7.441  10.186  10.029 -0.0715  0.3465  0.0283
  460loPI   C2A 7352   7.604  10.342   9.559  0.1138 -0.0429 -0.1893
  460loPI   C3A 7353   7.544  10.226   9.134  0.1380  0.0819 -0.0859
  460loPI   C4A 7354   7.479  10.327   8.667 -0.0347 -0.1159 -0.1409
  460loPI   C5A 7355   7.257  10.423   8.288 -0.1876  0.1728  0.1176
  460loPI   C6A 7356   7.340  10.449   7.893  0.0690  0.3309  0.1357
  460loPI   C1B 7357   7.434  10.715   9.884 -0.0921 -0.0147  0.1046
  460loPI   C2B 7358   7.365  10.833   9.488 -0.0185 -0.1885  0.0342
  460loPI   C3B 7359   7.445  10.807   9.092 -0.2114  0.0600  0.0019
  460loPI   C4B 7360   7.357  10.783   8.707  0.2966  0.2261 -0.0446
  461loPI    C1 7361  10.781   5.421  10.948  0.2878 -0.3563  0.0383
  461loPI    C2 7362  10.402   5.304  10.997  0.1486  0.0610 -0.0029
  461loPI    C3 7363  10.634   5.368  11.316  0.1859 -0.1911  0.0224
  461loPI   PO4 7364  10.761   5.486  10.719 -0.0786 -0.1631  0.0407
  461loPI   GL1 7365  10.674   5.589  10.267 -0.5505  0.0517 -0.0381
  461loPI   GL2 7366  10.549   5.833  10.410 -0.2415 -0.0155 -0.2324
  461loPI   C1A 7367  10.595   5.678   9.856  0.2130 -0.2706 -0.2760
  461loPI   C2A 7368  10.447   5.698   9.420 -0.0967 -0.0793  0.1295
  461loPI   C3A 7369  10.548   5.608   9.046 -0.0845 -0.0414 -0.2111
  461loPI   C4A 7370  10.496   5.613   8.655 -0.5153 -0.1283 -0.0250
  461loPI   C5A 7371  10.405   5.453   8.272 -0.1867  0.0068 -0.0847
  461loPI   C6A 7372  10.099   5.355   7.785  0.4859 -0.0071  0.0223
  461loPI   C1B 7373  10.134   5.818  10.097 -0.1394 -0.1182 -0.1499
  461loPI   C2B 7374  10.011   5.895   9.710  0.2406  0.1244 -0.1166
  461loPI   C3B 7375   9.954   5.901   9.255  0.0127 -0.2906  0.2193
  461loPI   C4B 7376   9.943   5.872   8.838 -0.2167  0.4159  0.0537
  462loPI    C1 7377  13.409   9.469  10.520 -0.2325 -0.1531  0.0273
  462loPI    C2 7378  13.549   9.581  10.878  0.2254  0.0619 -0.2112
  462loPI    C3 7379  13.427   9.205  10.820 -0.2237  0.1214  0.2739
  462loPI   PO4 7380  13.504   9.586  10.385 -0.2023  0.2481 -0.1207
  462loPI   GL1 7381  13.610   9.603  10.046  0.1138 -0.0892  0.0259
  462loPI   GL2 7382  13.630   9.361   9.778 -0.0819 -0.0337 -0.5917
  462loPI   C1A 7383  13.649   9.817   9.590  0.0875 -0.1231 -0.1423
  462loPI   C2A 7384  13.711   9.799   9.103 -0.2578  0.1359 -0.0698
  462loPI   C3A 7385  13.601   9.787   8.697 -0.3792 -0.3101 -0.0148
  462loPI   C4A 7386  13.524   9.679   8.213 -0.2663  0.2263  0.1635
  462loPI   C5A 7387  13.532   9.676   7.745  0.0792  0.1212  0.1265
  462loPI   C6A 7388  13.380   9.920   7.409  0.0449  0.1176 -0.4621
  462loPI   C1B 7389  13.729   9.373   9.378  0.1071  0.1817  0.1736
  462loPI   C2B 7390  13.792   9.314   8.977  0.1420  0.0894 -0.0091
  462loPI   C3B 7391  13.621   9.329   8.552 -0.0448  0.2389 -0.0628
  462loPI   C4B 7392  13.617   9.151   8.161  0.4954  0.0729 -0.3381
  463loPI    C1 7393   9.463  18.121  10.515  0.0650  0.0897 -0.0309
  463loPI    C2 7394   9.518  17.877  10.828  0.2103  0.0636 -0.0760
  463loPI    C3 7395   9.728  17.822  10.492 -0.1620 -0.0959 -0.2892
  463loPI   PO4 7396   9.245  18.164  10.407 -0.1168 -0.1297  0.3632
  463loPI   GL1 7397   9.356  18.514  10.120 -0.1253 -0.4132  0.2396
  463loPI   GL2 7398   9.511  18.372  10.001 -0.1657 -0.1073  0.2405
  463loPI   C1A 7399   9.267  18.443   9.628  0.2448 -0.1381  0.0247
  463loPI   C2A 7400   9.178  18.454   9.210  0.1566 -0.1328 -0.0055
  463loPI   C3A 7401   9.226  18.439   8.759  0.1082 -0.0899  0.0588
  463loPI   C4A 7402   9.130  18.498   8.428  0.0397 -0.1752  0.1494
  463loPI   C5A 7403   9.493  18.474   8.206 -0.1078  0.0287  0.2188
  463loPI   C6A 7404   9.756  18.468   7.788 -0.0493  0.1671 -0.0127
  463loPI   C1B 7405   9.727  18.266   9.545  0.1133  0.0251 -0.0172
  463loPI   C2B 7406   9.634  18.249   9.088 -0.0917  0.2066  0.4888
  463loPI   C3B 7407   9.613  18.189   8.603 -0.3547  0.1187  0.1327
  463loPI   C4B 7408   9.714  18.023   8.227 -0.0428  0.0311 -0.0179
  464loPI    C1 7409   1.631  17.720  10.556  0.1186  0.0768 -0.0823
  464loPI    C2 7410   1.285  17.539  10.641 -0.0729  0.3641 -0.2326
  464loPI    C3 7411   1.508  17.692  10.935 -0.2380  0.4705 -0.1611
  464loPI   PO4 7412   1.798  17.601  10.398  0.1099  0.0759 -0.0947
  464loPI   GL1 7413   1.827  17.311  10.075 -0.0938 -0.0979 -0.0131
  464loPI   GL2 7414   1.908  16.962  10.042  0.0188  0.1632 -0.3593
  464loPI   C1A 7415   2.050  17.402   9.696 -0.1596  0.2322 -0.0024
  464loPI   C2A 7416   2.007  17.400   9.217  0.1125 -0.2865  0.2776
  464loPI   C3A 7417   2.046  17.344   8.756 -0.0218  0.2634  0.0701
  464loPI   C4A 7418   1.989  17.211   8.362 -0.0454  0.3121 -0.2748
  464loPI   C5A 7419   1.705  16.946   8.154  0.0484 -0.1860  0.0209
  464loPI   C6A 7420   1.625  16.900   7.731  0.3657 -0.0433  0.4924
  464loPI   C1B 7421   2.113  16.885   9.606  0.1136  0.2358  0.3327
  464loPI   C2B 7422   2.094  16.945   9.181 -0.0350 -0.2632  0.0912
  464loPI   C3B 7423   2.140  16.853   8.719  0.0914  0.3612 -0.0956
  464loPI   C4B 7424   2.262  16.729   8.315  0.1288  0.0792  0.0404
  465loPI    C1 7425  16.580  17.227  10.006  0.0133 -0.1374  0.0222
  465loPI    C2 7426  16.765  17.002  10.281  0.0005 -0.1383  0.0302
  465loPI    C3 7427  16.529  17.304  10.395 -0.3004 -0.3687  0.0306
  465loPI   PO4 7428  16.588  16.985   9.840 -0.2638 -0.2521  0.1416
  465loPI   GL1 7429  16.601  16.995   9.383 -0.2728  0.0513  0.0299
  465loPI   GL2 7430  16.588  17.268   9.427  0.1105  0.0484  0.2035
  465loPI   C1A 7431  16.487  16.893   9.010  0.0562 -0.1657  0.0463
  465loPI   C2A 7432  16.533  16.964   8.656  0.1117  0.1380 -0.2196
  465loPI   C3A 7433  16.613  17.079   8.222  0.1483  0.2867 -0.0875
  465loPI   C4A 7434  16.702  17.050   7.820  0.3121 -0.0178 -0.1431
  465loPI   C5A 7435  16.875  17.103   7.568  0.1706  0.2340  0.0938
  465loPI   C6A 7436  17.235  17.311   7.356  0.0513 -0.1191  0.2116
  465loPI   C1B 7437  16.737  17.362   9.039 -0.3550 -0.2071 -0.0837
  465loPI   C2B 7438  16.834  17.389   8.554 -0.0815 -0.4819  0.1865
  465loPI   C3B 7439  17.036  17.224   8.100  0.1630 -0.0806 -0.0885
  465loPI   C4B 7440  17.361  17.272   7.807 -0.1875  0.0356 -0.2227
  466loPI    C1 7441   7.816   6.950  10.914 -0.0996  0.1719  0.0123
  466loPI    C2 7442   7.521   6.806  11.143 -0.0409 -0.1023 -0.0798
  466loPI    C3 7443   7.706   7.146  11.245 -0.1066 -0.1497  0.2057
  466loPI   PO4 7444   7.726   6.876  10.652  0.0790 -0.1330  0.1236
  466loPI   GL1 7445   7.520   6.553  10.366 -0.2963 -0.1855  0.0620
  466loPI   GL2 7446   7.243   6.619  10.331  0.1907 -0.1443  0.3850
  466loPI   C1A 7447   7.612   6.791   9.985 -0.0236  0.1088  0.0699
  466loPI   C2A 7448   7.493   6.851   9.526  0.0288  0.1409 -0.0464
  466loPI   C3A 7449   7.593   6.886   9.123  0.1094  0.2017  0.1769
  466loPI   C4A 7450   7.630   6.885   8.735 -0.1122  0.2699 -0.2172
  466loPI   C5A 7451   7.550   6.871   8.395 -0.0373 -0.0767  0.3377
  466loPI   C6A 7452   7.797   7.150   8.064  0.1261  0.1922 -0.0075
  466loPI   C1B 7453   7.161   6.576   9.906 -0.2481 -0.2305 -0.0492
  466loPI   C2B 7454   7.155   6.448   9.424  0.2528 -0.0190 -0.2487
  466loPI   C3B 7455   7.162   6.584   8.938  0.0356 -0.0506 -0.1295
  466loPI   C4B 7456   7.127   6.602   8.498 -0.1219 -0.2553  0.2218
  467loPI    C1 7457   1.751   9.499  10.749  0.0438  0.0224 -0.0713
  467loPI    C2 7458   1.718   9.861  10.916 -0.3571 -0.0466  0.0109
  467loPI    C3 7459   1.691   9.533  11.143 -0.1556 -0.1330 -0.0869
  467loPI   PO4 7460   1.839   9.589  10.541  0.0544  0.0540  0.0114
  467loPI   GL1 7461   1.704   9.495  10.088 -0.1296  0.1608 -0.0570
  467loPI   GL2 7462   1.596   9.243   9.999  0.1815  0.0069  0.2369
  467loPI   C1A 7463   2.006   9.604   9.779 -0.0478 -0.1219 -0.0956
  467loPI   C2A 7464   2.012   9.502   9.312 -0.2327  0.0646 -0.2731
  467loPI   C3A 7465   2.040   9.428   8.858  0.1585 -0.2199 -0.4256
  467loPI   C4A 7466   1.993   9.458   8.395 -0.0424  0.1370  0.2189
  467loPI   C5A 7467   2.114   9.816   8.063  0.2781 -0.2999 -0.0106
  467loPI   C6A 7468   2.018  10.243   7.918 -0.0201  0.2762 -0.0400
  467loPI   C1B 7469   1.667   9.263   9.564 -0.6121  0.0006  0.0521
  467loPI   C2B 7470   1.627   9.215   9.134  0.2889  0.1350 -0.0491
  467loPI   C3B 7471   1.688   9.151   8.660 -0.0070  0.3252  0.0496
  467loPI   C4B 7472   1.741   9.025   8.214  0.0959 -0.1687  0.0072
  468loPI    C1 7473   3.349  16.937  10.787  0.0428  0.4752 -0.0751
  468loPI    C2 7474   3.443  16.882  11.172 -0.0346 -0.0602 -0.1242
  468loPI    C3 7475   3.072  16.991  11.070 -0.0808 -0.1579 -0.0613
  468loPI   PO4 7476   3.508  16.664  10.738  0.1837  0.0079  0.0223
  468loPI   GL1 7477   3.472  16.536  10.380 -0.2803  0.1328  0.1964
  468loPI   GL2 7478   3.717  16.691  10.313  0.2896  0.0983 -0.0568
  468loPI   C1A 7479   3.302  16.684  10.029 -0.0107  0.0377 -0.1200
  468loPI   C2A 7480   3.345  16.736   9.631  0.0306  0.3034  0.3165
  468loPI   C3A 7481   3.462  16.866   9.180 -0.0958 -0.1209  0.2053
  468loPI   C4A 7482   3.483  16.911   8.716 -0.3290  0.0977 -0.2701
  468loPI   C5A 7483   3.649  17.062   8.297  0.0113  0.1408 -0.0162
  468loPI   C6A 7484   3.501  17.179   7.924  0.0654 -0.0584  0.1449
  468loPI   C1B 7485   3.691  16.933  10.107  0.2332  0.1802  0.0196
  468loPI   C2B 7486   3.756  17.141   9.728 -0.3765  0.0430  0.3160
  468loPI   C3B 7487   3.786  17.217   9.332 -0.1785  0.0284 -0.3536
  468loPI   C4B 7488   3.921  17.147   8.930  0.2221  0.0835  0.0519
  469loPI    C1 7489   3.435   9.340  11.038 -0.0381  0.0371  0.0254
  469loPI    C2 7490   3.394   9.020  11.275  0.2658 -0.0896 -0.0867
  469loPI    C3 7491   3.495   9.374  11.432 -0.2287 -0.0043  0.0589
  469loPI   PO4 7492   3.509   9.182  10.777 -0.2738 -0.1963  0.0250
  469loPI   GL1 7493   3.550   8.924  10.413  0.0347  0.1275  0.1554
  469loPI   GL2 7494   3.537   9.096  10.128  0.0810  0.3945 -0.1332
  469loPI   C1A 7495   3.604   8.585  10.094  0.0647 -0.2840  0.0760
  469loPI   C2A 7496   3.691   8.379   9.647 -0.3771 -0.4380 -0.2853
  469loPI   C3A 7497   3.728   8.330   9.182  0.0280  0.0260 -0.1080
  469loPI   C4A 7498   3.721   8.320   8.743 -0.0447 -0.1413  0.0382
  469loPI   C5A 7499   3.727   8.205   8.250  0.0768 -0.2363  0.1333
  469loPI   C6A 7500   3.736   8.105   7.771  0.1771 -0.0567  0.0684
  469loPI   C1B 7501   3.497   9.370   9.812 -0.0435 -0.1410  0.3857
  469loPI   C2B 7502   3.499   9.331   9.366  0.0265  0.0680  0.2185
  469loPI   C3B 7503   3.506   9.351   8.992 -0.2076  0.2159 -0.1149
  469loPI   C4B 7504   3.644   9.265   8.579  0.1245 -0.0751 -0.1092
  470loPI    C1 7505  17.558   5.173  10.762  0.0073 -0.1060 -0.0998
  470loPI    C2 7506  17.734   5.503  10.903 -0.3794  0.0221  0.0972
  470loPI    C3 7507  17.691   5.183  11.139  0.0223 -0.1867 -0.1027
  470loPI   PO4 7508  17.510   5.277  10.479  0.0490 -0.1085  0.1849
  470loPI   GL1 7509  17.643   5.425  10.122 -0.2281 -0.0127 -0.1527
  470loPI   GL2 7510  17.736   5.632  10.069 -0.1812  0.0367  0.0563
  470loPI   C1A 7511  17.583   5.318   9.654 -0.1363 -0.0383 -0.2241
  470loPI   C2A 7512  17.612   5.424   9.182  0.0907 -0.0864  0.0538
  470loPI   C3A 7513  17.553   5.366   8.737 -0.7566  0.0113 -0.4513
  470loPI   C4A 7514  17.575   5.429   8.297 -0.2944 -0.0621  0.1591
  470loPI   C5A 7515  17.248   5.700   7.882 -0.1154 -0.0134 -0.1128
  470loPI   C6A 7516  17.000   6.064   7.853  0.0414  0.3699 -0.0694
  470loPI   C1B 7517  17.990   5.806   9.761  0.1142  0.0991 -0.2533
  470loPI   C2B 7518  17.981   5.708   9.393  0.3490  0.0420  0.0978
  470loPI   C3B 7519  18.017   5.680   9.034 -0.2637  0.0626 -0.0052
  470loPI   C4B 7520  17.903   5.732   8.662  0.0216  0.1871 -0.1190
  471loPI    C1 7521  16.148  18.023  10.064  0.0101  0.1890  0.0583
  471loPI    C2 7522  16.419  18.074  10.353  0.0012 -0.0406  0.1096
  471loPI    C3 7523  16.294  17.706  10.260  0.0793  0.0213 -0.2567
  471loPI   PO4 7524  16.262  18.082   9.830  0.0116 -0.1734  0.0267
  471loPI   GL1 7525  16.353  18.119   9.417  0.0632 -0.1322 -0.1959
  471loPI   GL2 7526  16.375  18.442   9.564 -0.1592  0.1466 -0.0341
  471loPI   C1A 7527  16.053  18.038   9.074  0.1211 -0.0980 -0.4214
  471loPI   C2A 7528  16.206  18.034   8.659 -0.0215  0.1828  0.1199
  471loPI   C3A 7529  16.255  17.966   8.174  0.0848 -0.0635  0.0902
  471loPI   C4A 7530  16.297  17.897   7.737 -0.0133  0.2957 -0.0312
  471loPI   C5A 7531  16.660  17.725   7.407 -0.1157  0.0825  0.0252
  471loPI   C6A 7532  16.963  17.563   7.064 -0.0764  0.3464  0.3319
  471loPI   C1B 7533  16.448  18.356   9.009 -0.4872 -0.1445  0.1933
  471loPI   C2B 7534  16.553  18.414   8.587  0.1053  0.3379  0.1645
  471loPI   C3B 7535  16.701  18.362   8.215 -0.0609  0.0845 -0.0538
  471loPI   C4B 7536  16.729  18.106   7.806 -0.0612 -0.0956  0.0237
  472loPI    C1 7537  13.106   1.485  10.023  0.1009 -0.0387  0.0349
  472loPI    C2 7538  13.394   1.574  10.285  0.0188  0.0408  0.0991
  472loPI    C3 7539  13.075   1.364  10.403 -0.1882  0.3766  0.1517
  472loPI   PO4 7540  13.281   1.374   9.806 -0.2086  0.1776 -0.0699
  472loPI   GL1 7541  13.296   1.297   9.386 -0.1765 -0.2543  0.0074
  472loPI   GL2 7542  13.451   1.604   9.420 -0.1966 -0.2002 -0.2989
  472loPI   C1A 7543  13.068   1.295   8.908 -0.1655 -0.3558 -0.1208
  472loPI   C2A 7544  13.013   1.265   8.480 -0.1781 -0.2783 -0.2966
  472loPI   C3A 7545  13.052   1.333   7.993  0.2966  0.0886  0.1813
  472loPI   C4A 7546  13.116   1.245   7.496  0.1994  0.2145  0.0330
  472loPI   C5A 7547  13.386   1.531   7.203  0.0725  0.0986 -0.1185
  472loPI   C6A 7548  13.556   1.850   6.964 -0.2323  0.2101  0.1614
  472loPI   C1B 7549  13.497   1.598   9.031  0.0584 -0.0623 -0.0612
  472loPI   C2B 7550  13.433   1.634   8.598 -0.3660 -0.1556  0.1301
  472loPI   C3B 7551  13.512   1.664   8.105  0.0789 -0.0221 -0.2259
  472loPI   C4B 7552  13.333   1.771   7.759  0.0480 -0.0408 -0.2860
  473loPI    C1 7553  15.002   5.090  10.692 -0.0195  0.0911 -0.1512
  473loPI    C2 7554  15.328   5.133  10.919 -0.0574 -0.0487 -0.0694
  473loPI    C3 7555  15.164   4.771  10.870 -0.2396  0.0312 -0.0551
  473loPI   PO4 7556  14.918   5.312  10.554 -0.2152 -0.0488  0.2272
  473loPI   GL1 7557  14.922   5.361  10.172 -0.1182 -0.1988  0.0493
  473loPI   GL2 7558  15.211   5.300   9.978 -0.1834  0.1977 -0.0083
  473loPI   C1A 7559  14.758   5.061   9.861  0.3209 -0.1325 -0.0636
  473loPI   C2A 7560  14.787   4.898   9.429  0.0466 -0.1216 -0.1078
  473loPI   C3A 7561  14.786   4.938   9.004 -0.2960 -0.0287 -0.1484
  473loPI   C4A 7562  14.828   4.971   8.591 -0.0419  0.3681 -0.2271
  473loPI   C5A 7563  14.655   4.989   8.110  0.5449  0.0037  0.0225
  473loPI   C6A 7564  14.618   5.167   7.642 -0.1523  0.0777 -0.1071
  473loPI   C1B 7565  15.130   5.239   9.622  0.1116  0.1177 -0.1207
  473loPI   C2B 7566  15.228   5.257   9.205 -0.1705 -0.0515 -0.4343
  473loPI   C3B 7567  15.224   5.223   8.818  0.1576  0.3005  0.3856
  473loPI   C4B 7568  15.184   5.359   8.413  0.0243 -0.3061  0.1449
  474loPI    C1 7569   9.416   9.856  10.503  0.0780  0.1271  0.2317
  474loPI    C2 7570   9.155   9.585  10.640  0.1521 -0.0766 -0.0215
  474loPI    C3 7571   9.252   9.901  10.865 -0.1906 -0.0813  0.1398
  474loPI   PO4 7572   9.418   9.796  10.265  0.3655 -0.0345  0.1174
  474loPI   GL1 7573   9.541   9.622   9.898  0.0454 -0.0063  0.0515
  474loPI   GL2 7574   9.332   9.466   9.823 -0.0223  0.0294  0.0737
  474loPI   C1A 7575   9.448   9.941   9.639 -0.2027  0.0880  0.0411
  474loPI   C2A 7576   9.293   9.974   9.264 -0.2255 -0.0456 -0.1936
  474loPI   C3A 7577   9.463   9.966   8.835  0.1241  0.1159 -0.2209
  474loPI   C4A 7578   9.420   9.991   8.534  0.0431 -0.0027 -0.1044
  474loPI   C5A 7579   9.399  10.073   8.263  0.0849 -0.5557  0.0784
  474loPI   C6A 7580   9.475  10.155   7.948  0.3496 -0.3452  0.1013
  474loPI   C1B 7581   9.447   9.416   9.391  0.1337  0.2794 -0.1799
  474loPI   C2B 7582   9.428   9.497   9.023  0.2634  0.3425  0.0976
  474loPI   C3B 7583   9.594   9.479   8.616 -0.1158  0.5155  0.3209
  474loPI   C4B 7584   9.591   9.525   8.166 -0.0899 -0.1912 -0.0709
  475loPI    C1 7585  12.785  16.280   9.746 -0.2049 -0.1991  0.1257
  475loPI    C2 7586  12.464  16.467   9.894  0.1171  0.1209  0.4430
  475loPI    C3 7587  12.792  16.427  10.118  0.4392  0.1511 -0.0102
  475loPI   PO4 7588  12.938  16.518   9.597  0.2401  0.1651 -0.2485
  475loPI   GL1 7589  13.063  16.713   9.185  0.3165 -0.3614 -0.0880
  475loPI   GL2 7590  12.796  16.515   9.127 -0.0108  0.0107  0.0611
  475loPI   C1A 7591  13.112  16.713   8.748  0.0097 -0.0197 -0.0735
  475loPI   C2A 7592  13.069  16.766   8.316  0.1703 -0.1130 -0.0604
  475loPI   C3A 7593  12.986  16.759   7.835 -0.0893  0.0666  0.1619
  475loPI   C4A 7594  13.032  16.825   7.412 -0.2010 -0.0196  0.1470
  475loPI   C5A 7595  12.847  16.877   6.968 -0.1076  0.1000  0.0587
  475loPI   C6A 7596  12.941  16.815   6.616 -0.0303 -0.2781 -0.0177
  475loPI   C1B 7597  12.692  16.394   8.716  0.0611 -0.4155 -0.1121
  475loPI   C2B 7598  12.772  16.371   8.386  0.0140  0.2320  0.0773
  475loPI   C3B 7599  12.703  16.364   7.979 -0.1581 -0.0679  0.2581
  475loPI   C4B 7600  12.713  16.303   7.571 -0.0262  0.1708  0.5322
  476loPI    C1 7601  18.418  11.622  10.566 -0.0844 -0.2268 -0.0816
  476loPI    C2 7602  18.174  11.932  10.627 -0.2246 -0.3869  0.1946
  476loPI    C3 7603  18.557  11.954  10.740 -0.1398 -0.1842 -0.1190
  476loPI   PO4 7604  18.348  11.564  10.341 -0.1053 -0.0678 -0.2200
  476loPI   GL1 7605  18.230  11.498   9.889  0.1121 -0.2826  0.3695
  476loPI   GL2 7606  18.551  11.635   9.890  0.0940  0.3003 -0.1191
  476loPI   C1A 7607  18.319  11.371   9.524  0.4238  0.1793  0.0697
  476loPI   C2A 7608  18.366  11.237   9.105  0.0390 -0.1113 -0.0697
  476loPI   C3A 7609  18.537  11.162   8.689  0.2522 -0.0053 -0.0494
  476loPI   C4A 7610  18.530  11.158   8.266 -0.2470 -0.0548 -0.0584
  476loPI   C5A 7611  18.395  11.222   7.847  0.0245  0.2343  0.1737
  476loPI   C6A 7612  18.621  11.247   7.465  0.2079  0.1808 -0.0689
  476loPI   C1B 7613  18.370  11.883   9.560  0.1262  0.3354 -0.2062
  476loPI   C2B 7614  18.461  11.720   9.222  0.4454 -0.1323  0.1351
  476loPI   C3B 7615  18.615  11.664   8.867 -0.1220 -0.0641 -0.0934
  476loPI   C4B 7616  18.569  11.605   8.503  0.0465 -0.0989  0.3200
  477loPI    C1 7617  15.371  17.806   9.931  0.0718 -0.1402  0.0062
  477loPI    C2 7618  15.707  17.805  10.148  0.0834 -0.0002 -0.0104
  477loPI    C3 7619  15.380  17.621  10.286  0.0895  0.0915  0.1285
  477loPI   PO4 7620  15.379  17.779   9.749  0.0606  0.1214 -0.0516
  477loPI   GL1 7621  15.366  17.846   9.313  0.1237  0.1163  0.0350
  477loPI   GL2 7622  15.498  18.158   9.302  0.2080  0.1209  0.1638
  477loPI   C1A 7623  15.196  17.867   8.906 -0.1061 -0.1403  0.1458
  477loPI   C2A 7624  15.295  17.885   8.520  0.0941  0.0595  0.1258
  477loPI   C3A 7625  15.345  17.834   8.090  0.2163 -0.0603  0.0043
  477loPI   C4A 7626  15.275  17.774   7.634  0.1622  0.0807 -0.0527
  477loPI   C5A 7627  15.328  17.611   7.238 -0.4058 -0.3387 -0.0534
  477loPI   C6A 7628  15.680  17.367   7.311 -0.0660  0.1957  0.1377
  477loPI   C1B 7629  15.672  18.115   8.788  0.1258  0.0279  0.1494
  477loPI   C2B 7630  15.814  18.149   8.364 -0.2532  0.0342 -0.0301
  477loPI   C3B 7631  15.808  18.184   7.875 -0.0198  0.3147 -0.2323
  477loPI   C4B 7632  15.902  18.591   7.569  0.2103  0.1187  0.0701
  478loPI    C1 7633  15.875   9.291  10.263  0.3447  0.1642  0.2081
  478loPI    C2 7634  16.093   9.209  10.588  0.2445 -0.6216  0.0963
  478loPI    C3 7635  15.711   9.091  10.568  0.1309 -0.2326 -0.1567
  478loPI   PO4 7636  16.061   9.285  10.056  0.0994 -0.2325  0.2184
  478loPI   GL1 7637  16.089   8.971   9.730  0.0829 -0.0854 -0.2873
  478loPI   GL2 7638  16.500   9.089   9.769  0.3100 -0.1234 -0.0280
  478loPI   C1A 7639  15.972   8.879   9.436  0.0983 -0.0414  0.0065
  478loPI   C2A 7640  15.986   8.915   9.083  0.3836 -0.3475  0.3135
  478loPI   C3A 7641  16.138   8.919   8.645 -0.1573 -0.2678 -0.1695
  478loPI   C4A 7642  15.986   8.847   8.241 -0.1096 -0.2663  0.0662
  478loPI   C5A 7643  15.879   9.070   7.862  0.2604  0.2463  0.0426
  478loPI   C6A 7644  15.815   8.748   7.561 -0.1635 -0.0116  0.1778
  478loPI   C1B 7645  16.260   9.255   9.341 -0.0377  0.3551  0.1708
  478loPI   C2B 7646  16.443   9.359   8.875  0.0526  0.0173  0.2170
  478loPI   C3B 7647  16.551   9.241   8.571 -0.0781 -0.2394  0.0323
  478loPI   C4B 7648  16.471   9.147   8.168  0.3125 -0.1211  0.1088
  479loPI    C1 7649   0.059   1.814  10.397 -0.3697  0.0541 -0.1072
  479loPI    C2 7650  -0.255   1.951  10.603 -0.2041  0.0788  0.1328
  479loPI    C3 7651  -0.143   1.569  10.639 -0.0418  0.1373  0.2605
  479loPI   PO4 7652   0.064   1.873  10.149  0.0708  0.1129  0.0087
  479loPI   GL1 7653   0.061   2.233   9.852  0.1407 -0.1229 -0.0879
  479loPI   GL2 7654   0.393   2.404   9.866 -0.5329 -0.1306  0.3505
  479loPI   C1A 7655  -0.072   2.129   9.405  0.0564  0.1547  0.0335
  479loPI   C2A 7656   0.110   2.168   9.050  0.6583 -0.2244 -0.0614
  479loPI   C3A 7657   0.085   2.100   8.620 -0.3641  0.0539  0.0196
  479loPI   C4A 7658   0.025   2.072   8.186 -0.0847  0.2732  0.3020
  479loPI   C5A 7659   0.001   2.271   7.852  0.1562  0.2337 -0.0645
  479loPI   C6A 7660  -0.111   2.341   7.409 -0.1003  0.2257  0.1269
  479loPI   C1B 7661   0.408   2.384   9.346 -0.0980 -0.0306 -0.5328
  479loPI   C2B 7662   0.582   2.356   8.964  0.0256  0.1506  0.0720
  479loPI   C3B 7663   0.455   2.461   8.521 -0.0969  0.1908 -0.1421
  479loPI   C4B 7664   0.499   2.526   8.022  0.0012 -0.3998 -0.1190
  480loPI    C1 7665   0.651   8.092  10.895 -0.1986  0.1658 -0.1838
  480loPI    C2 7666   0.305   8.196  11.067 -0.0105  0.2961  0.1250
  480loPI    C3 7667   0.620   8.101  11.294  0.1651  0.2026 -0.1531
  480loPI   PO4 7668   0.617   8.047  10.609 -0.2724 -0.0930  0.0174
  480loPI   GL1 7669   0.653   7.869  10.229 -0.1571 -0.0439  0.2979
  480loPI   GL2 7670   0.888   7.641  10.062  0.0620  0.0641 -0.3849
  480loPI   C1A 7671   0.466   7.774   9.805  0.0046 -0.2773  0.2899
  480loPI   C2A 7672   0.534   7.688   9.371 -0.1397 -0.0404 -0.0692
  480loPI   C3A 7673   0.596   7.699   8.946  0.2393 -0.0298 -0.2347
  480loPI   C4A 7674   0.609   7.723   8.545 -0.3673  0.0662 -0.1878
  480loPI   C5A 7675   0.819   7.936   8.145 -0.0680  0.0220 -0.1093
  480loPI   C6A 7676   1.260   8.069   8.030  0.1977  0.0241  0.0906
  480loPI   C1B 7677   0.897   7.516   9.670 -0.3466 -0.0098  0.2161
  480loPI   C2B 7678   1.047   7.516   9.294  0.0406 -0.1954 -0.1884
  480loPI   C3B 7679   1.076   7.472   8.859  0.0132  0.0405 -0.0463
  480loPI   C4B 7680   1.043   7.520   8.354  0.2048  0.1133  0.4650
  481loPI    C1 7681   2.429  16.352  10.656 -0.1038 -0.4428  0.0587
  481loPI    C2 7682   2.718  16.176  10.870 -0.0363 -0.2370  0.1391
  481loPI    C3 7683   2.378  16.290  11.048 -0.0441 -0.2073  0.1052
  481loPI   PO4 7684   2.347  16.172  10.480 -0.2562  0.3433  0.0688
  481loPI   GL1 7685   2.310  16.013  10.021 -0.0808  0.1384 -0.1796
  481loPI   GL2 7686   2.522  15.787  10.050  0.0516  0.2653 -0.3092
  481loPI   C1A 7687   2.454  16.371   9.838 -0.0001  0.0552  0.1860
  481loPI   C2A 7688   2.601  16.685   9.474  0.5070 -0.0178  0.0126
  481loPI   C3A 7689   2.671  16.732   8.967  0.0840 -0.3811  0.0806
  481loPI   C4A 7690   2.696  16.689   8.559  0.1088  0.1217 -0.2677
  481loPI   C5A 7691   2.687  16.769   8.104  0.0068  0.2440  0.0920
  481loPI   C6A 7692   2.648  16.470   7.847  0.0873  0.0263  0.3082
  481loPI   C1B 7693   2.882  15.688   9.778  0.0826 -0.3790 -0.0198
  481loPI   C2B 7694   3.088  15.808   9.412  0.0113  0.3190  0.1327
  481loPI   C3B 7695   3.257  15.940   9.032  0.0805  0.0622  0.1506
  481loPI   C4B 7696   3.216  15.971   8.672  0.1782  0.1739 -0.4041
  482loPI    C1 7697  11.032   5.001  10.743  0.0082  0.1862 -0.2010
  482loPI    C2 7698  11.301   5.049  11.035 -0.2342  0.0742  0.0447
  482loPI    C3 7699  11.268   5.324  10.746  0.0319  0.1685  0.1015
  482loPI   PO4 7700  11.024   4.742  10.565  0.1523  0.0411 -0.0383
  482loPI   GL1 7701  11.246   4.968  10.225 -0.2245  0.2867 -0.0838
  482loPI   GL2 7702  10.944   5.216  10.294 -0.1260  0.3738  0.3521
  482loPI   C1A 7703  11.200   5.067   9.840 -0.3259  0.0768 -0.1218
  482loPI   C2A 7704  11.141   4.976   9.375  0.0511  0.0561 -0.0581
  482loPI   C3A 7705  11.080   4.916   8.952  0.0314  0.3104 -0.0550
  482loPI   C4A 7706  10.999   4.916   8.522  0.1877  0.1851 -0.0576
  482loPI   C5A 7707  10.978   5.174   8.173 -0.4704 -0.1638 -0.1011
  482loPI   C6A 7708  11.092   5.616   8.022  0.1651  0.3746  0.0372
  482loPI   C1B 7709  10.720   5.172   9.926 -0.1089  0.3029 -0.2381
  482loPI   C2B 7710  10.650   5.244   9.483  0.5236  0.1303 -0.1538
  482loPI   C3B 7711  10.480   5.124   9.114  0.0394 -0.0675 -0.2912
  482loPI   C4B 7712  10.657   5.177   8.762 -0.0405 -0.1248  0.2304
  483loPI    C1 7713   5.364  10.510  10.942  0.2053  0.2368  0.2191
  483loPI    C2 7714   5.123  10.365  11.226  0.1211 -0.0704 -0.0033
  483loPI    C3 7715   5.475  10.527  11.325 -0.0635  0.1551  0.3031
  483loPI   PO4 7716   5.380  10.327  10.768  0.1303  0.3323  0.1174
  483loPI   GL1 7717   5.461  10.182  10.284  0.0832  0.0553 -0.0850
  483loPI   GL2 7718   5.124  10.152  10.119 -0.1114  0.0153 -0.1270
  483loPI   C1A 7719   5.564  10.078   9.947 -0.1661  0.4537 -0.0285
  483loPI   C2A 7720   5.596  10.044   9.483 -0.3426 -0.0417 -0.0005
  483loPI   C3A 7721   5.649  10.019   9.097 -0.0398  0.1126  0.1852
  483loPI   C4A 7722   5.793  10.004   8.806  0.0839  0.2347 -0.1402
  483loPI   C5A 7723   5.793  10.074   8.334  0.1732 -0.0766 -0.3454
  483loPI   C6A 7724   6.023  10.322   8.029 -0.2638 -0.1944  0.5725
  483loPI   C1B 7725   5.126  10.369   9.854 -0.2369 -0.0281  0.0123
  483loPI   C2B 7726   5.202  10.283   9.354  0.0969 -0.2596  0.1762
  483loPI   C3B 7727   5.236  10.153   9.000 -0.0897  0.0015  0.2295
  483loPI   C4B 7728   5.340  10.144   8.603 -0.1447 -0.1667  0.1911
  484loPI    C1 7729  15.907   2.413  10.514  0.0598 -0.1105 -0.0398
  484loPI    C2 7730  16.018   2.206  10.839  0.3108  0.0734 -0.0058
  484loPI    C3 7731  15.674   2.411  10.840  0.2619 -0.0084  0.1073
  484loPI   PO4 7732  16.108   2.495  10.381 -0.5297 -0.2493 -0.1948
  484loPI   GL1 7733  16.147   2.476   9.941 -0.0938  0.2341 -0.1401
  484loPI   GL2 7734  16.385   2.669   9.999  0.1266 -0.3255  0.2982
  484loPI   C1A 7735  16.086   2.449   9.446 -0.1843 -0.2742  0.0559
  484loPI   C2A 7736  16.084   2.576   8.996  0.3331  0.2491  0.2095
  484loPI   C3A 7737  16.153   2.577   8.585  0.0687 -0.0554 -0.3881
  484loPI   C4A 7738  16.227   2.484   8.212  0.1194 -0.1956 -0.1427
  484loPI   C5A 7739  16.553   2.740   8.014  0.2541 -0.1853  0.0810
  484loPI   C6A 7740  16.826   2.936   7.922  0.4050 -0.2803 -0.0892
  484loPI   C1B 7741  16.509   2.811   9.543  0.1461  0.2960  0.0769
  484loPI   C2B 7742  16.574   2.937   9.173 -0.0923 -0.0160  0.2761
  484loPI   C3B 7743  16.595   2.938   8.803  0.1493  0.1128 -0.0325
  484loPI   C4B 7744  16.653   2.846   8.473  0.3643 -0.0781 -0.2064
  485loPI    C1 7745   9.226  13.644  10.768  0.0915  0.0144 -0.2022
  485loPI    C2 7746   9.558  13.442  10.863 -0.0152 -0.1356 -0.1445
  485loPI    C3 7747   9.242  13.435  11.109  0.0070  0.1664 -0.1034
  485loPI   PO4 7748   9.200  13.575  10.462 -0.0831 -0.3011  0.0488
  485loPI   GL1 7749   9.097  13.866  10.142  0.1838  0.3370  0.1432
  485loPI   GL2 7750   9.474  13.762   9.994 -0.1735  0.0720 -0.2210
  485loPI   C1A 7751   9.016  13.637   9.721 -0.0062  0.2895  0.1018
  485loPI   C2A 7752   8.966  13.643   9.301  0.0120 -0.0022  0.0736
  485loPI   C3A 7753   8.952  13.645   8.852 -0.0868  0.0112 -0.1415
  485loPI   C4A 7754   8.810  13.692   8.402 -0.2631  0.1011 -0.0725
  485loPI   C5A 7755   8.858  13.416   8.019 -0.0138 -0.0102 -0.2082
  485loPI   C6A 7756   9.099  13.183   7.677  0.2302 -0.0313 -0.1239
  485loPI   C1B 7757   9.434  13.420   9.663 -0.1099  0.0837 -0.1744
  485loPI   C2B 7758   9.414  13.366   9.240 -0.1779  0.0265  0.2777
  485loPI   C3B 7759   9.365  13.431   8.776 -0.0494 -0.1624 -0.1267
  485loPI   C4B 7760   9.374  13.362   8.341  0.2159  0.0451 -0.1842
  486loPI    C1 7761   0.588   1.886  10.796 -0.2019 -0.0611 -0.0322
  486loPI    C2 7762   0.210   1.881  10.925 -0.1401 -0.1957  0.1491
  486loPI    C3 7763   0.451   1.571  11.001  0.0656 -0.0227  0.2122
  486loPI   PO4 7764   0.567   1.951  10.600 -0.3574 -0.0010  0.0303
  486loPI   GL1 7765   0.871   1.902  10.171 -0.1564 -0.2421 -0.2524
  486loPI   GL2 7766   0.598   1.894  10.099  0.0200 -0.1135  0.0316
  486loPI   C1A 7767   0.908   2.203   9.857  0.0201 -0.0801 -0.3471
  486loPI   C2A 7768   0.915   2.306   9.397  0.0457  0.3987 -0.1430
  486loPI   C3A 7769   1.054   2.218   8.944  0.0806 -0.1906 -0.2304
  486loPI   C4A 7770   0.902   2.283   8.574 -0.1094 -0.1886  0.2022
  486loPI   C5A 7771   0.939   2.230   8.204 -0.0144 -0.3077  0.2135
  486loPI   C6A 7772   1.166   2.463   7.897  0.3763  0.1124 -0.0804
  486loPI   C1B 7773   0.520   1.935   9.659 -0.0161 -0.0686 -0.0770
  486loPI   C2B 7774   0.619   1.866   9.198 -0.2214  0.2834  0.0764
  486loPI   C3B 7775   0.684   1.880   8.759  0.0924 -0.2070 -0.2359
  486loPI   C4B 7776   0.514   1.960   8.303 -0.0960 -0.1688 -0.0412
  487loPI    C1 7777   0.952   5.638  10.847  0.2787 -0.1800  0.0044
  487loPI    C2 7778   1.294   5.475  10.973  0.0886 -0.2111  0.5052
  487loPI    C3 7779   0.945   5.342  11.116 -0.1242 -0.0276  0.1700
  487loPI   PO4 7780   0.996   5.645  10.588  0.4696 -0.0882  0.2468
  487loPI   GL1 7781   0.996   5.772  10.214  0.3611 -0.4449 -0.2421
  487loPI   GL2 7782   1.219   6.022  10.155 -0.1229 -0.1087  0.3449
  487loPI   C1A 7783   0.815   5.758   9.803 -0.0159 -0.0268 -0.0940
  487loPI   C2A 7784   0.866   5.679   9.317  0.0993  0.1334  0.0904
  487loPI   C3A 7785   0.869   5.680   8.862  0.0110  0.0597  0.0249
  487loPI   C4A 7786   1.032   5.739   8.425 -0.0106 -0.2891 -0.0884
  487loPI   C5A 7787   0.927   5.559   8.033  0.0152  0.0826  0.1984
  487loPI   C6A 7788   1.028   5.173   7.872 -0.2020  0.3168  0.1478
  487loPI   C1B 7789   1.226   5.987   9.670 -0.4315 -0.1790  0.0990
  487loPI   C2B 7790   1.289   5.990   9.231  0.1753  0.1135  0.0664
  487loPI   C3B 7791   1.326   5.951   8.871 -0.2795  0.3508  0.2420
  487loPI   C4B 7792   1.502   5.821   8.528  0.0118  0.1328 -0.0306
  488loPI    C1 7793  14.471   9.209  10.641  0.1947 -0.0536  0.0876
  488loPI    C2 7794  14.623   9.501  10.868  0.1190  0.0942 -0.0495
  488loPI    C3 7795  14.838   9.171  10.794  0.1852  0.0920  0.1477
  488loPI   PO4 7796  14.337   9.385  10.449  0.0154  0.4520  0.1086
  488loPI   GL1 7797  14.199   9.292  10.088  0.1193  0.0596  0.3614
  488loPI   GL2 7798  14.067   9.033   9.933  0.1305  0.1054  0.2197
  488loPI   C1A 7799  14.102   9.566   9.653  0.1277  0.2173  0.1617
  488loPI   C2A 7800  14.139   9.679   9.259 -0.3186 -0.2623  0.0746
  488loPI   C3A 7801  14.135   9.671   8.740 -0.0833 -0.0665 -0.2617
  488loPI   C4A 7802  14.058   9.535   8.272 -0.1563 -0.0565 -0.4485
  488loPI   C5A 7803  14.133   9.583   7.833  0.1671 -0.0335  0.0203
  488loPI   C6A 7804  14.130   9.384   7.491 -0.1921 -0.3519  0.1329
  488loPI   C1B 7805  14.230   9.125   9.471 -0.2778  0.2668 -0.0165
  488loPI   C2B 7806  14.240   9.108   9.096 -0.2363 -0.2908 -0.3001
  488loPI   C3B 7807  14.150   9.162   8.600  0.3783 -0.3169  0.2587
  488loPI   C4B 7808  14.144   9.090   8.169  0.0100  0.0840  0.2818
  489loPI    C1 7809  11.678  10.930  10.273 -0.1430  0.0096 -0.2590
  489loPI    C2 7810  11.932  11.110  10.524 -0.0889 -0.2879 -0.0961
  489loPI    C3 7811  11.598  11.297  10.410  0.0632 -0.0068 -0.0895
  489loPI   PO4 7812  11.851  10.753  10.196 -0.3048 -0.0233 -0.1755
  489loPI   GL1 7813  12.180  10.696   9.949 -0.2856 -0.2212  0.0287
  489loPI   GL2 7814  12.048  10.882   9.729  0.1571 -0.1080 -0.1195
  489loPI   C1A 7815  12.164  10.388   9.581  0.1410 -0.0678  0.1488
  489loPI   C2A 7816  12.080  10.272   9.251  0.2277  0.0062  0.0840
  489loPI   C3A 7817  12.090  10.226   8.862  0.1733  0.2229  0.0072
  489loPI   C4A 7818  12.097  10.304   8.464 -0.3221  0.1336 -0.3192
  489loPI   C5A 7819  12.185  10.221   7.954 -0.0317  0.1131  0.0296
  489loPI   C6A 7820  12.136   9.987   7.623 -0.0766  0.0194 -0.1851
  489loPI   C1B 7821  11.843  10.737   9.460  0.0137  0.3051  0.3886
  489loPI   C2B 7822  11.769  10.666   8.987  0.0088 -0.2126  0.1071
  489loPI   C3B 7823  11.737  10.563   8.543  0.2007 -0.0234 -0.4462
  489loPI   C4B 7824  11.975  10.633   8.110  0.0328  0.0002  0.1078
  490loPI    C1 7825   5.853  15.005  10.764 -0.3249  0.0642 -0.0387
  490loPI    C2 7826   6.121  14.746  10.909 -0.2203  0.0834 -0.1951
  490loPI    C3 7827   5.789  14.827  11.116 -0.0375  0.1687  0.0699
  490loPI   PO4 7828   5.842  15.052  10.473  0.0374  0.2407  0.3260
  490loPI   GL1 7829   5.635  15.360  10.252 -0.2424  0.2196 -0.1687
  490loPI   GL2 7830   5.978  15.486  10.160  0.1779 -0.1180  0.1980
  490loPI   C1A 7831   5.353  15.521   9.988  0.0197 -0.3137 -0.1918
  490loPI   C2A 7832   5.477  15.584   9.589  0.1280 -0.0097 -0.2474
  490loPI   C3A 7833   5.415  15.562   9.113 -0.1741  0.2205 -0.1574
  490loPI   C4A 7834   5.488  15.652   8.738 -0.0632  0.1337 -0.3522
  490loPI   C5A 7835   5.533  15.585   8.353  0.1554  0.1211  0.0141
  490loPI   C6A 7836   5.584  15.407   7.950 -0.0705  0.0774 -0.0357
  490loPI   C1B 7837   5.903  15.350   9.774  0.0410  0.0724 -0.2448
  490loPI   C2B 7838   5.961  15.437   9.283  0.3714  0.2024 -0.3616
  490loPI   C3B 7839   5.980  15.260   8.886  0.2763 -0.1920 -0.1163
  490loPI   C4B 7840   6.001  15.407   8.562 -0.2698  0.1386  0.2972
  491loPI    C1 7841  17.317  14.172  10.067  0.1258  0.0805  0.1294
  491loPI    C2 7842  17.214  13.933  10.370  0.2022 -0.1407 -0.0168
  491loPI    C3 7843  17.321  14.312  10.442 -0.1370 -0.0805  0.1946
  491loPI   PO4 7844  17.512  14.086   9.928  0.0211  0.1453 -0.2118
  491loPI   GL1 7845  17.701  13.874   9.570  0.2412 -0.2269 -0.1972
  491loPI   GL2 7846  17.548  13.905   9.320  0.2566  0.0590  0.2682
  491loPI   C1A 7847  17.960  13.682   9.266 -0.0026 -0.0459  0.0381
  491loPI   C2A 7848  18.056  13.492   8.834  0.2150 -0.0567  0.2322
  491loPI   C3A 7849  17.818  13.661   8.352  0.2087  0.1094  0.1453
  491loPI   C4A 7850  17.635  13.946   8.123 -0.3415 -0.0228 -0.1005
  491loPI   C5A 7851  17.290  14.080   7.835 -0.2980  0.1016 -0.0006
  491loPI   C6A 7852  16.970  13.958   7.672  0.1640 -0.1863  0.3874
  491loPI   C1B 7853  17.598  13.716   8.946  0.2397 -0.1808  0.2590
  491loPI   C2B 7854  17.533  13.355   8.710 -0.0385 -0.3678 -0.0395
  491loPI   C3B 7855  17.587  13.182   8.359  0.1838 -0.0904 -0.0224
  491loPI   C4B 7856  17.740  13.272   7.908 -0.0797 -0.0114  0.2344
  492loPI    C1 7857   5.107  15.677  11.196  0.1107  0.0660 -0.0329
  492loPI    C2 7858   5.314  15.810  11.511 -0.1056  0.0818  0.1045
  492loPI    C3 7859   5.103  15.471  11.539 -0.1717  0.1134 -0.0055
  492loPI   PO4 7860   4.948  15.918  10.998 -0.4211 -0.2868 -0.0139
  492loPI   GL1 7861   4.776  15.887  10.550 -0.1043 -0.0945  0.0909
  492loPI   GL2 7862   4.772  16.158  10.439  0.2982 -0.2010 -0.0273
  492loPI   C1A 7863   4.837  15.580  10.128  0.1577  0.1224 -0.1629
  492loPI   C2A 7864   4.920  15.666   9.725 -0.0038  0.1131  0.0137
  492loPI   C3A 7865   4.959  15.714   9.268 -0.1335  0.1552  0.0229
  492loPI   C4A 7866   5.037  15.800   8.943 -0.0163  0.0026  0.1081
  492loPI   C5A 7867   5.064  15.678   8.506 -0.2071 -0.2343  0.1506
  492loPI   C6A 7868   5.111  15.891   8.201  0.1077  0.0805  0.0028
  492loPI   C1B 7869   4.823  16.210   9.960  0.3209 -0.0570  0.1676
  492loPI   C2B 7870   4.842  16.112   9.498 -0.0768  0.1618 -0.0810
  492loPI   C3B 7871   4.930  16.275   9.116 -0.0003  0.0219 -0.2378
  492loPI   C4B 7872   5.002  16.267   8.737  0.1652 -0.1223 -0.2188
  493loPI    C1 7873   1.359   7.651  10.975 -0.1546  0.0254 -0.0660
  493loPI    C2 7874   1.303   7.346  11.227  0.3226  0.0230  0.0472
  493loPI    C3 7875   1.327   7.720  11.368  0.4258  0.0391 -0.0129
  493loPI   PO4 7876   1.511   7.631  10.728  0.0394  0.1599  0.1218
  493loPI   GL1 7877   1.421   7.608  10.367 -0.0193 -0.1922 -0.5450
  493loPI   GL2 7878   1.682   7.681  10.147  0.3484  0.0527 -0.1954
  493loPI   C1A 7879   1.319   7.430   9.901  0.0494 -0.3234 -0.0991
  493loPI   C2A 7880   1.520   7.398   9.514 -0.0909 -0.0099 -0.0442
  493loPI   C3A 7881   1.586   7.312   9.169 -0.3390  0.0819  0.1081
  493loPI   C4A 7882   1.541   7.311   8.719  0.1330  0.3782  0.0399
  493loPI   C5A 7883   1.490   7.274   8.273 -0.1123  0.2533  0.1362
  493loPI   C6A 7884   1.682   7.263   7.808 -0.0026  0.0971 -0.1504
  493loPI   C1B 7885   1.934   7.725   9.764 -0.1714 -0.0914  0.1265
  493loPI   C2B 7886   1.958   7.591   9.432  0.1559 -0.2855 -0.0694
  493loPI   C3B 7887   2.007   7.682   9.067 -0.1507  0.0922  0.1249
  493loPI   C4B 7888   1.973   7.608   8.582  0.1166 -0.2793  0.2725
  494loPI    C1 7889  17.102   7.188  10.787 -0.1907  0.2329  0.2109
  494loPI    C2 7890  17.192   7.442  11.082 -0.0624  0.0277  0.3505
  494loPI    C3 7891  17.013   7.094  11.165 -0.2304  0.0673  0.1612
  494loPI   PO4 7892  17.151   7.332  10.603  0.1457  0.2758 -0.1163
  494loPI   GL1 7893  17.117   7.210  10.149 -0.0192  0.3818 -0.4344
  494loPI   GL2 7894  16.910   7.338   9.906  0.1100  0.0842 -0.3459
  494loPI   C1A 7895  17.338   7.101   9.758 -0.0161  0.0444  0.0314
  494loPI   C2A 7896  17.313   6.951   9.323 -0.1809  0.2527 -0.2118
  494loPI   C3A 7897  17.326   7.011   8.905  0.2928  0.2296  0.0133
  494loPI   C4A 7898  17.275   6.940   8.457  0.3106 -0.1567 -0.1745
  494loPI   C5A 7899  17.228   6.867   8.053 -0.0272  0.3787 -0.1136
  494loPI   C6A 7900  17.272   6.468   7.736 -0.0458 -0.1155 -0.3040
  494loPI   C1B 7901  16.834   7.210   9.509  0.0741  0.4307  0.0194
  494loPI   C2B 7902  16.804   7.205   9.094  0.1885 -0.1782  0.0553
  494loPI   C3B 7903  16.831   7.160   8.676 -0.2997  0.1617  0.0488
  494loPI   C4B 7904  16.830   7.098   8.206 -0.2458  0.1236 -0.2686
  495loPI    C1 7905  14.488  16.192   9.742  0.0299  0.1391 -0.0338
  495loPI    C2 7906  14.450  15.980  10.079  0.0123  0.4368  0.1553
  495loPI    C3 7907  14.582  16.357  10.094  0.4889  0.2947 -0.2224
  495loPI   PO4 7908  14.604  15.942   9.584 -0.5534 -0.0620  0.3194
  495loPI   GL1 7909  14.860  15.746   9.212  0.2876  0.4661 -0.3623
  495loPI   GL2 7910  14.630  15.766   9.072  0.1133  0.4094 -0.2390
  495loPI   C1A 7911  15.143  15.737   8.891 -0.2518  0.3378  0.0454
  495loPI   C2A 7912  15.223  15.959   8.496  0.2876 -0.0627  0.0021
  495loPI   C3A 7913  15.195  15.897   8.096  0.0576 -0.1125 -0.1228
  495loPI   C4A 7914  14.858  15.791   7.785 -0.1230  0.0339  0.1208
  495loPI   C5A 7915  14.919  15.563   7.375  0.0698  0.0270  0.3770
  495loPI   C6A 7916  14.965  15.175   7.212 -0.1915  0.0060 -0.1224
  495loPI   C1B 7917  14.694  15.730   8.703 -0.1225 -0.1253  0.0773
  495loPI   C2B 7918  14.553  15.432   8.527 -0.1307 -0.1060 -0.1556
  495loPI   C3B 7919  14.624  15.109   8.264 -0.0450 -0.1251  0.1700
  495loPI   C4B 7920  14.859  14.769   8.102 -0.2486 -0.3565  0.0301
  496loPI    C1 7921  12.917  10.325  10.180  0.2307 -0.0377 -0.0018
  496loPI    C2 7922  13.103  10.192  10.508  0.1401 -0.1244  0.0148
  496loPI    C3 7923  12.749  10.376  10.540  0.1576 -0.0830 -0.0293
  496loPI   PO4 7924  13.069  10.260   9.982 -0.0229 -0.0145  0.4002
  496loPI   GL1 7925  13.175   9.808   9.775  0.1586  0.4849 -0.1867
  496loPI   GL2 7926  13.198   9.551   9.576  0.2939  0.1625  0.1736
  496loPI   C1A 7927  13.222  10.012   9.366 -0.0174  0.0612 -0.0590
  496loPI   C2A 7928  13.186   9.901   8.881  0.3288 -0.0578 -0.0724
  496loPI   C3A 7929  13.123   9.850   8.467 -0.2320 -0.0292  0.0312
  496loPI   C4A 7930  12.962   9.824   8.056  0.0120 -0.0574  0.0484
  496loPI   C5A 7931  12.507   9.742   7.815 -0.1198 -0.3437  0.3339
  496loPI   C6A 7932  12.450   9.635   7.400 -0.3584  0.3474  0.2998
  496loPI   C1B 7933  13.254   9.504   9.176 -0.0731  0.0433  0.2466
  496loPI   C2B 7934  13.155   9.423   8.699 -0.1089 -0.2632  0.2487
  496loPI   C3B 7935  13.093   9.360   8.339  0.2483 -0.1132 -0.1295
  496loPI   C4B 7936  13.236   9.385   7.952 -0.0723  0.0195 -0.3618
  497loPI    C1 7937   1.384  13.688  10.348 -0.0829 -0.4127 -0.0442
  497loPI    C2 7938   1.663  13.800  10.613 -0.2944  0.2592 -0.0862
  497loPI    C3 7939   1.358  13.569  10.729  0.0142 -0.0786  0.0711
  497loPI   PO4 7940   1.480  13.500  10.206  0.1694 -0.1031 -0.3744
  497loPI   GL1 7941   1.633  13.509   9.880 -0.1744 -0.0408 -0.3516
  497loPI   GL2 7942   1.377  13.758   9.797  0.3187 -0.0007 -0.0266
  497loPI   C1A 7943   1.662  13.406   9.513 -0.0303  0.1668  0.0280
  497loPI   C2A 7944   1.738  13.333   9.062 -0.0365 -0.1856 -0.1091
  497loPI   C3A 7945   1.904  13.322   8.614  0.1908 -0.1571  0.3310
  497loPI   C4A 7946   1.976  13.173   8.197  0.4609 -0.0849 -0.1465
  497loPI   C5A 7947   2.317  13.017   7.989  0.0860 -0.0540  0.2683
  497loPI   C6A 7948   2.662  13.145   7.713 -0.3241  0.1127  0.0168
  497loPI   C1B 7949   1.352  13.759   9.417 -0.1608  0.0697  0.1949
  497loPI   C2B 7950   1.314  13.602   9.080  0.3164  0.0399 -0.2498
  497loPI   C3B 7951   1.371  13.362   8.694 -0.2805 -0.2465  0.1959
  497loPI   C4B 7952   1.392  13.318   8.313  0.0649  0.1841  0.1548
  498loPI    C1 7953  17.754   0.138  10.352 -0.4280 -0.0044 -0.1272
  498loPI    C2 7954  17.932   0.103  10.709 -0.1654 -0.0035 -0.2560
  498loPI    C3 7955  17.536   0.060  10.678 -0.2279  0.2871  0.0823
  498loPI   PO4 7956  17.933   0.322  10.246 -0.0107 -0.2391 -0.0813
  498loPI   GL1 7957  17.996   0.457   9.664  0.1882  0.1176  0.2588
  498loPI   GL2 7958  17.755   0.480   9.412  0.3138  0.0684  0.1092
  498loPI   C1A 7959  18.185   0.696   9.272  0.1361 -0.1419 -0.4465
  498loPI   C2A 7960  18.319   0.853   8.876 -0.1222  0.0103 -0.1073
  498loPI   C3A 7961  18.370   0.800   8.424  0.0647 -0.2526  0.2719
  498loPI   C4A 7962  18.426   0.675   8.078 -0.2042  0.3133  0.1607
  498loPI   C5A 7963  18.886   0.562   7.771  0.0954  0.1165  0.0559
  498loPI   C6A 7964  19.225   0.589   7.643 -0.0654 -0.1083  0.1829
  498loPI   C1B 7965  17.849   0.377   8.939  0.0520  0.2209 -0.2335
  498loPI   C2B 7966  17.882   0.434   8.494 -0.1087 -0.0815  0.2770
  498loPI   C3B 7967  18.032   0.390   8.161 -0.2011  0.1755  0.2387
  498loPI   C4B 7968  18.228   0.315   7.744 -0.1873 -0.0420  0.1183
  499loPI    C1 7969  13.226  12.641   9.949  0.2361 -0.3073  0.0468
  499loPI    C2 7970  13.072  12.590  10.315  0.0408  0.1562  0.0355
  499loPI    C3 7971  12.829  12.640  10.002  0.2102  0.2279 -0.0861
  499loPI   PO4 7972  13.522  12.650   9.967 -0.0580 -0.0088 -0.1358
  499loPI   GL1 7973  13.575  12.576   9.529 -0.1896 -0.0292  0.3142
  499loPI   GL2 7974  13.722  12.768   9.394 -0.0844  0.1513 -0.1367
  499loPI   C1A 7975  13.394  12.304   9.328 -0.1075  0.2663 -0.0551
  499loPI   C2A 7976  13.439  12.189   8.832  0.0855 -0.2114 -0.1447
  499loPI   C3A 7977  13.438  12.190   8.384 -0.2113  0.2745 -0.0537
  499loPI   C4A 7978  13.581  12.243   7.908 -0.1758  0.0887 -0.2925
  499loPI   C5A 7979  13.587  11.921   7.601  0.2822 -0.0064  0.2154
  499loPI   C6A 7980  13.346  11.644   7.370  0.1632 -0.0560  0.2711
  499loPI   C1B 7981  13.412  12.673   8.972 -0.1378  0.1191 -0.2855
  499loPI   C2B 7982  13.279  12.610   8.574  0.2144 -0.0846 -0.1322
  499loPI   C3B 7983  13.257  12.660   8.041  0.2520  0.1782 -0.1471
  499loPI   C4B 7984  13.123  12.755   7.560  0.0777  0.0840 -0.2472
  500loPI    C1 7985   9.230   6.156  11.186  0.0135 -0.1357 -0.1400
  500loPI    C2 7986   8.846   6.246  11.116  0.0822  0.2796 -0.0143
  500loPI    C3 7987   9.010   6.332  11.470  0.1912 -0.2562  0.0751
  500loPI   PO4 7988   9.271   6.161  10.842  0.0016 -0.0621  0.0594
  500loPI   GL1 7989   9.558   6.306  10.430 -0.2514 -0.2196  0.0628
  500loPI   GL2 7990   9.348   6.465  10.440 -0.1217  0.0663  0.0566
  500loPI   C1A 7991   9.671   6.083  10.068  0.0404 -0.3507  0.2066
  500loPI   C2A 7992   9.563   6.157   9.606  0.3002  0.0611 -0.0355
  500loPI   C3A 7993   9.481   6.055   9.128 -0.1118 -0.1371  0.4155
  500loPI   C4A 7994   9.423   5.998   8.698  0.4303  0.2217  0.0819
  500loPI   C5A 7995   9.161   6.151   8.390  0.0757 -0.1226 -0.0431
  500loPI   C6A 7996   8.818   6.115   8.283  0.3021  0.0501  0.0900
  500loPI   C1B 7997   9.355   6.431   9.982  0.1142  0.0024  0.0886
  500loPI   C2B 7998   9.471   6.652   9.641  0.0232  0.3474  0.0911
  500loPI   C3B 7999   9.481   6.601   9.184  0.0957 -0.0848 -0.0256
  500loPI   C4B 8000   9.410   6.565   8.728  0.0612  0.1485 -0.2001
  501loPI    C1 8001  14.596  15.394   9.588  0.0952  0.1231 -0.1132
  501loPI    C2 8002  14.443  15.191   9.897  0.2722 -0.0666 -0.1471
  501loPI    C3 8003  14.340  15.573   9.837 -0.1866 -0.1876 -0.1718
  501loPI   PO4 8004  14.517  15.242   9.347  0.2553 -0.2376  0.0589
  501loPI   GL1 8005  14.617  15.119   8.908 -0.0103 -0.0696  0.0159
  501loPI   GL2 8006  14.459  14.874   8.876 -0.1152  0.1661  0.2184
  501loPI   C1A 8007  14.998  15.271   8.721 -0.4461 -0.0645  0.2382
  501loPI   C2A 8008  15.031  15.546   8.427 -0.1896  0.2238 -0.0215
  501loPI   C3A 8009  15.050  15.414   8.069 -0.2493  0.1517  0.3628
  501loPI   C4A 8010  14.943  15.249   7.738 -0.0745 -0.0931 -0.1503
  501loPI   C5A 8011  14.667  14.986   7.604  0.1972  0.1997  0.1375
  501loPI   C6A 8012  14.383  14.777   7.379  0.0187  0.0800  0.1278
  501loPI   C1B 8013  14.432  14.737   8.522  0.2255 -0.1190  0.1643
  501loPI   C2B 8014  14.329  14.781   8.090  0.1582 -0.0884  0.3266
  501loPI   C3B 8015  14.169  14.558   7.762  0.0882 -0.4426 -0.1478
  501loPI   C4B 8016  14.155  14.265   7.459 -0.0537  0.3722 -0.2709
  502loPI    C1 8017  17.504   4.710  10.898  0.0290  0.0831  0.0397
  502loPI    C2 8018  17.226   4.887  11.126  0.0863  0.0914  0.1031
  502loPI    C3 8019  17.536   4.700  11.297  0.0487 -0.0336  0.0355
  502loPI   PO4 8020  17.353   4.705  10.641 -0.0814  0.0576 -0.0301
  502loPI   GL1 8021  17.362   4.791  10.320  0.2296  0.1236  0.1235
  502loPI   GL2 8022  17.300   4.430  10.164 -0.1026 -0.1792  0.0330
  502loPI   C1A 8023  17.534   4.971   9.967 -0.0019  0.0938  0.0459
  502loPI   C2A 8024  17.638   4.793   9.473 -0.3588 -0.2773 -0.0619
  502loPI   C3A 8025  17.655   4.909   9.012  0.0783  0.2936  0.0049
  502loPI   C4A 8026  17.609   4.948   8.561 -0.0781 -0.0363  0.0824
  502loPI   C5A 8027  17.677   4.919   8.204  0.1163  0.3555  0.3476
  502loPI   C6A 8028  17.663   4.890   7.829 -0.4696  0.0802 -0.0858
  502loPI   C1B 8029  17.270   4.625   9.764  0.1012 -0.2501  0.0617
  502loPI   C2B 8030  17.217   4.542   9.252  0.1810 -0.1021  0.3678
  502loPI   C3B 8031  17.260   4.694   8.839  0.0632  0.2436  0.0687
  502loPI   C4B 8032  17.266   4.566   8.392 -0.1949  0.0121 -0.1962
  503loPI    C1 8033   4.478  10.975  10.942 -0.0807  0.0691 -0.2966
  503loPI    C2 8034   4.114  10.860  11.061 -0.0659  0.2154 -0.1048
  503loPI    C3 8035   4.212  11.248  11.066  0.0612  0.1857 -0.2455
  503loPI   PO4 8036   4.473  10.891  10.694 -0.0102  0.1498  0.3233
  503loPI   GL1 8037   4.393  10.813  10.278 -0.2955  0.1652 -0.2835
  503loPI   GL2 8038   4.489  10.508  10.326  0.0542  0.1311  0.2187
  503loPI   C1A 8039   4.163  10.647   9.841  0.1061 -0.2987  0.1348
  503loPI   C2A 8040   4.080  10.629   9.378  0.2991  0.0399 -0.0468
  503loPI   C3A 8041   4.294  10.440   8.905  0.4569  0.1169 -0.2558
  503loPI   C4A 8042   4.329  10.510   8.484  0.0165 -0.1037 -0.1658
  503loPI   C5A 8043   4.191  10.543   8.082 -0.1213 -0.0920  0.2540
  503loPI   C6A 8044   3.800  10.620   7.764  0.0864  0.0925  0.1537
  503loPI   C1B 8045   4.566  10.466   9.976  0.1110 -0.2129  0.3533
  503loPI   C2B 8046   4.712  10.379   9.521 -0.1023 -0.0378 -0.1659
  503loPI   C3B 8047   4.758  10.432   9.127 -0.0398  0.3846  0.1960
  503loPI   C4B 8048   4.839  10.331   8.596  0.0719 -0.2506 -0.0268
  504loPI    C1 8049   3.031   6.757  10.782 -0.0165 -0.0163 -0.0761
  504loPI    C2 8050   3.166   6.586  11.118  0.1471  0.1845 -0.0375
  504loPI    C3 8051   2.775   6.581  11.034  0.1518 -0.2355 -0.0553
  504loPI   PO4 8052   3.270   6.547  10.597 -0.1180  0.1251  0.0842
  504loPI   GL1 8053   3.102   6.251  10.311  0.2890  0.2765  0.1028
  504loPI   GL2 8054   3.020   6.463  10.220 -0.2163 -0.2778  0.3809
  504loPI   C1A 8055   3.529   6.161  10.156 -0.1068 -0.1914  0.0078
  504loPI   C2A 8056   3.562   5.970   9.808 -0.0072 -0.0359 -0.4408
  504loPI   C3A 8057   3.604   6.011   9.309 -0.0211 -0.0693  0.0580
  504loPI   C4A 8058   3.715   5.995   8.877 -0.1914 -0.0004  0.2049
  504loPI   C5A 8059   3.648   5.842   8.404  0.1525  0.2907 -0.0350
  504loPI   C6A 8060   3.556   5.647   8.017 -0.0948 -0.2547  0.0239
  504loPI   C1B 8061   3.129   6.182   9.863  0.0104  0.1767 -0.0092
  504loPI   C2B 8062   3.101   6.197   9.439  0.1764  0.3362  0.4549
  504loPI   C3B 8063   3.233   6.150   8.988 -0.0346 -0.0710  0.2318
  504loPI   C4B 8064   3.258   6.124   8.534  0.0662  0.1945  0.1348
  505loPI    C1 8065   2.943   4.232  11.333 -0.0196  0.0777  0.3590
  505loPI    C2 8066   2.664   3.983  11.191  0.1010  0.1254  0.0304
  505loPI    C3 8067   2.558   4.289  11.426 -0.1211  0.1308 -0.0744
  505loPI   PO4 8068   3.103   4.318  11.002 -0.3426  0.1120 -0.2042
  505loPI   GL1 8069   3.307   4.154  10.670 -0.2552  0.1947  0.1994
  505loPI   GL2 8070   3.615   4.198  10.660  0.0011 -0.1800  0.2410
  505loPI   C1A 8071   3.272   4.040  10.270  0.4543 -0.2175 -0.1257
  505loPI   C2A 8072   3.325   4.201   9.900  0.1132 -0.0007  0.2185
  505loPI   C3A 8073   3.288   4.229   9.539  0.2254 -0.0775  0.0654
  505loPI   C4A 8074   3.317   4.119   9.129 -0.2895 -0.0022  0.0968
  505loPI   C5A 8075   3.526   4.212   8.639 -0.1299  0.2331  0.0422
  505loPI   C6A 8076   3.847   4.401   8.397 -0.3800 -0.3201  0.4049
  505loPI   C1B 8077   3.689   4.436  10.319  0.0143 -0.1390 -0.2492
  505loPI   C2B 8078   3.727   4.547   9.829  0.0692  0.0407  0.3446
  505loPI   C3B 8079   3.795   4.452   9.449  0.3126  0.1566  0.5414
  505loPI   C4B 8080   3.891   4.484   8.997  0.0610 -0.2514 -0.1051
  506loPI    C1 8081  14.181  14.377   9.833 -0.0676  0.1165 -0.3063
  506loPI    C2 8082  14.123  14.766   9.763  0.1579  0.1658 -0.2278
  506loPI    C3 8083  14.437  14.647   9.980 -0.1133 -0.0351  0.0631
  506loPI   PO4 8084  14.139  14.287   9.504  0.3009  0.0153 -0.2000
  506loPI   GL1 8085  14.187  13.905   9.229  0.0686  0.1592  0.1125
  506loPI   GL2 8086  14.511  13.872   9.361 -0.2161 -0.3481  0.0201
  506loPI   C1A 8087  14.231  13.875   8.824  0.2525 -0.1869  0.1050
  506loPI   C2A 8088  14.233  13.868   8.349  0.1925  0.1220 -0.2496
  506loPI   C3A 8089  14.306  14.002   7.960  0.1700  0.1506 -0.1902
  506loPI   C4A 8090  14.466  13.887   7.539 -0.3889  0.2839 -0.4487
  506loPI   C5A 8091  14.579  13.862   7.221 -0.1976  0.2674  0.2559
  506loPI   C6A 8092  14.973  13.689   7.013  0.1280 -0.0182  0.2051
  506loPI   C1B 8093  14.763  13.845   8.938  0.2497  0.0807 -0.1638
  506loPI   C2B 8094  14.725  13.918   8.442 -0.0103  0.1188  0.2516
  506loPI   C3B 8095  14.725  13.819   8.088 -0.0084  0.0452 -0.0329
  506loPI   C4B 8096  14.931  13.915   7.673  0.1933 -0.1683  0.0114
  507loPI    C1 8097   6.514  15.515  11.000 -0.0211  0.3011 -0.0494
  507loPI    C2 8098   6.406  15.197  11.218  0.1054  0.2038 -0.1273
  507loPI    C3 8099   6.549  15.524  11.398  0.3133  0.0831 -0.0696
  507loPI   PO4 8100   6.593  15.500  10.820 -0.2109 -0.3257 -0.0567
  507loPI   GL1 8101   6.601  15.507  10.371  0.2492  0.2358  0.0516
  507loPI   GL2 8102   6.898  15.453  10.211  0.1857 -0.1930 -0.0723
  507loPI   C1A 8103   6.409  15.507   9.968 -0.0096  0.2136 -0.0725
  507loPI   C2A 8104   6.304  15.609   9.544  0.1696 -0.4595  0.3206
  507loPI   C3A 8105   6.408  15.566   9.185  0.3017  0.0222 -0.0252
  507loPI   C4A 8106   6.344  15.572   8.813 -0.0378 -0.1463 -0.0271
  507loPI   C5A 8107   6.356  15.739   8.379  0.1023  0.0614  0.1248
  507loPI   C6A 8108   6.506  15.994   8.051  0.0608  0.0012 -0.1085
  507loPI   C1B 8109   6.896  15.440   9.821  0.1309  0.0335  0.1821
  507loPI   C2B 8110   6.925  15.391   9.329  0.1309  0.0167  0.0579
  507loPI   C3B 8111   6.822  15.485   8.939 -0.3230  0.1161  0.3213
  507loPI   C4B 8112   6.776  15.455   8.551 -0.2577 -0.2138  0.2868
  508loPI    C1 8113  14.153  18.344   9.667 -0.1792  0.0869  0.1555
  508loPI    C2 8114  14.314  18.005   9.530 -0.2463  0.1806 -0.1640
  508loPI    C3 8115  14.154  18.016   9.897 -0.4487 -0.1965 -0.2353
  508loPI   PO4 8116  14.128  18.449   9.456  0.1050  0.1301 -0.3051
  508loPI   GL1 8117  14.044  18.296   9.118  0.4298 -0.4877 -0.1627
  508loPI   GL2 8118  14.299  18.170   9.000  0.2644  0.1812 -0.2094
  508loPI   C1A 8119  13.847  18.426   8.793  0.2467  0.1962  0.3394
  508loPI   C2A 8120  13.792  18.548   8.395  0.3060 -0.3684  0.0484
  508loPI   C3A 8121  13.666  18.663   8.006  0.0309 -0.0504  0.3345
  508loPI   C4A 8122  13.507  18.668   7.604  0.1620 -0.0312 -0.4073
  508loPI   C5A 8123  13.343  18.843   7.217 -0.3810  0.0313  0.1466
  508loPI   C6A 8124  13.101  18.627   6.928 -0.0912 -0.1239 -0.0231
  508loPI   C1B 8125  14.302  18.283   8.572 -0.0621  0.1905 -0.1468
  508loPI   C2B 8126  14.153  18.531   8.089 -0.2396  0.0278 -0.1892
  508loPI   C3B 8127  13.984  18.345   7.761  0.0558  0.0193  0.0370
  508loPI   C4B 8128  14.030  18.263   7.315  0.0429  0.0248 -0.4245
  509loPI    C1 8129   4.274  17.094  11.011  0.3297 -0.0988  0.1263
  509loPI    C2 8130   4.294  16.811  11.292 -0.0177 -0.1237  0.1295
  509loPI    C3 8131   4.003  17.086  11.304  0.1788  0.0943 -0.0046
  509loPI   PO4 8132   4.314  16.982  10.799  0.0201 -0.0211 -0.2401
  509loPI   GL1 8133   4.156  16.691  10.512 -0.0312 -0.0242 -0.0657
  509loPI   GL2 8134   4.331  16.339  10.430  0.0687 -0.4277  0.1181
  509loPI   C1A 8135   4.188  16.860  10.071  0.3087  0.0816 -0.0859
  509loPI   C2A 8136   4.275  16.874   9.635 -0.0243  0.0518  0.0914
  509loPI   C3A 8137   4.337  17.065   9.239  0.0564 -0.3299 -0.0671
  509loPI   C4A 8138   4.441  16.988   8.831  0.2384  0.1893  0.1580
  509loPI   C5A 8139   4.472  17.272   8.516 -0.0665 -0.1334 -0.1528
  509loPI   C6A 8140   4.697  17.311   8.117 -0.1056 -0.1969 -0.1291
  509loPI   C1B 8141   4.347  16.358   9.927  0.2588  0.2374 -0.2289
  509loPI   C2B 8142   4.332  16.390   9.474  0.3533 -0.1442 -0.4179
  509loPI   C3B 8143   4.480  16.544   9.035  0.0422 -0.1151 -0.0385
  509loPI   C4B 8144   4.458  16.544   8.591 -0.1882 -0.1027 -0.4033
  510loPI    C1 8145   0.016   4.544  10.675  0.0539  0.0825 -0.0193
  510loPI    C2 8146  -0.090   4.444  11.047 -0.1280  0.1437 -0.0539
  510loPI    C3 8147   0.023   4.819  10.965  0.1668  0.0675 -0.0073
  510loPI   PO4 8148  -0.200   4.544  10.483 -0.0429  0.1699  0.0938
  510loPI   GL1 8149  -0.383   4.507  10.108 -0.0341 -0.0182 -0.2517
  510loPI   GL2 8150  -0.691   4.393  10.001  0.0333 -0.1169 -0.2046
  510loPI   C1A 8151  -0.347   4.739   9.654  0.2688 -0.2841 -0.0963
  510loPI   C2A 8152  -0.333   4.632   9.240  0.0439 -0.0366  0.1265
  510loPI   C3A 8153  -0.346   4.735   8.788 -0.4277 -0.0583 -0.0183
  510loPI   C4A 8154  -0.344   4.769   8.400 -0.0672 -0.0035 -0.1078
  510loPI   C5A 8155  -0.350   4.618   7.967 -0.0421  0.1754  0.0524
  510loPI   C6A 8156  -0.522   4.196   7.785  0.3245  0.1202 -0.2019
  510loPI   C1B 8157  -0.773   4.324   9.668 -0.0189  0.3783  0.0336
  510loPI   C2B 8158  -0.739   4.393   9.152 -0.0993  0.1694 -0.1225
  510loPI   C3B 8159  -0.760   4.496   8.681  0.2126  0.3179  0.0444
  510loPI   C4B 8160  -0.672   4.388   8.262  0.0744 -0.0479  0.2258
  511loPI    C1 8161  12.279   9.524  10.850 -0.2239  0.0110 -0.3536
  511loPI    C2 8162  12.041   9.830  10.948 -0.2082 -0.0875  0.0052
  511loPI    C3 8163  12.435   9.854  11.014 -0.1796 -0.1070 -0.1547
  511loPI   PO4 8164  12.108   9.481  10.591  0.1174  0.2003 -0.1302
  511loPI   GL1 8165  12.098   9.279  10.192 -0.5523 -0.3572 -0.2073
  511loPI   GL2 8166  12.233   8.962  10.119 -0.2174 -0.3574  0.3090
  511loPI   C1A 8167  12.226   9.473   9.834 -0.0284 -0.2251 -0.3175
  511loPI   C2A 8168  12.349   9.383   9.463 -0.1148  0.1622 -0.2131
  511loPI   C3A 8169  12.307   9.387   9.128  0.0535  0.0539  0.0367
  511loPI   C4A 8170  12.216   9.323   8.670 -0.1384  0.3120 -0.0009
  511loPI   C5A 8171  12.232   9.230   8.280  0.0623 -0.0368 -0.0890
  511loPI   C6A 8172  12.058   9.008   8.043  0.0382 -0.0364  0.1407
  511loPI   C1B 8173  12.359   8.901   9.714  0.1423 -0.2345  0.3284
  511loPI   C2B 8174  12.373   8.889   9.237 -0.0669  0.1221 -0.0392
  511loPI   C3B 8175  12.321   8.824   8.818  0.1211  0.0974 -0.1757
  511loPI   C4B 8176  12.310   8.695   8.397 -0.0311  0.0228  0.0218
  512loPI    C1 8177  17.283  11.301  10.251  0.1810 -0.0248 -0.0550
  512loPI    C2 8178  17.023  11.244  10.550  0.1894  0.1313 -0.0176
  512loPI    C3 8179  17.243  10.938  10.416  0.0281  0.0113 -0.0110
  512loPI   PO4 8180  17.180  11.536  10.078 -0.2964  0.1108 -0.0023
  512loPI   GL1 8181  17.161  11.360   9.728  0.0621 -0.1838 -0.1093
  512loPI   GL2 8182  16.845  11.514   9.535  0.0149 -0.0032 -0.0592
  512loPI   C1A 8183  17.383  11.361   9.397  0.0626  0.1891  0.1885
  512loPI   C2A 8184  17.496  11.152   9.014  0.1097  0.1692  0.1199
  512loPI   C3A 8185  17.627  11.234   8.535  0.4471  0.0842 -0.1269
  512loPI   C4A 8186  17.632  11.144   8.084 -0.1033 -0.0885  0.0282
  512loPI   C5A 8187  17.757  11.116   7.638 -0.1967  0.0962  0.4957
  512loPI   C6A 8188  18.027  11.261   7.338 -0.0153  0.0133  0.4768
  512loPI   C1B 8189  16.998  11.312   9.111  0.2895 -0.1377  0.3026
  512loPI   C2B 8190  17.126  11.290   8.694  0.1744 -0.0161 -0.6823
  512loPI   C3B 8191  17.103  11.294   8.329 -0.4528  0.1052  0.0716
  512loPI   C4B 8192  17.180  11.291   7.904  0.0504 -0.2163  0.1776
  513loPI    C1 8193  13.729  17.302   9.871  0.1007 -0.0916 -0.0590
  513loPI    C2 8194  13.917  17.583   9.657 -0.0332  0.0775  0.0433
  513loPI    C3 8195  13.682  17.688   9.963 -0.2716 -0.1328 -0.0637
  513loPI   PO4 8196  13.604  17.238   9.765 -0.2346  0.3276  0.1039
  513loPI   GL1 8197  13.660  17.342   9.244  0.0672 -0.0423 -0.0090
  513loPI   GL2 8198  13.957  17.227   9.311 -0.2647  0.1039 -0.2079
  513loPI   C1A 8199  13.515  17.504   8.766 -0.0353 -0.2037 -0.1366
  513loPI   C2A 8200  13.259  17.535   8.292 -0.2114 -0.0663 -0.3902
  513loPI   C3A 8201  13.179  17.612   7.931  0.0101 -0.2040  0.1400
  513loPI   C4A 8202  13.326  17.590   7.524 -0.0519 -0.0071 -0.1436
  513loPI   C5A 8203  13.023  17.368   7.283  0.3056 -0.2571  0.3547
  513loPI   C6A 8204  12.830  17.564   6.959 -0.0625 -0.2789  0.0699
  513loPI   C1B 8205  14.011  17.203   8.949 -0.0072  0.0043 -0.1600
  513loPI   C2B 8206  13.948  17.400   8.626 -0.0452  0.1505 -0.3104
  513loPI   C3B 8207  13.770  17.609   8.323 -0.0838 -0.0265 -0.1444
  513loPI   C4B 8208  13.678  17.475   7.869 -0.0408  0.1390  0.0892
  514loPI    C1 8209   1.615  18.176  10.813  0.0691 -0.1238  0.0690
  514loPI    C2 8210   1.363  18.287  11.102  0.1254 -0.0431  0.0875
  514loPI    C3 8211   1.688  18.073  11.192  0.0732 -0.1319  0.0660
  514loPI   PO4 8212   1.690  18.363  10.594  0.4302 -0.3734  0.0318
  514loPI   GL1 8213   1.550  18.259  10.146 -0.0752  0.0228 -0.1307
  514loPI   GL2 8214   1.746  18.008  10.096 -0.0302  0.0667  0.0869
  514loPI   C1A 8215   1.772  18.442   9.904  0.0151 -0.0095  0.1441
  514loPI   C2A 8216   1.880  18.385   9.466  0.0971  0.0683  0.2452
  514loPI   C3A 8217   1.841  18.454   9.037  0.1806  0.1721  0.1877
  514loPI   C4A 8218   1.993  18.410   8.628  0.0727 -0.0485  0.3402
  514loPI   C5A 8219   2.009  18.467   8.141  0.1836 -0.0276 -0.1150
  514loPI   C6A 8220   2.311  18.476   7.791 -0.2805  0.1154 -0.0137
  514loPI   C1B 8221   1.473  18.138   9.612  0.3861  0.0418  0.0372
  514loPI   C2B 8222   1.430  18.110   9.166 -0.1212  0.0732  0.1541
  514loPI   C3B 8223   1.462  18.180   8.826 -0.0158  0.0671  0.1563
  514loPI   C4B 8224   1.603  18.201   8.391  0.0376 -0.1060  0.1684
  515loPI    C1 8225  18.091   5.174  10.801 -0.1479 -0.1859 -0.0976
  515loPI    C2 8226  18.025   4.818  10.970 -0.1219 -0.1286  0.0342
  515loPI    C3 8227  18.201   5.110  11.180 -0.0300 -0.0772 -0.1125
  515loPI   PO4 8228  18.243   5.111  10.574  0.0277 -0.1622 -0.0041
  515loPI   GL1 8229  18.253   4.990  10.212 -0.4582 -0.0318  0.0519
  515loPI   GL2 8230  17.967   5.083  10.069 -0.2313  0.2198  0.0657
  515loPI   C1A 8231  18.551   5.089   9.749  0.1107 -0.1104  0.1337
  515loPI   C2A 8232  18.567   5.077   9.324 -0.1929  0.3797  0.0654
  515loPI   C3A 8233  18.551   5.039   8.898  0.0596  0.0101  0.0881
  515loPI   C4A 8234  18.493   5.151   8.359  0.0423 -0.2667 -0.1016
  515loPI   C5A 8235  18.576   5.217   7.987  0.0837  0.1133  0.2962
  515loPI   C6A 8236  18.607   5.525   7.657 -0.0666 -0.0962 -0.0706
  515loPI   C1B 8237  18.071   5.285   9.774  0.0726  0.3632  0.0934
  515loPI   C2B 8238  18.021   5.098   9.264 -0.0767 -0.0189  0.3762
  515loPI   C3B 8239  18.045   5.252   8.909  0.0715  0.1637 -0.2231
  515loPI   C4B 8240  18.009   5.199   8.504  0.4672  0.0124  0.1341
  516loPI    C1 8241  11.420  16.568  10.064 -0.2240 -0.2853  0.0565
  516loPI    C2 8242  11.686  16.791  10.262 -0.4326  0.0147  0.0068
  516loPI    C3 8243  11.678  16.394  10.316  0.1476 -0.0264 -0.1359
  516loPI   PO4 8244  11.426  16.572   9.787 -0.0592 -0.0549  0.0219
  516loPI   GL1 8245  11.411  16.595   9.375 -0.2197  0.1589  0.0637
  516loPI   GL2 8246  11.243  16.322   9.392  0.0463 -0.0364  0.1679
  516loPI   C1A 8247  11.424  16.627   8.961 -0.2686  0.0646  0.1823
  516loPI   C2A 8248  11.338  16.559   8.534 -0.1326  0.5165  0.0273
  516loPI   C3A 8249  11.128  16.475   8.171  0.0336 -0.0278  0.2817
  516loPI   C4A 8250  10.971  16.680   7.780 -0.2373 -0.1210  0.2115
  516loPI   C5A 8251  10.922  17.025   7.434 -0.4207  0.0090 -0.2022
  516loPI   C6A 8252  10.991  17.007   6.988  0.2833  0.4224 -0.2001
  516loPI   C1B 8253  11.226  16.176   9.087  0.3264  0.5105 -0.0193
  516loPI   C2B 8254  10.974  16.141   8.722 -0.0183  0.0677 -0.1654
  516loPI   C3B 8255  10.766  16.099   8.263  0.1758 -0.0678  0.0565
  516loPI   C4B 8256  10.758  16.269   7.919  0.1138 -0.0073 -0.4077
  517loPI    C1 8257   0.244  15.072  10.050 -0.2175 -0.2267 -0.0438
  517loPI    C2 8258   0.611  14.914  10.045 -0.2283 -0.2689  0.2999
  517loPI    C3 8259   0.437  15.006  10.393 -0.4513 -0.0299  0.1290
  517loPI   PO4 8260   0.038  14.885   9.811 -0.1960 -0.0551  0.0269
  517loPI   GL1 8261   0.070  14.700   9.450 -0.0596 -0.2481  0.0460
  517loPI   GL2 8262   0.359  14.597   9.238  0.1691  0.0635 -0.3865
  517loPI   C1A 8263   0.132  14.976   9.036  0.0986  0.2065  0.2317
  517loPI   C2A 8264   0.254  14.893   8.592  0.1010 -0.0045  0.3021
  517loPI   C3A 8265   0.347  15.222   8.300 -0.0875  0.1331 -0.1377
  517loPI   C4A 8266   0.349  15.486   7.861  0.1284 -0.0464 -0.2058
  517loPI   C5A 8267   0.272  15.936   7.598  0.3068 -0.0061 -0.1878
  517loPI   C6A 8268  -0.035  16.061   7.494  0.4891 -0.1468 -0.0596
  517loPI   C1B 8269   0.539  14.682   8.910 -0.0827 -0.2730 -0.2069
  517loPI   C2B 8270   0.730  14.761   8.539 -0.1830 -0.0535  0.1309
  517loPI   C3B 8271   1.067  14.756   8.249  0.0778  0.1122  0.1703
  517loPI   C4B 8272   1.414  14.542   7.955 -0.0175  0.0833  0.0560
  518loPI    C1 8273  13.511  16.472   9.577  0.0797  0.1529  0.1766
  518loPI    C2 8274  13.875  16.447   9.414 -0.0051 -0.0554  0.0149
  518loPI    C3 8275  13.770  16.773   9.620  0.1234  0.1913 -0.3017
  518loPI   PO4 8276  13.371  16.428   9.394  0.2318 -0.0857 -0.2616
  518loPI   GL1 8277  13.415  16.378   9.016  0.2270 -0.3813 -0.1232
  518loPI   GL2 8278  13.762  16.357   8.923 -0.0791  0.0605 -0.0312
  518loPI   C1A 8279  13.305  16.260   8.584  0.1053  0.2303  0.1849
  518loPI   C2A 8280  13.194  16.222   8.149  0.0405 -0.2529 -0.1542
  518loPI   C3A 8281  13.117  16.145   7.725 -0.0267 -0.0451 -0.2152
  518loPI   C4A 8282  12.891  15.883   7.496 -0.2309  0.0953 -0.1435
  518loPI   C5A 8283  12.689  16.011   7.091 -0.0167  0.3861  0.0877
  518loPI   C6A 8284  12.634  16.386   6.744 -0.0170  0.3430 -0.2286
  518loPI   C1B 8285  13.741  16.534   8.497 -0.1174  0.3164 -0.1759
  518loPI   C2B 8286  13.640  16.537   8.135  0.3663  0.0876  0.0772
  518loPI   C3B 8287  13.437  16.550   7.766 -0.0410 -0.1381 -0.2626
  518loPI   C4B 8288  13.574  16.253   7.413  0.2066 -0.3822 -0.4062
  519loPI    C1 8289   9.591   4.144  11.233 -0.1367  0.1658  0.1662
  519loPI    C2 8290   9.981   4.202  11.304 -0.0416 -0.0579 -0.1504
  519loPI    C3 8291   9.707   4.420  11.498  0.2328 -0.0269  0.2122
  519loPI   PO4 8292   9.688   4.199  10.936  0.4857  0.2413  0.2485
  519loPI   GL1 8293   9.814   4.093  10.507  0.0119  0.3339 -0.1251
  519loPI   GL2 8294   9.464   4.117  10.473 -0.4093  0.0187  0.1291
  519loPI   C1A 8295   9.798   4.093   9.984 -0.0077 -0.1035 -0.1625
  519loPI   C2A 8296   9.902   4.032   9.511 -0.1030 -0.2167  0.3532
  519loPI   C3A 8297   9.882   3.953   9.035 -0.3487  0.0682  0.0121
  519loPI   C4A 8298   9.787   3.976   8.654  0.1274 -0.2704 -0.0202
  519loPI   C5A 8299   9.850   3.994   8.260 -0.0114 -0.5067  0.0120
  519loPI   C6A 8300   9.826   4.050   7.820 -0.1879 -0.0976 -0.0730
  519loPI   C1B 8301   9.318   4.234  10.102 -0.1390  0.1789 -0.1493
  519loPI   C2B 8302   9.335   4.286   9.736  0.1457  0.3123  0.0331
  519loPI   C3B 8303   9.339   4.282   9.271 -0.0336 -0.1523 -0.1052
  519loPI   C4B 8304   9.381   4.155   8.942  0.2505  0.0909 -0.2900
  520loPI    C1 8305  11.230  12.295  10.599 -0.0624  0.1472  0.0147
  520loPI    C2 8306  10.939  12.041  10.703  0.0255 -0.0103 -0.1185
  520loPI    C3 8307  10.856  12.428  10.647 -0.1587 -0.0546 -0.1580
  520loPI   PO4 8308  11.314  12.225  10.336  0.0060 -0.0300 -0.0655
  520loPI   GL1 8309  11.485  12.214   9.936  0.1530  0.3547  0.0022
  520loPI   GL2 8310  11.209  12.478   9.944  0.3454  0.2099 -0.3070
  520loPI   C1A 8311  11.373  12.160   9.492 -0.1077 -0.1695  0.1700
  520loPI   C2A 8312  11.261  12.383   9.129  0.0259  0.0805 -0.1618
  520loPI   C3A 8313  11.202  12.516   8.760  0.2235  0.2152 -0.1675
  520loPI   C4A 8314  11.175  12.544   8.305 -0.1851  0.1417 -0.0956
  520loPI   C5A 8315  11.261  12.475   7.908 -0.0509 -0.0128 -0.3892
  520loPI   C6A 8316  11.759  12.510   7.716 -0.0270 -0.2368 -0.0177
  520loPI   C1B 8317  11.147  12.703   9.569  0.2007  0.1575 -0.0363
  520loPI   C2B 8318  11.130  12.850   9.147  0.0081  0.1202  0.0303
  520loPI   C3B 8319  11.192  13.077   8.712 -0.1947 -0.0358  0.1700
  520loPI   C4B 8320  11.099  13.012   8.328  0.5709 -0.1811  0.1573
  521loPI    C1 8321   8.771   6.776  11.243 -0.1123  0.0411 -0.2380
  521loPI    C2 8322   8.845   7.129  11.416 -0.1802  0.0289 -0.1838
  521loPI    C3 8323   8.490   6.951  11.468 -0.2318  0.0648 -0.4036
  521loPI   PO4 8324   8.801   6.828  11.035 -0.0591  0.0058 -0.2799
  521loPI   GL1 8325   8.708   6.786  10.650 -0.1949  0.1184 -0.1443
  521loPI   GL2 8326   8.868   6.447  10.671 -0.1470  0.1446  0.2017
  521loPI   C1A 8327   8.555   6.901  10.204 -0.1169 -0.0144  0.0907
  521loPI   C2A 8328   8.492   6.950   9.777 -0.0568 -0.3697  0.0226
  521loPI   C3A 8329   8.510   6.898   9.372  0.0976  0.0906 -0.1694
  521loPI   C4A 8330   8.493   6.968   8.937  0.3625 -0.1849  0.0492
  521loPI   C5A 8331   8.574   7.162   8.586 -0.2571  0.1187  0.2677
  521loPI   C6A 8332   8.565   7.475   8.186 -0.3747  0.1736 -0.1722
  521loPI   C1B 8333   8.879   6.394  10.177  0.2313  0.1288 -0.3410
  521loPI   C2B 8334   8.953   6.263   9.760 -0.1793 -0.0956  0.0451
  521loPI   C3B 8335   9.054   6.260   9.387  0.0621  0.0719  0.2707
  521loPI   C4B 8336   8.995   6.273   8.879 -0.0791  0.1302 -0.0160
  522loPI    C1 8337   8.515  11.752  10.488  0.0928  0.0687 -0.0456
  522loPI    C2 8338   8.449  11.562  10.834 -0.0694  0.0613 -0.0797
  522loPI    C3 8339   8.637  11.374  10.535  0.0056  0.0431 -0.0214
  522loPI   PO4 8340   8.497  11.949  10.493 -0.3315 -0.3725 -0.0652
  522loPI   GL1 8341   8.492  12.172  10.037  0.4230 -0.0973  0.1112
  522loPI   GL2 8342   8.725  12.376   9.864  0.1094 -0.1560  0.1755
  522loPI   C1A 8343   8.231  12.024   9.682 -0.0607 -0.0535 -0.0102
  522loPI   C2A 8344   8.116  11.919   9.256  0.0242 -0.1734  0.2585
  522loPI   C3A 8345   8.186  12.046   8.825  0.1472  0.1278 -0.1731
  522loPI   C4A 8346   8.045  11.935   8.432  0.0535 -0.2438 -0.2220
  522loPI   C5A 8347   7.848  11.804   8.066 -0.2068 -0.0769  0.1041
  522loPI   C6A 8348   7.505  11.886   7.752  0.1454 -0.2061 -0.1896
  522loPI   C1B 8349   8.638  12.268   9.491 -0.1369 -0.4196  0.0288
  522loPI   C2B 8350   8.595  12.260   9.040  0.0554 -0.0395  0.2618
  522loPI   C3B 8351   8.635  12.269   8.675  0.0889  0.2948 -0.0876
  522loPI   C4B 8352   8.480  12.309   8.300 -0.1127  0.2012 -0.4100
  523loPI    C1 8353   4.671  17.973  11.086  0.1615  0.1913  0.0710
  523loPI    C2 8354   4.969  18.202  11.222  0.1038  0.2270  0.1375
  523loPI    C3 8355   4.654  18.124  11.456  0.1144  0.0950  0.1086
  523loPI   PO4 8356   4.562  18.096  10.854  0.1565 -0.0449 -0.1196
  523loPI   GL1 8357   4.478  18.099  10.405  0.2016  0.1846 -0.2631
  523loPI   GL2 8358   4.530  17.739  10.487 -0.2254  0.1629  0.3698
  523loPI   C1A 8359   4.601  18.352  10.086  0.0968  0.0711 -0.0010
  523loPI   C2A 8360   4.557  18.420   9.689  0.1943 -0.3136 -0.1096
  523loPI   C3A 8361   4.473  18.401   9.207 -0.6115  0.0095 -0.0855
  523loPI   C4A 8362   4.584  18.498   8.697 -0.1517 -0.3235  0.0825
  523loPI   C5A 8363   4.518  18.305   8.433  0.1232  0.1168  0.1943
  523loPI   C6A 8364   4.341  18.279   8.041  0.2859  0.0839  0.0099
  523loPI   C1B 8365   4.610  17.669  10.041 -0.3049  0.1673 -0.0247
  523loPI   C2B 8366   4.710  17.806   9.740 -0.0848  0.1247 -0.1244
  523loPI   C3B 8367   4.645  17.899   9.287  0.0359 -0.3762  0.1435
  523loPI   C4B 8368   4.699  18.008   8.861 -0.2088 -0.3172 -0.2098
  524loPI    C1 8369  17.739   2.120  10.490 -0.0031 -0.0145  0.1708
  524loPI    C2 8370  17.680   1.885  10.808 -0.2204  0.0832  0.2042
  524loPI    C3 8371  17.814   2.258  10.858  0.0468 -0.0044  0.1570
  524loPI   PO4 8372  17.736   1.961  10.248 -0.0031  0.0434 -0.1309
  524loPI   GL1 8373  17.962   1.758   9.792 -0.1110  0.4212 -0.2229
  524loPI   GL2 8374  18.101   2.011   9.953  0.0206 -0.0385  0.0699
  524loPI   C1A 8375  18.081   1.388   9.444 -0.2188 -0.3664 -0.1241
  524loPI   C2A 8376  18.200   1.251   9.085  0.1368 -0.4385  0.1441
  524loPI   C3A 8377  18.319   1.296   8.637 -0.0550  0.2163  0.1288
  524loPI   C4A 8378  18.263   1.236   8.198  0.0172 -0.0143  0.1600
  524loPI   C5A 8379  18.280   1.384   7.795 -0.0713  0.0438  0.1094
  524loPI   C6A 8380  18.530   1.362   7.433  0.1460 -0.1885 -0.1341
  524loPI   C1B 8381  18.088   2.325   9.706  0.0658 -0.1041 -0.3036
  524loPI   C2B 8382  18.029   2.372   9.309 -0.1246 -0.2003 -0.0013
  524loPI   C3B 8383  18.077   2.243   8.927 -0.0075  0.0363  0.3302
  524loPI   C4B 8384  18.134   2.340   8.564  0.0549 -0.1099  0.0703
  525loPI    C1 8385  12.120  12.735  10.062 -0.0159 -0.0442 -0.1737
  525loPI    C2 8386  11.971  12.370  10.126  0.2915 -0.1344  0.0496
  525loPI    C3 8387  12.021  12.622  10.432  0.1771  0.0590 -0.0889
  525loPI   PO4 8388  12.225  12.661   9.840 -0.0302  0.2962 -0.0907
  525loPI   GL1 8389  12.198  12.589   9.461  0.0156  0.1246  0.3879
  525loPI   GL2 8390  12.370  12.293   9.548  0.1881  0.3198 -0.1208
  525loPI   C1A 8391  12.202  12.594   9.078  0.1601 -0.1158  0.2127
  525loPI   C2A 8392  12.088  12.687   8.713  0.1043  0.0971 -0.2011
  525loPI   C3A 8393  12.096  12.555   8.369 -0.1746  0.0183 -0.0401
  525loPI   C4A 8394  12.176  12.750   7.935  0.2194 -0.1739  0.0389
  525loPI   C5A 8395  12.429  12.834   7.639  0.1549  0.0772  0.1802
  525loPI   C6A 8396  12.696  12.771   7.289 -0.3883  0.2939  0.1710
  525loPI   C1B 8397  12.434  12.149   9.133 -0.2217  0.1670  0.1676
  525loPI   C2B 8398  12.375  12.246   8.703  0.2050 -0.0313  0.3008
  525loPI   C3B 8399  12.073  12.049   8.336 -0.0484 -0.3449  0.0895
  525loPI   C4B 8400  12.056  12.041   7.913 -0.1242 -0.0391 -0.0239
  526loPI    C1 8401  13.983   5.659  10.468 -0.1425 -0.2324 -0.0504
  526loPI    C2 8402  13.816   5.814  10.797 -0.0610  0.0316 -0.1312
  526loPI    C3 8403  14.080   5.515  10.829  0.0783  0.1720  0.0573
  526loPI   PO4 8404  14.181   5.857  10.295 -0.0089 -0.2720  0.0994
  526loPI   GL1 8405  14.577   5.800  10.028  0.0385  0.3165 -0.3103
  526loPI   GL2 8406  14.604   5.961   9.764 -0.1137  0.1920 -0.0203
  526loPI   C1A 8407  14.684   5.531   9.741  0.0370  0.3016 -0.0499
  526loPI   C2A 8408  14.796   5.488   9.375  0.0069 -0.1462  0.1262
  526loPI   C3A 8409  14.762   5.499   8.958 -0.3651 -0.0034 -0.2004
  526loPI   C4A 8410  14.697   5.463   8.460 -0.0702  0.0559  0.1828
  526loPI   C5A 8411  14.811   5.488   8.083 -0.1759  0.1113  0.2115
  526loPI   C6A 8412  15.070   5.231   7.849  0.3859 -0.2618  0.0763
  526loPI   C1B 8413  14.708   6.016   9.391 -0.4041 -0.0961  0.0110
  526loPI   C2B 8414  14.667   5.943   8.907 -0.1435  0.1286  0.1208
  526loPI   C3B 8415  14.541   6.005   8.529 -0.0004 -0.2976  0.1402
  526loPI   C4B 8416  14.525   5.901   8.074  0.0570  0.0611 -0.3052
  527loPI    C1 8417   1.257   2.347  10.737 -0.2054 -0.1772  0.0789
  527loPI    C2 8418   0.931   2.315  10.507 -0.1515 -0.1375 -0.0033
  527loPI    C3 8419   0.899   2.280  10.904 -0.3066  0.1889  0.0164
  527loPI   PO4 8420   1.421   2.249  10.622  0.1633  0.1850  0.0760
  527loPI   GL1 8421   1.417   2.056  10.228 -0.1962  0.2845  0.0805
  527loPI   GL2 8422   1.820   1.959  10.249 -0.1001 -0.0134  0.4623
  527loPI   C1A 8423   1.434   2.025   9.736  0.3499  0.0954 -0.1448
  527loPI   C2A 8424   1.472   2.094   9.332  0.0557  0.1443  0.0532
  527loPI   C3A 8425   1.539   2.172   8.929  0.1570  0.1236  0.2612
  527loPI   C4A 8426   1.400   2.143   8.559  0.1446 -0.0252  0.0501
  527loPI   C5A 8427   1.434   2.195   8.156  0.3013 -0.0354 -0.6125
  527loPI   C6A 8428   1.751   2.078   7.842 -0.2367 -0.0886 -0.2024
  527loPI   C1B 8429   1.914   1.876   9.813  0.3441 -0.3463  0.0445
  527loPI   C2B 8430   1.929   1.945   9.387  0.0423  0.1100 -0.2980
  527loPI   C3B 8431   1.980   1.961   9.029 -0.0549  0.0699  0.0604
  527loPI   C4B 8432   1.885   1.937   8.681  0.2573  0.0270  0.1795
  528loPI    C1 8433  15.265  10.591  10.472 -0.2526 -0.1090  0.2458
  528loPI    C2 8434  15.297  10.917  10.701 -0.3639  0.0940 -0.0222
  528loPI    C3 8435  15.539  10.605  10.763 -0.1749  0.2730  0.1600
  528loPI   PO4 8436  15.364  10.596  10.135  0.2457 -0.2589 -0.0444
  528loPI   GL1 8437  15.318  10.436   9.783  0.3922 -0.0482  0.0456
  528loPI   GL2 8438  15.500  10.166   9.625  0.3403 -0.0464 -0.1325
  528loPI   C1A 8439  15.222  10.711   9.284 -0.0149  0.2354  0.1129
  528loPI   C2A 8440  15.145  10.657   8.821  0.0449 -0.0823  0.0555
  528loPI   C3A 8441  15.504  10.511   8.517  0.0302 -0.2570 -0.3184
  528loPI   C4A 8442  15.870  10.477   8.291 -0.3029  0.1042  0.1732
  528loPI   C5A 8443  16.086  10.767   8.111 -0.0856  0.2300 -0.1117
  528loPI   C6A 8444  16.128  11.094   8.092  0.4055  0.1670  0.1015
  528loPI   C1B 8445  15.408  10.134   9.175 -0.0638  0.2071 -0.0869
  528loPI   C2B 8446  15.332  10.122   8.731  0.0632 -0.3756  0.2578
  528loPI   C3B 8447  15.384  10.028   8.373 -0.0825  0.1420  0.1469
  528loPI   C4B 8448  15.542  10.114   8.105  0.0836  0.2703  0.2343
  529loPI    C1 8449  13.638  14.429   9.622  0.3543  0.0922 -0.0319
  529loPI    C2 8450  13.600  14.033   9.662  0.1282  0.0930 -0.2138
  529loPI    C3 8451  13.752  14.251   9.961 -0.1668 -0.0752  0.0645
  529loPI   PO4 8452  13.445  14.494   9.460  0.0009 -0.0308 -0.0167
  529loPI   GL1 8453  13.536  14.336   9.029 -0.1945 -0.0481  0.0375
  529loPI   GL2 8454  13.777  14.136   9.162  0.4037  0.0285 -0.0258
  529loPI   C1A 8455  13.378  14.587   8.715  0.0366  0.1551 -0.1097
  529loPI   C2A 8456  13.305  14.602   8.241 -0.0586  0.1089 -0.2153
  529loPI   C3A 8457  13.183  14.475   7.757  0.2515 -0.0608 -0.1711
  529loPI   C4A 8458  13.226  14.492   7.266 -0.0668  0.1336  0.0442
  529loPI   C5A 8459  13.287  14.561   6.842  0.0208  0.1142  0.1380
  529loPI   C6A 8460  13.667  14.524   6.649  0.1292 -0.1938  0.2039
  529loPI   C1B 8461  13.751  13.936   8.758 -0.1321 -0.2182  0.0581
  529loPI   C2B 8462  13.705  13.909   8.333 -0.0909 -0.0063  0.3953
  529loPI   C3B 8463  13.647  13.677   7.856 -0.2739 -0.1728  0.0298
  529loPI   C4B 8464  13.980  13.738   7.551 -0.2742 -0.2282  0.1119
  530loPI    C1 8465  15.871  18.466   9.823 -0.1373  0.0867  0.0278
  530loPI    C2 8466  15.770  18.705  10.128  0.0830  0.0663  0.1188
  530loPI    C3 8467  15.734  18.308  10.164 -0.1822  0.0777  0.0057
  530loPI   PO4 8468  15.763  18.524   9.669 -0.0782  0.0417  0.5399
  530loPI   GL1 8469  15.661  18.732   9.334  0.1435  0.0018 -0.0826
  530loPI   GL2 8470  16.014  18.494   9.234 -0.0565 -0.1038  0.1240
  530loPI   C1A 8471  15.568  18.607   8.970 -0.2737  0.0740 -0.1455
  530loPI   C2A 8472  15.610  18.634   8.556  0.0399 -0.3570 -0.2623
  530loPI   C3A 8473  15.665  18.741   8.066 -0.1883 -0.3287 -0.0072
  530loPI   C4A 8474  15.584  19.004   7.638 -0.1744  0.1299 -0.1713
  530loPI   C5A 8475  15.226  19.128   7.342  0.0396 -0.1028 -0.0357
  530loPI   C6A 8476  15.040  19.424   7.237  0.0574 -0.0831 -0.2483
  530loPI   C1B 8477  16.016  18.453   8.732  0.0398  0.2096 -0.1461
  530loPI   C2B 8478  16.156  18.551   8.307  0.1319  0.0222 -0.0364
  530loPI   C3B 8479  16.234  18.401   7.907  0.1266  0.4741  0.2251
  530loPI   C4B 8480  16.407  18.394   7.497  0.0786  0.0842 -0.0188
  531loPI    C1 8481  18.199  16.996  10.013 -0.1552 -0.1552 -0.0240
  531loPI    C2 8482  18.123  16.823  10.365 -0.0176 -0.0898  0.0384
  531loPI    C3 8483  17.851  17.065  10.199  0.0080  0.0578  0.2081
  531loPI   PO4 8484  18.281  16.769   9.869 -0.3340  0.0110  0.0621
  531loPI   GL1 8485  18.398  16.641   9.441 -0.0993 -0.4133 -0.0283
  531loPI   GL2 8486  18.522  16.415   9.311  0.0727  0.0864  0.3058
  531loPI   C1A 8487  18.567  16.984   9.197  0.1773  0.0885 -0.0333
  531loPI   C2A 8488  18.837  16.889   8.840 -0.0460  0.0007  0.3371
  531loPI   C3A 8489  19.213  17.059   8.587 -0.3856  0.0124  0.0437
  531loPI   C4A 8490  19.452  16.989   8.221  0.2407 -0.1206  0.3963
  531loPI   C5A 8491  19.681  16.866   8.180 -0.0235  0.1853 -0.1610
  531loPI   C6A 8492  19.889  16.569   8.005  0.0825 -0.0387  0.1309
  531loPI   C1B 8493  18.544  16.131   8.897 -0.1609 -0.2710  0.1121
  531loPI   C2B 8494  18.691  16.053   8.494  0.1857 -0.0418 -0.2516
  531loPI   C3B 8495  18.928  16.119   8.156  0.0319 -0.0934  0.1258
  531loPI   C4B 8496  19.323  15.884   7.931  0.1558 -0.2146 -0.0508
  532loPI    C1 8497  11.546  15.044   9.942 -0.1105  0.0183  0.1116
  532loPI    C2 8498  11.627  14.816  10.260  0.1212 -0.0484  0.0069
  532loPI    C3 8499  11.557  15.207  10.307 -0.0746 -0.1007  0.1639
  532loPI   PO4 8500  11.431  14.895   9.792 -0.2124 -0.2943 -0.2481
  532loPI   GL1 8501  11.305  14.947   9.383  0.1544  0.0556 -0.0114
  532loPI   GL2 8502  11.021  14.796   9.334 -0.2890 -0.2479 -0.1238
  532loPI   C1A 8503  11.350  14.939   8.910  0.0026 -0.1838 -0.0563
  532loPI   C2A 8504  11.414  14.922   8.521  0.1525  0.0582  0.2656
  532loPI   C3A 8505  11.424  14.979   8.062  0.0139  0.0982  0.4038
  532loPI   C4A 8506  11.436  15.026   7.702  0.2213 -0.4401 -0.1075
  532loPI   C5A 8507  11.246  15.007   7.357 -0.0465 -0.1360 -0.2145
  532loPI   C6A 8508  10.877  15.173   7.246 -0.2735 -0.0904  0.1809
  532loPI   C1B 8509  11.021  14.601   9.008  0.3459 -0.0986  0.0229
  532loPI   C2B 8510  10.988  14.550   8.618  0.1875 -0.1027 -0.0890
  532loPI   C3B 8511  10.899  14.521   8.167 -0.0946  0.0543  0.1825
  532loPI   C4B 8512  11.190  14.621   7.730 -0.1745 -0.0635  0.0294
  533loPI    C1 8513  14.486  12.438   9.752  0.1133  0.0375 -0.0178
  533loPI    C2 8514  14.350  12.061   9.749 -0.0010  0.0788 -0.1370
  533loPI    C3 8515  14.299  12.289  10.074 -0.1797  0.0796 -0.1646
  533loPI   PO4 8516  14.353  12.520   9.556 -0.0306  0.1320 -0.0241
  533loPI   GL1 8517  14.483  12.650   9.210 -0.0036 -0.1486 -0.0808
  533loPI   GL2 8518  14.773  12.381   9.230 -0.1320  0.0973  0.0777
  533loPI   C1A 8519  14.422  12.663   8.859 -0.0605  0.0389  0.2412
  533loPI   C2A 8520  14.494  12.487   8.507 -0.0427 -0.0562 -0.2777
  533loPI   C3A 8521  14.434  12.490   8.161 -0.0257  0.2728  0.1467
  533loPI   C4A 8522  14.447  12.391   7.764  0.1430  0.3508  0.0105
  533loPI   C5A 8523  14.168  12.383   7.487  0.2498  0.1394  0.2901
  533loPI   C6A 8524  13.908  12.183   7.131 -0.0096 -0.1004  0.2807
  533loPI   C1B 8525  14.810  12.243   8.869  0.0806  0.0596  0.0512
  533loPI   C2B 8526  14.924  12.228   8.540 -0.4013  0.2010  0.0385
  533loPI   C3B 8527  14.914  12.310   8.059  0.0304  0.3082  0.3926
  533loPI   C4B 8528  14.972  12.271   7.690 -0.2178  0.0379  0.0315
  534loPI    C1 8529   1.963   1.219  10.681 -0.1078 -0.1354 -0.2665
  534loPI    C2 8530   1.781   0.931  10.889 -0.0636  0.0274  0.0015
  534loPI    C3 8531   2.123   1.088  11.023 -0.0079  0.0995 -0.2215
  534loPI   PO4 8532   1.977   1.124  10.467  0.2406  0.0863 -0.3435
  534loPI   GL1 8533   2.033   0.847  10.098 -0.2343  0.0764 -0.1362
  534loPI   GL2 8534   2.350   0.786  10.220 -0.0807 -0.1462  0.1353
  534loPI   C1A 8535   2.120   0.755   9.530  0.2513 -0.0688  0.1304
  534loPI   C2A 8536   2.201   0.760   9.110 -0.1971 -0.2585 -0.1732
  534loPI   C3A 8537   2.203   0.824   8.657  0.1633 -0.1225  0.1444
  534loPI   C4A 8538   2.440   0.922   8.340 -0.0782 -0.3726  0.0509
  534loPI   C5A 8539   2.612   1.174   8.066 -0.0877 -0.3613 -0.0454
  534loPI   C6A 8540   2.726   1.490   7.650 -0.1074  0.0393  0.2044
  534loPI   C1B 8541   2.533   0.632   9.856 -0.0771 -0.0972 -0.0302
  534loPI   C2B 8542   2.597   0.594   9.445  0.1493 -0.1165  0.2321
  534loPI   C3B 8543   2.671   0.613   9.048 -0.0188 -0.3593  0.1143
  534loPI   C4B 8544   2.733   0.625   8.623 -0.1803 -0.0053  0.1812
  535loPI    C1 8545   2.152  13.717  10.680  0.0632 -0.0644  0.0214
  535loPI    C2 8546   2.312  13.668  11.043  0.0590 -0.1608  0.0106
  535loPI    C3 8547   2.274  13.354  10.797  0.0294 -0.1025 -0.0596
  535loPI   PO4 8548   2.218  13.828  10.466 -0.0657  0.1188 -0.1172
  535loPI   GL1 8549   2.349  13.625  10.095  0.3090  0.0583 -0.0871
  535loPI   GL2 8550   2.410  13.357   9.940 -0.0968 -0.1061  0.1974
  535loPI   C1A 8551   2.462  13.863   9.756 -0.3221 -0.0330  0.1203
  535loPI   C2A 8552   2.428  13.903   9.323 -0.0571  0.3529 -0.0009
  535loPI   C3A 8553   2.417  14.116   9.075 -0.2279 -0.1487  0.1244
  535loPI   C4A 8554   2.669  14.168   8.731  0.3317  0.0619 -0.3731
  535loPI   C5A 8555   3.012  14.450   8.597 -0.1336  0.1868  0.0333
  535loPI   C6A 8556   3.241  14.554   8.256  0.0487 -0.2533 -0.0322
  535loPI   C1B 8557   2.582  13.004   9.686  0.1732 -0.0714  0.3057
  535loPI   C2B 8558   2.906  13.056   9.351 -0.1824 -0.2941  0.2426
  535loPI   C3B 8559   2.746  13.048   8.854 -0.1949  0.0594 -0.1308
  535loPI   C4B 8560   2.412  13.387   8.523  0.2885 -0.1443  0.2751
  536loPI    C1 8561   4.020  12.942  10.743  0.1775 -0.0416  0.1071
  536loPI    C2 8562   3.628  12.890  10.804  0.1462  0.0486 -0.0131
  536loPI    C3 8563   3.884  12.594  10.885  0.0561 -0.0018  0.0896
  536loPI   PO4 8564   4.034  13.039  10.485  0.1690  0.0133 -0.4038
  536loPI   GL1 8565   4.016  13.176  10.165 -0.2895 -0.0632  0.0191
  536loPI   GL2 8566   3.727  13.111  10.102  0.1943  0.2003 -0.0323
  536loPI   C1A 8567   4.157  13.370   9.904  0.2202 -0.2799  0.0013
  536loPI   C2A 8568   4.144  13.543   9.455 -0.1193  0.1550  0.0155
  536loPI   C3A 8569   4.182  13.579   9.035 -0.4231  0.3013  0.3201
  536loPI   C4A 8570   4.127  13.609   8.636 -0.2992 -0.0322 -0.0977
  536loPI   C5A 8571   3.805  13.534   8.412  0.0398  0.0836  0.1537
  536loPI   C6A 8572   3.490  13.432   8.132 -0.0942 -0.2412 -0.0651
  536loPI   C1B 8573   3.520  13.019   9.853 -0.1538 -0.3023 -0.1739
  536loPI   C2B 8574   3.416  12.982   9.403  0.2549 -0.0698 -0.1802
  536loPI   C3B 8575   3.336  12.872   8.994 -0.1998 -0.0934  0.1276
  536loPI   C4B 8576   3.200  12.974   8.607 -0.0595 -0.0954  0.1860
  537loPI    C1 8577   8.859   7.903  10.885 -0.2724 -0.0685  0.0712
  537loPI    C2 8578   8.880   7.654  11.197  0.0836  0.0186  0.1209
  537loPI    C3 8579   9.215   7.770  11.010 -0.1135  0.1027 -0.1874
  537loPI   PO4 8580   8.684   7.739  10.742  0.2662 -0.1285  0.0947
  537loPI   GL1 8581   8.712   7.778  10.279 -0.0901 -0.0354 -0.0130
  537loPI   GL2 8582   9.048   7.877  10.387 -0.0995 -0.0295  0.2183
  537loPI   C1A 8583   8.854   7.949   9.914 -0.4531  0.0758  0.0053
  537loPI   C2A 8584   8.851   7.780   9.449 -0.2115  0.3062  0.1529
  537loPI   C3A 8585   8.801   7.833   9.026  0.3317  0.1189 -0.0143
  537loPI   C4A 8586   8.818   7.741   8.524  0.0040 -0.0096 -0.0006
  537loPI   C5A 8587   9.018   7.409   8.550  0.0153  0.1876 -0.1755
  537loPI   C6A 8588   9.385   7.226   8.382 -0.0626  0.0708  0.0724
  537loPI   C1B 8589   9.288   7.593  10.067 -0.1301 -0.0702  0.0853
  537loPI   C2B 8590   9.317   7.619   9.565 -0.1509  0.2114 -0.1436
  537loPI   C3B 8591   9.262   7.542   9.101  0.1417 -0.1172 -0.1769
  537loPI   C4B 8592   9.379   7.675   8.722  0.2977 -0.2253 -0.0951
  538loPI    C1 8593  10.261   3.616  10.725  0.0860 -0.0299 -0.2686
  538loPI    C2 8594  10.072   3.920  10.905  0.0200 -0.0817 -0.2500
  538loPI    C3 8595  10.367   3.993  10.645  0.1388 -0.0072 -0.0959
  538loPI   PO4 8596  10.100   3.456  10.591  0.1294  0.1233  0.0619
  538loPI   GL1 8597   9.907   3.638  10.217 -0.2514 -0.0266 -0.0846
  538loPI   GL2 8598   9.723   3.389  10.282  0.0620 -0.0130 -0.2148
  538loPI   C1A 8599   9.921   3.610   9.826 -0.1040  0.0409  0.1044
  538loPI   C2A 8600   9.839   3.524   9.330  0.1457  0.0029  0.1778
  538loPI   C3A 8601   9.935   3.424   8.836  0.1247  0.0995 -0.0197
  538loPI   C4A 8602   9.895   3.528   8.405 -0.2906 -0.0015 -0.1441
  538loPI   C5A 8603   9.565   3.621   8.016  0.1199 -0.2732 -0.3172
  538loPI   C6A 8604   9.723   3.428   7.623 -0.2120  0.1359 -0.0270
  538loPI   C1B 8605   9.478   3.264   9.895  0.0294  0.0987 -0.1244
  538loPI   C2B 8606   9.462   3.219   9.505 -0.1790  0.2082  0.3427
  538loPI   C3B 8607   9.489   3.217   9.021  0.0625  0.1790 -0.2371
  538loPI   C4B 8608   9.521   3.181   8.568 -0.1063  0.1772 -0.0410
  539loPI    C1 8609   8.085   4.607  11.066 -0.1660 -0.3535  0.1675
  539loPI    C2 8610   8.186   4.744  11.428 -0.1882 -0.1448  0.0963
  539loPI    C3 8611   8.361   4.415  11.283  0.1473  0.0216  0.1134
  539loPI   PO4 8612   8.150   4.872  10.848  0.0870  0.0740 -0.1636
  539loPI   GL1 8613   8.207   4.973  10.457 -0.1733 -0.1850 -0.0721
  539loPI   GL2 8614   8.020   5.252  10.399  0.1478  0.0623  0.2168
  539loPI   C1A 8615   8.295   4.996  10.040 -0.4601 -0.0634  0.2179
  539loPI   C2A 8616   8.296   5.115   9.604  0.1347  0.1529 -0.0115
  539loPI   C3A 8617   8.284   5.191   9.225 -0.2012 -0.0651 -0.3371
  539loPI   C4A 8618   8.205   5.202   8.757  0.0655  0.1246 -0.1932
  539loPI   C5A 8619   8.016   5.454   8.424 -0.1585 -0.1062  0.0160
  539loPI   C6A 8620   7.598   5.485   8.302  0.0364  0.3133 -0.1497
  539loPI   C1B 8621   7.818   5.195   9.977  0.1422 -0.2385 -0.0703
  539loPI   C2B 8622   7.720   5.248   9.682  0.0581  0.0764  0.1909
  539loPI   C3B 8623   7.755   5.331   9.251 -0.3048 -0.0782 -0.1393
  539loPI   C4B 8624   7.757   5.369   8.799  0.0466 -0.1781 -0.1074
  540loPI    C1 8625   5.603  14.370  11.067  0.1565  0.1920  0.1055
  540loPI    C2 8626   5.869  14.181  10.835 -0.1999 -0.0307 -0.1336
  540loPI    C3 8627   5.666  13.978  11.114 -0.1228  0.1375  0.0479
  540loPI   PO4 8628   5.418  14.527  10.858 -0.0164 -0.0401  0.1849
  540loPI   GL1 8629   5.207  14.675  10.394 -0.1991 -0.0887 -0.2105
  540loPI   GL2 8630   5.318  14.971  10.244  0.4208  0.0425 -0.1043
  540loPI   C1A 8631   5.078  14.690   9.863  0.0995  0.3547 -0.1753
  540loPI   C2A 8632   5.151  14.739   9.411 -0.2421 -0.0173  0.3147
  540loPI   C3A 8633   4.961  14.741   8.910 -0.0724 -0.3112 -0.0073
  540loPI   C4A 8634   5.076  14.774   8.504  0.1235  0.0572 -0.2719
  540loPI   C5A 8635   4.961  14.813   8.077 -0.1253 -0.3012 -0.1699
  540loPI   C6A 8636   4.651  14.976   7.838  0.0323  0.1025 -0.0536
  540loPI   C1B 8637   5.507  15.050   9.776 -0.0620 -0.4912  0.0007
  540loPI   C2B 8638   5.527  15.109   9.317 -0.1733  0.0530  0.0998
  540loPI   C3B 8639   5.481  15.029   8.898  0.1347  0.1499 -0.2835
  540loPI   C4B 8640   5.523  15.045   8.494  0.0037 -0.1732  0.3415
  541loPI    C1 8641   2.612  10.794  10.703 -0.0068  0.0715 -0.1782
  541loPI    C2 8642   2.438  10.968  11.019  0.4085  0.0472  0.0709
  541loPI    C3 8643   2.320  10.604  10.900  0.0833  0.1591  0.0429
  541loPI   PO4 8644   2.578  10.870  10.548  0.0133 -0.1643 -0.0072
  541loPI   GL1 8645   2.531  10.900  10.063  0.0720  0.0731 -0.0336
  541loPI   GL2 8646   2.815  10.938   9.847 -0.0875 -0.1364  0.0286
  541loPI   C1A 8647   2.201  10.811   9.842 -0.2841 -0.1033  0.1366
  541loPI   C2A 8648   2.074  10.761   9.437  0.1616 -0.0576  0.0856
  541loPI   C3A 8649   1.851  10.564   9.051 -0.0182 -0.0020 -0.2337
  541loPI   C4A 8650   1.827  10.465   8.535 -0.2864  0.0668 -0.0008
  541loPI   C5A 8651   1.895  10.720   8.301  0.3313 -0.1538  0.0365
  541loPI   C6A 8652   1.901  10.941   7.952  0.1073 -0.2247 -0.4623
  541loPI   C1B 8653   2.656  10.901   9.466 -0.1646  0.3295 -0.0595
  541loPI   C2B 8654   2.817  11.006   9.121 -0.1323 -0.0523 -0.5206
  541loPI   C3B 8655   2.718  11.052   8.703  0.0056  0.1913 -0.1836
  541loPI   C4B 8656   2.881  11.051   8.326 -0.0341  0.1961  0.0879
  542loPI    C1 8657  13.466  15.899   9.343 -0.0538  0.3323 -0.0428
  542loPI    C2 8658  13.570  16.002   9.715  0.0065 -0.0612  0.0533
  542loPI    C3 8659  13.183  15.972   9.616 -0.0137  0.3092  0.0050
  542loPI   PO4 8660  13.812  15.902   9.265  0.2281  0.0073  0.0264
  542loPI   GL1 8661  13.929  15.740   8.844 -0.0092  0.0965 -0.0600
  542loPI   GL2 8662  13.745  15.897   8.741  0.1310 -0.1823  0.0614
  542loPI   C1A 8663  14.204  15.726   8.605  0.1648 -0.0461  0.1024
  542loPI   C2A 8664  14.079  15.798   8.258 -0.3446  0.4690 -0.3587
  542loPI   C3A 8665  14.036  15.733   7.835 -0.1055  0.1040  0.0732
  542loPI   C4A 8666  14.067  16.035   7.499 -0.0462  0.2705  0.1696
  542loPI   C5A 8667  14.199  16.330   7.318  0.2189 -0.0158 -0.1938
  542loPI   C6A 8668  14.364  16.647   7.590  0.0327 -0.0476 -0.0226
  542loPI   C1B 8669  13.658  16.026   8.274  0.2436 -0.2740 -0.0759
  542loPI   C2B 8670  13.595  16.030   7.839  0.0354  0.2600 -0.0964
  542loPI   C3B 8671  13.589  15.738   7.482 -0.2369 -0.1200  0.2794
  542loPI   C4B 8672  13.563  15.619   7.005  0.2497 -0.2029  0.2210
  543loPI    C1 8673   9.354  16.122  10.635  0.0361 -0.0159 -0.0658
  543loPI    C2 8674   9.666  16.230  10.860  0.0767 -0.0315 -0.1143
  543loPI    C3 8675   9.329  16.102  11.034  0.1067 -0.0409 -0.0627
  543loPI   PO4 8676   9.491  16.255  10.403 -0.0917  0.2052  0.1643
  543loPI   GL1 8677   9.279  16.506   9.966 -0.5552 -0.1168 -0.0402
  543loPI   GL2 8678   8.966  16.441   9.919 -0.0096 -0.0765  0.2294
  543loPI   C1A 8679   9.551  16.322   9.690  0.1277 -0.1840 -0.1235
  543loPI   C2A 8680   9.464  16.291   9.280  0.0154 -0.0207  0.0935
  543loPI   C3A 8681   9.338  16.319   8.820  0.1046 -0.3226  0.0127
  543loPI   C4A 8682   9.414  16.363   8.287  0.1674  0.1750 -0.0034
  543loPI   C5A 8683   9.533  16.381   7.862 -0.1732 -0.3386  0.0281
  543loPI   C6A 8684   9.360  16.586   7.534 -0.0227  0.0506 -0.0013
  543loPI   C1B 8685   9.029  16.538   9.513 -0.2678  0.0336 -0.0805
  543loPI   C2B 8686   8.937  16.423   9.164 -0.0622 -0.1725 -0.1067
  543loPI   C3B 8687   8.826  16.489   8.736  0.2333 -0.0936 -0.3425
  543loPI   C4B 8688   8.892  16.529   8.378 -0.0777  0.2400 -0.2305
  544loPI    C1 8689   4.186   1.188  10.886 -0.1553  0.0887  0.2139
  544loPI    C2 8690   4.301   1.542  10.739 -0.1368  0.0512  0.1380
  544loPI    C3 8691   4.007   1.524  11.009 -0.0649  0.1341  0.2224
  544loPI   PO4 8692   4.268   1.019  10.676  0.0037  0.1283 -0.0973
  544loPI   GL1 8693   4.515   1.019  10.423 -0.1656  0.0481  0.1398
  544loPI   GL2 8694   4.452   1.293  10.273 -0.1420  0.2858 -0.0055
  544loPI   C1A 8695   4.439   0.857   9.945 -0.0226  0.2077 -0.0731
  544loPI   C2A 8696   4.417   0.899   9.524 -0.0844 -0.2664  0.0918
  544loPI   C3A 8697   4.443   0.905   9.019  0.2838  0.2953 -0.0271
  544loPI   C4A 8698   4.379   1.029   8.623 -0.1527  0.1184  0.2279
  544loPI   C5A 8699   4.151   1.063   8.238 -0.1848  0.0303 -0.3287
  544loPI   C6A 8700   4.368   1.152   7.875 -0.1841 -0.0556 -0.0457
  544loPI   C1B 8701   4.429   1.391   9.835  0.0574  0.1225 -0.0655
  544loPI   C2B 8702   4.296   1.394   9.337 -0.1156  0.2587  0.1821
  544loPI   C3B 8703   4.227   1.452   8.973  0.2431 -0.1489 -0.1366
  544loPI   C4B 8704   4.305   1.534   8.480  0.1345 -0.2035  0.1754
  545loPI    C1 8705  17.583   7.142  10.847  0.0801 -0.0206 -0.1381
  545loPI    C2 8706  17.825   7.251  11.146  0.0370 -0.0097 -0.1070
  545loPI    C3 8707  17.502   7.027  11.222  0.0038  0.0270 -0.1399
  545loPI   PO4 8708  17.628   7.435  10.711  0.2182  0.0876  0.0011
  545loPI   GL1 8709  17.792   7.539  10.254  0.1053 -0.1549  0.0136
  545loPI   GL2 8710  17.758   7.187  10.207 -0.1016  0.1141 -0.3288
  545loPI   C1A 8711  18.042   7.708   9.852 -0.0863 -0.0079  0.1191
  545loPI   C2A 8712  18.144   7.562   9.465 -0.1369 -0.5692 -0.2115
  545loPI   C3A 8713  18.121   7.581   9.017  0.2152  0.0131  0.4151
  545loPI   C4A 8714  18.217   7.508   8.560 -0.1002  0.1033  0.1546
  545loPI   C5A 8715  18.573   7.733   8.410  0.1171  0.2844  0.0579
  545loPI   C6A 8716  18.500   7.857   8.112  0.1985 -0.0945  0.2492
  545loPI   C1B 8717  17.758   7.350   9.762  0.0437  0.2380  0.1305
  545loPI   C2B 8718  17.703   7.260   9.351  0.2816 -0.1459 -0.0916
  545loPI   C3B 8719  17.763   7.300   8.916 -0.0316  0.1178  0.0348
  545loPI   C4B 8720  17.748   7.222   8.431  0.0765  0.1425  0.4418
  546loPI    C1 8721  15.843  11.676   9.643 -0.2574 -0.1434 -0.1604
  546loPI    C2 8722  15.573  11.967   9.684 -0.0375  0.0773 -0.2555
  546loPI    C3 8723  15.820  11.879   9.986 -0.3075 -0.2229 -0.1164
  546loPI   PO4 8724  16.064  11.821   9.479  0.0090 -0.1336 -0.0726
  546loPI   GL1 8725  15.878  12.205   9.300  0.0429  0.0660  0.0861
  546loPI   GL2 8726  15.783  12.366   9.006  0.0568 -0.3170 -0.1292
  546loPI   C1A 8727  16.251  12.232   8.894  0.0475  0.3164  0.2560
  546loPI   C2A 8728  16.292  12.257   8.471 -0.0943  0.1054  0.1346
  546loPI   C3A 8729  16.465  12.048   8.164  0.0333  0.2169  0.0864
  546loPI   C4A 8730  16.586  11.766   7.696 -0.2240 -0.3042 -0.2573
  546loPI   C5A 8731  16.353  11.486   7.452  0.2137 -0.3662 -0.1483
  546loPI   C6A 8732  16.164  11.503   7.163 -0.0180  0.0273 -0.0396
  546loPI   C1B 8733  15.823  12.264   8.589  0.1720 -0.0383  0.1970
  546loPI   C2B 8734  15.904  12.305   8.169 -0.3769  0.0853  0.2595
  546loPI   C3B 8735  16.026  12.077   7.936  0.2554 -0.3184  0.1882
  546loPI   C4B 8736  16.189  11.970   7.458  0.2992  0.1268 -0.1108
  547loPI    C1 8737  12.026   8.481  10.990 -0.1601  0.1905  0.3168
  547loPI    C2 8738  11.867   8.127  11.088 -0.2063  0.1405  0.0691
  547loPI    C3 8739  12.058   8.344  11.364 -0.0636 -0.1368  0.1926
  547loPI   PO4 8740  12.020   8.429  10.726 -0.2062  0.0006  0.1196
  547loPI   GL1 8741  12.216   8.288  10.199 -0.0466 -0.2012  0.0926
  547loPI   GL2 8742  12.542   8.493  10.057  0.1724 -0.1612  0.2416
  547loPI   C1A 8743  12.096   8.071   9.766  0.3218 -0.1679  0.0374
  547loPI   C2A 8744  11.930   8.054   9.435 -0.0967  0.2735  0.1106
  547loPI   C3A 8745  12.108   8.021   8.904  0.0380 -0.2310 -0.2905
  547loPI   C4A 8746  12.027   8.068   8.433 -0.3034 -0.1270 -0.0167
  547loPI   C5A 8747  12.004   7.834   8.051  0.1706  0.2796 -0.0524
  547loPI   C6A 8748  11.898   7.925   7.688  0.2054  0.1058 -0.2999
  547loPI   C1B 8749  12.510   8.439   9.648  0.0566 -0.1401  0.2551
  547loPI   C2B 8750  12.505   8.367   9.225 -0.0721  0.1483 -0.1550
  547loPI   C3B 8751  12.482   8.276   8.831  0.0206 -0.1495  0.1540
  547loPI   C4B 8752  12.510   8.229   8.335  0.0968 -0.1535  0.1892
  548loPI    C1 8753  16.973  14.983   9.915 -0.1200 -0.2012 -0.1771
  548loPI    C2 8754  17.194  14.726  10.127  0.0288  0.0371 -0.0392
  548loPI    C3 8755  16.874  14.900  10.293  0.1057  0.1723 -0.0307
  548loPI   PO4 8756  16.960  14.810   9.636 -0.1848  0.0570 -0.3547
  548loPI   GL1 8757  16.929  14.842   9.269  0.1627  0.0240  0.1199
  548loPI   GL2 8758  16.645  14.720   9.260 -0.1627  0.2496 -0.1388
  548loPI   C1A 8759  17.066  14.729   8.917  0.0393  0.0970  0.1580
  548loPI   C2A 8760  17.003  14.791   8.504 -0.2842  0.0467 -0.0463
  548loPI   C3A 8761  16.777  14.883   8.127  0.1928  0.2290 -0.0900
  548loPI   C4A 8762  16.828  14.889   7.708  0.0398  0.1727  0.0632
  548loPI   C5A 8763  17.091  14.884   7.357 -0.1266 -0.2092  0.0205
  548loPI   C6A 8764  17.515  15.005   7.431 -0.2987  0.2129  0.2970
  548loPI   C1B 8765  16.572  14.611   8.818  0.0242  0.1875 -0.1462
  548loPI   C2B 8766  16.609  14.484   8.425  0.0085  0.1160  0.0417
  548loPI   C3B 8767  16.440  14.471   7.995  0.0413 -0.0553  0.2618
  548loPI   C4B 8768  16.639  14.361   7.692  0.0406  0.1619 -0.2434
  549loPI    C1 8769  11.262   1.806  10.514 -0.2224 -0.0508 -0.1461
  549loPI    C2 8770  11.002   1.667  10.785 -0.0596 -0.1032 -0.0152
  549loPI    C3 8771  11.310   1.895  10.901 -0.0354 -0.0574 -0.1667
  549loPI   PO4 8772  11.139   1.875  10.311 -0.0755 -0.2055  0.3291
  549loPI   GL1 8773  10.953   1.618  10.053  0.0507  0.1246  0.1645
  549loPI   GL2 8774  10.651   1.636   9.848  0.0980  0.1842  0.0477
  549loPI   C1A 8775  11.059   1.563   9.540  0.2575  0.0213  0.1058
  549loPI   C2A 8776  11.144   1.603   9.076  0.0915  0.1471  0.0206
  549loPI   C3A 8777  11.153   1.506   8.611  0.3195  0.0530 -0.0774
  549loPI   C4A 8778  11.045   1.384   8.182 -0.1773  0.2469  0.1417
  549loPI   C5A 8779  11.112   1.737   7.912 -0.0564 -0.0019  0.0280
  549loPI   C6A 8780  11.423   1.978   7.749  0.0277 -0.1626  0.1548
  549loPI   C1B 8781  10.590   1.783   9.419 -0.0322  0.1398 -0.1284
  549loPI   C2B 8782  10.592   1.662   9.067 -0.1242 -0.0146  0.0087
  549loPI   C3B 8783  10.719   1.810   8.699 -0.1591  0.1270 -0.1373
  549loPI   C4B 8784  10.649   1.784   8.192 -0.0087 -0.0717 -0.0398
  550loPI    C1 8785   6.864  15.836  11.032  0.2555  0.1726 -0.1246
  550loPI    C2 8786   7.134  16.061  11.223  0.1132  0.0549  0.2230
  550loPI    C3 8787   7.021  15.710  11.377  0.3375 -0.2660 -0.3154
  550loPI   PO4 8788   6.985  15.934  10.711 -0.0927 -0.1237 -0.1676
  550loPI   GL1 8789   7.126  15.871  10.382 -0.0827  0.2677 -0.0591
  550loPI   GL2 8790   7.338  15.621  10.120 -0.0704 -0.1292  0.4389
  550loPI   C1A 8791   7.256  16.098   9.982  0.3028 -0.2980 -0.2457
  550loPI   C2A 8792   7.129  16.214   9.608  0.3265 -0.0251  0.4485
  550loPI   C3A 8793   7.091  16.330   9.073  0.1570 -0.0153 -0.1103
  550loPI   C4A 8794   7.043  16.263   8.575  0.0998 -0.0021 -0.0467
  550loPI   C5A 8795   7.255  16.408   8.218 -0.3986  0.0615  0.2885
  550loPI   C6A 8796   7.434  16.123   7.952  0.0625 -0.0439 -0.0902
  550loPI   C1B 8797   7.289  15.654   9.634  0.1698  0.0772  0.0342
  550loPI   C2B 8798   7.280  15.707   9.234 -0.0689 -0.1717  0.1541
  550loPI   C3B 8799   7.157  15.861   8.760 -0.0019  0.2489 -0.1466
  550loPI   C4B 8800   6.949  15.798   8.302 -0.0349 -0.0075 -0.3665
  551loPI    C1 8801   5.995  15.527  10.632  0.0443 -0.0282 -0.0813
  551loPI    C2 8802   5.952  15.425  11.016  0.0347 -0.3179 -0.1573
  551loPI    C3 8803   5.629  15.476  10.785  0.0378 -0.0629 -0.1083
  551loPI   PO4 8804   6.176  15.671  10.626  0.0655  0.0530  0.0896
  551loPI   GL1 8805   6.270  15.935  10.310 -0.0701 -0.1328 -0.2698
  551loPI   GL2 8806   6.618  16.124  10.291  0.1390  0.1936  0.0466
  551loPI   C1A 8807   6.312  16.059   9.838 -0.1800 -0.0685 -0.0332
  551loPI   C2A 8808   6.268  16.175   9.518 -0.1837 -0.0104  0.1919
  551loPI   C3A 8809   6.293  16.093   9.185  0.2194  0.0307 -0.2390
  551loPI   C4A 8810   6.247  16.185   8.754 -0.3066 -0.1856 -0.0184
  551loPI   C5A 8811   6.119  16.228   8.261  0.1059 -0.0611 -0.1272
  551loPI   C6A 8812   6.391  16.506   8.013 -0.0504 -0.1203 -0.0528
  551loPI   C1B 8813   6.783  15.903   9.968 -0.0026  0.1281  0.0918
  551loPI   C2B 8814   6.740  15.885   9.535 -0.0190  0.0267  0.2593
  551loPI   C3B 8815   6.785  15.960   9.157 -0.2656 -0.1938  0.0759
  551loPI   C4B 8816   6.672  15.936   8.751  0.2348  0.1169  0.2055
  552loPI    C1 8817   7.650   8.941  10.827 -0.2027 -0.1977  0.0942
  552loPI    C2 8818   7.687   8.614  11.055  0.0065 -0.0709  0.2466
  552loPI    C3 8819   7.676   8.976  11.225 -0.3639 -0.0038  0.0893
  552loPI   PO4 8820   7.638   8.798  10.597  0.0612 -0.1744 -0.2086
  552loPI   GL1 8821   7.916   8.765  10.301  0.1354  0.2585  0.0084
  552loPI   GL2 8822   8.043   9.099  10.232  0.0528  0.1589 -0.0115
  552loPI   C1A 8823   7.704   8.751   9.868 -0.0925  0.0769 -0.0760
  552loPI   C2A 8824   7.716   8.717   9.408  0.0435  0.1908  0.3911
  552loPI   C3A 8825   7.699   8.735   8.982 -0.0862  0.1192 -0.0581
  552loPI   C4A 8826   7.712   8.739   8.561 -0.1039  0.1105 -0.3147
  552loPI   C5A 8827   7.918   8.577   8.215 -0.1381 -0.2385  0.0372
  552loPI   C6A 8828   8.023   8.723   7.726 -0.2163  0.2021 -0.0274
  552loPI   C1B 8829   8.065   9.023   9.737 -0.0471 -0.2592 -0.1054
  552loPI   C2B 8830   8.075   9.024   9.285 -0.1316  0.0231 -0.3830
  552loPI   C3B 8831   8.225   9.020   8.855  0.1721  0.4868  0.7223
  552loPI   C4B 8832   8.265   8.893   8.429  0.1738 -0.0992  0.0940
  553loPI    C1 8833  13.997   8.108  10.697 -0.0870  0.0658  0.1610
  553loPI    C2 8834  14.285   8.383  10.654 -0.0068 -0.0211  0.1392
  553loPI    C3 8835  14.380   7.996  10.679 -0.1379 -0.0719 -0.1115
  553loPI   PO4 8836  13.834   8.201  10.481 -0.0409  0.2910  0.0763
  553loPI   GL1 8837  13.792   7.983  10.016 -0.1134  0.0812  0.1234
  553loPI   GL2 8838  13.933   8.223   9.805  0.1522 -0.0722 -0.0585
  553loPI   C1A 8839  13.999   7.728   9.664  0.0772  0.0916  0.1598
  553loPI   C2A 8840  14.012   7.688   9.130 -0.1793  0.2105  0.0479
  553loPI   C3A 8841  13.909   7.706   8.679  0.0378 -0.2353  0.1236
  553loPI   C4A 8842  13.803   7.673   8.203 -0.1573  0.2540 -0.2806
  553loPI   C5A 8843  14.002   7.771   7.839  0.1925  0.1161 -0.1169
  553loPI   C6A 8844  14.182   7.929   7.474 -0.1530  0.1760 -0.1373
  553loPI   C1B 8845  13.900   8.360   9.429 -0.0903  0.1097  0.2099
  553loPI   C2B 8846  13.863   8.326   8.998 -0.0789 -0.2135  0.1000
  553loPI   C3B 8847  13.759   8.296   8.606  0.0020  0.2483  0.0174
  553loPI   C4B 8848  13.773   8.197   8.173  0.2856  0.1182 -0.2905
  554loPI    C1 8849   3.118  10.631  10.865 -0.0711  0.0804 -0.0730
  554loPI    C2 8850   3.035  11.021  10.832 -0.2729  0.0409 -0.0477
  554loPI    C3 8851   2.889  10.812  11.139  0.2528  0.0535  0.2222
  554loPI   PO4 8852   2.995  10.484  10.612 -0.0835 -0.0106 -0.3195
  554loPI   GL1 8853   2.895  10.551  10.201  0.1249 -0.0772 -0.5907
  554loPI   GL2 8854   2.896  10.180  10.150 -0.0788  0.1815 -0.1443
  554loPI   C1A 8855   2.552  10.474   9.894 -0.0491 -0.0862  0.0641
  554loPI   C2A 8856   2.483  10.430   9.483 -0.1371 -0.0231 -0.2136
  554loPI   C3A 8857   2.609  10.484   9.118 -0.0591 -0.2807 -0.5161
  554loPI   C4A 8858   2.784  10.490   8.729  0.1374 -0.1248 -0.1787
  554loPI   C5A 8859   2.939  10.527   8.465  0.0725 -0.5047 -0.2531
  554loPI   C6A 8860   2.873  10.219   8.149 -0.0300  0.2352 -0.1328
  554loPI   C1B 8861   2.835  10.028   9.788  0.2117  0.0372  0.2429
  554loPI   C2B 8862   2.919  10.139   9.351 -0.0048  0.0638 -0.0924
  554loPI   C3B 8863   2.920  10.070   8.957  0.0947  0.0234 -0.2662
  554loPI   C4B 8864   2.980  10.041   8.585 -0.1480 -0.0276  0.2210
  555loPI    C1 8865   3.987   8.895  10.843  0.0050 -0.1967  0.2760
  555loPI    C2 8866   4.251   8.992  11.128  0.0755  0.1778  0.0905
  555loPI    C3 8867   3.890   9.164  11.124 -0.0112 -0.0018  0.0861
  555loPI   PO4 8868   4.165   8.856  10.658 -0.0257 -0.1638 -0.0849
  555loPI   GL1 8869   4.252   8.721  10.238 -0.0403  0.1247 -0.0582
  555loPI   GL2 8870   4.233   8.428  10.271 -0.1119  0.1240  0.1026
  555loPI   C1A 8871   4.130   8.636   9.755  0.0199  0.0700 -0.2271
  555loPI   C2A 8872   4.036   8.687   9.386  0.3838 -0.1249  0.1320
  555loPI   C3A 8873   4.098   8.693   8.963  0.1843  0.2633 -0.1063
  555loPI   C4A 8874   4.147   8.622   8.516 -0.0092 -0.2401  0.0588
  555loPI   C5A 8875   3.984   8.697   8.063  0.2841 -0.0947 -0.0271
  555loPI   C6A 8876   3.664   8.745   7.640 -0.0338 -0.4145  0.2170
  555loPI   C1B 8877   4.184   8.184  10.040 -0.0229  0.1865 -0.0803
  555loPI   C2B 8878   4.262   8.154   9.614 -0.1521 -0.0383  0.4396
  555loPI   C3B 8879   4.197   8.031   9.164  0.1837 -0.0806  0.0364
  555loPI   C4B 8880   4.267   8.160   8.731  0.0638  0.0313  0.3239
  556loPI    C1 8881   3.421   0.304  11.174  0.1925 -0.0654 -0.2180
  556loPI    C2 8882   3.077   0.505  11.210  0.0868 -0.2114 -0.3973
  556loPI    C3 8883   3.115   0.141  11.372  0.2954 -0.0310 -0.0283
  556loPI   PO4 8884   3.425   0.307  10.901  0.0877  0.0177  0.2586
  556loPI   GL1 8885   3.277   0.079  10.458 -0.0717 -0.1701  0.1152
  556loPI   GL2 8886   3.332   0.458  10.380  0.1209 -0.1299 -0.0589
  556loPI   C1A 8887   3.596   0.143  10.012  0.2406  0.1316 -0.0243
  556loPI   C2A 8888   3.512   0.240   9.689  0.1566  0.0832  0.0512
  556loPI   C3A 8889   3.561   0.301   9.315  0.0368  0.3219  0.3416
  556loPI   C4A 8890   3.700   0.269   8.939  0.0885 -0.1097  0.0375
  556loPI   C5A 8891   3.747   0.212   8.465 -0.0397 -0.2600  0.2697
  556loPI   C6A 8892   3.598  -0.193   8.187 -0.3293 -0.0998  0.0700
  556loPI   C1B 8893   3.065   0.498  10.074 -0.0683  0.1060 -0.4256
  556loPI   C2B 8894   3.031   0.437   9.668  0.0966 -0.0191  0.4757
  556loPI   C3B 8895   3.083   0.431   9.262  0.2007 -0.0192  0.1002
  556loPI   C4B 8896   3.144   0.403   8.822  0.1498  0.0032 -0.0092
  557loPI    C1 8897   6.741  16.375  11.105 -0.0442  0.1731 -0.0007
  557loPI    C2 8898   6.890  16.440  11.470  0.0120 -0.1316  0.0336
  557loPI    C3 8899   6.530  16.583  11.372 -0.1009 -0.2381  0.2844
  557loPI   PO4 8900   6.916  16.438  10.916 -0.0358  0.2095  0.0806
  557loPI   GL1 8901   7.004  16.432  10.419  0.1655  0.3702 -0.2892
  557loPI   GL2 8902   6.809  16.596  10.280  0.0036 -0.0204 -0.1878
  557loPI   C1A 8903   7.143  16.725   9.978  0.0116  0.0147  0.0341
  557loPI   C2A 8904   7.153  16.666   9.584 -0.0504 -0.0947 -0.0213
  557loPI   C3A 8905   7.128  16.774   9.232  0.2427 -0.2226  0.2345
  557loPI   C4A 8906   6.969  16.838   8.839 -0.2892 -0.1077  0.0067
  557loPI   C5A 8907   7.063  16.799   8.473  0.0194 -0.2333 -0.0998
  557loPI   C6A 8908   6.788  16.678   8.210  0.0592 -0.1045 -0.0061
  557loPI   C1B 8909   6.708  16.412   9.833  0.3564 -0.1575  0.0749
  557loPI   C2B 8910   6.696  16.393   9.369  0.0337 -0.1978 -0.1547
  557loPI   C3B 8911   6.622  16.435   8.903 -0.4028 -0.0893 -0.1765
  557loPI   C4B 8912   6.599  16.292   8.422  0.3045  0.1129  0.0431
  558loPI    C1 8913  13.837   2.994  10.342  0.0075 -0.1146 -0.1418
  558loPI    C2 8914  13.720   3.142  10.695 -0.3590  0.1084 -0.3497
  558loPI    C3 8915  13.631   2.765  10.597  0.1317 -0.1009 -0.0282
  558loPI   PO4 8916  13.740   3.145  10.152  0.2169  0.0347  0.2781
  558loPI   GL1 8917  13.742   3.279   9.774 -0.1092 -0.2069  0.1400
  558loPI   GL2 8918  13.533   3.053   9.720 -0.0355 -0.1078  0.0934
  558loPI   C1A 8919  13.767   3.333   9.323  0.1000 -0.2272  0.0160
  558loPI   C2A 8920  13.682   3.465   8.906  0.0961  0.1122 -0.0565
  558loPI   C3A 8921  13.637   3.507   8.488 -0.3108  0.0097 -0.0351
  558loPI   C4A 8922  13.541   3.401   8.054  0.2074 -0.1730  0.1033
  558loPI   C5A 8923  13.897   3.377   7.765 -0.0879  0.1486 -0.1067
  558loPI   C6A 8924  14.101   3.797   7.502  0.0999  0.0408 -0.0609
  558loPI   C1B 8925  13.761   2.868   9.420  0.3346  0.1424 -0.1128
  558loPI   C2B 8926  13.758   2.900   8.947  0.2304  0.0088  0.0480
  558loPI   C3B 8927  13.706   3.043   8.588 -0.0575 -0.1820 -0.2523
  558loPI   C4B 8928  13.927   3.103   8.233  0.1322 -0.2573  0.2268
  559loPI    C1 8929  16.094  17.606   9.796  0.2700  0.0015  0.5733
  559loPI    C2 8930  16.116  17.234   9.650  0.1563  0.1297  0.2173
  559loPI    C3 8931  15.969  17.297  10.017 -0.0737 -0.1533  0.1771
  559loPI   PO4 8932  16.269  17.679   9.563 -0.0267 -0.1139 -0.0007
  559loPI   GL1 8933  16.217  17.518   9.193 -0.1331 -0.1302  0.1177
  559loPI   GL2 8934  15.852  17.610   9.322 -0.1173  0.1190  0.0316
  559loPI   C1A 8935  16.297  17.458   8.702 -0.1324  0.1277  0.0883
  559loPI   C2A 8936  16.398  17.462   8.350 -0.1739  0.1346 -0.0666
  559loPI   C3A 8937  16.273  17.400   7.851  0.2384 -0.0092  0.1555
  559loPI   C4A 8938  16.366  17.156   7.435  0.2143 -0.0558  0.0796
  559loPI   C5A 8939  16.436  16.767   7.193 -0.0352 -0.1407  0.0190
  559loPI   C6A 8940  16.381  16.391   7.033 -0.2443  0.1787 -0.0592
  559loPI   C1B 8941  15.760  17.486   8.959 -0.0062 -0.0707 -0.2399
  559loPI   C2B 8942  15.831  17.635   8.591 -0.1247 -0.0835  0.1997
  559loPI   C3B 8943  15.831  17.624   8.161  0.0928 -0.1065  0.1014
  559loPI   C4B 8944  15.833  17.644   7.677  0.0504  0.0759  0.1563
  560loPI    C1 8945   5.640  15.851  11.064  0.2734  0.1022  0.0467
  560loPI    C2 8946   5.719  16.193  11.256 -0.1530  0.1411  0.1637
  560loPI    C3 8947   5.778  15.842  11.439 -0.1291  0.1649  0.2018
  560loPI   PO4 8948   5.424  15.934  10.901 -0.2543 -0.2398 -0.0270
  560loPI   GL1 8949   5.257  15.940  10.394 -0.2293  0.2854 -0.0679
  560loPI   GL2 8950   5.587  15.858  10.398  0.0086 -0.1852 -0.1400
  560loPI   C1A 8951   5.264  16.036  10.041  0.0511 -0.0337  0.1620
  560loPI   C2A 8952   5.260  16.065   9.680  0.4357  0.2180  0.0051
  560loPI   C3A 8953   5.384  16.028   9.296 -0.0158  0.0435 -0.3220
  560loPI   C4A 8954   5.449  16.148   8.880 -0.2973 -0.0226  0.0541
  560loPI   C5A 8955   5.486  16.134   8.458  0.3980  0.2333 -0.4111
  560loPI   C6A 8956   5.016  16.430   8.296 -0.2862  0.2344 -0.2154
  560loPI   C1B 8957   5.772  15.839   9.926 -0.2014 -0.1584 -0.1291
  560loPI   C2B 8958   5.893  15.903   9.489  0.0924 -0.3419 -0.1361
  560loPI   C3B 8959   5.848  15.823   8.984  0.1548  0.0069  0.0974
  560loPI   C4B 8960   5.930  15.889   8.601 -0.0893  0.2211  0.0332
  561loPI    C1 8961   7.096   7.213  11.017 -0.0997 -0.0073 -0.1104
  561loPI    C2 8962   6.846   7.514  10.933  0.0029  0.0912 -0.0647
  561loPI    C3 8963   7.093   7.540  11.247  0.0916  0.0070 -0.1270
  561loPI   PO4 8964   7.269   7.048  10.783 -0.3083 -0.1281 -0.3780
  561loPI   GL1 8965   7.278   7.154  10.347  0.0277  0.1116  0.0887
  561loPI   GL2 8966   7.540   7.280  10.252 -0.0948 -0.0176 -0.0244
  561loPI   C1A 8967   7.058   7.044  10.067  0.0847  0.4864 -0.3014
  561loPI   C2A 8968   7.052   7.007   9.615 -0.1508 -0.0607  0.0637
  561loPI   C3A 8969   7.079   7.071   9.208 -0.0363 -0.1435 -0.0586
  561loPI   C4A 8970   7.137   7.062   8.724  0.1356 -0.3064 -0.2647
  561loPI   C5A 8971   7.095   7.119   8.322 -0.3300  0.0871 -0.5314
  561loPI   C6A 8972   7.343   7.292   8.009  0.0403  0.0598 -0.3319
  561loPI   C1B 8973   7.587   7.322   9.841  0.0574  0.2138 -0.2340
  561loPI   C2B 8974   7.447   7.368   9.435 -0.1695 -0.0949 -0.1815
  561loPI   C3B 8975   7.484   7.323   8.977 -0.1274 -0.0388 -0.0268
  561loPI   C4B 8976   7.583   7.378   8.485  0.0109  0.0804  0.1430
  562loPI    C1 8977   8.234  10.061  10.911 -0.1809 -0.1212 -0.0781
  562loPI    C2 8978   7.934  10.284  11.053 -0.0207  0.0421  0.0080
  562loPI    C3 8979   8.225  10.161  11.298  0.0361 -0.0311 -0.0952
  562loPI   PO4 8980   8.168   9.812  10.769 -0.0213 -0.0237  0.1080
  562loPI   GL1 8981   8.003   9.831  10.439  0.1233  0.2096  0.0955
  562loPI   GL2 8982   7.898  10.064  10.174  0.2261  0.0075  0.3209
  562loPI   C1A 8983   7.989   9.538  10.066  0.0285  0.2661 -0.0592
  562loPI   C2A 8984   8.003   9.558   9.679 -0.0470 -0.1589  0.0834
  562loPI   C3A 8985   8.028   9.521   9.242  0.0559  0.3285 -0.0444
  562loPI   C4A 8986   8.078   9.553   8.846  0.1889  0.1580  0.1335
  562loPI   C5A 8987   8.162   9.419   8.435  0.1255  0.2413  0.0288
  562loPI   C6A 8988   7.825   9.548   8.158  0.1866  0.2935  0.2380
  562loPI   C1B 8989   7.865  10.068   9.854  0.1294 -0.2311 -0.0995
  562loPI   C2B 8990   7.963  10.045   9.349 -0.5406 -0.1313 -0.0357
  562loPI   C3B 8991   8.000  10.011   8.904 -0.0770 -0.0255  0.1039
  562loPI   C4B 8992   7.978   9.958   8.498 -0.1250 -0.2015 -0.1481
  563loPI    C1 8993  14.786  17.988   9.632  0.4354  0.1641 -0.0188
  563loPI    C2 8994  14.902  17.831   9.982  0.0105 -0.1685 -0.0193
  563loPI    C3 8995  14.643  18.136   9.975  0.1325 -0.0644 -0.0427
  563loPI   PO4 8996  14.998  18.101   9.498  0.0573 -0.3290 -0.0135
  563loPI   GL1 8997  15.038  18.328   9.136 -0.2551  0.1745  0.1308
  563loPI   GL2 8998  15.205  18.600   9.381 -0.1273 -0.1322  0.2042
  563loPI   C1A 8999  15.137  18.340   8.675 -0.0467  0.2328 -0.0843
  563loPI   C2A 9000  15.322  18.291   8.244  0.1797 -0.3686 -0.0960
  563loPI   C3A 9001  15.321  18.475   7.899  0.1320 -0.0422  0.0618
  563loPI   C4A 9002  15.417  18.443   7.505  0.1505  0.0683  0.1719
  563loPI   C5A 9003  15.655  18.097   7.449 -0.2707  0.0443 -0.0280
  563loPI   C6A 9004  16.069  17.948   7.305  0.0011  0.1603 -0.3170
  563loPI   C1B 9005  15.043  18.821   8.970  0.0327  0.1536 -0.2692
  563loPI   C2B 9006  15.111  18.941   8.558  0.0257  0.1303  0.2307
  563loPI   C3B 9007  15.171  18.983   8.122 -0.0908 -0.0143  0.1290
  563loPI   C4B 9008  15.086  18.812   7.689  0.0210 -0.0428  0.0841
  564loPI    C1 9009   8.614  15.609  10.918  0.1984 -0.0008 -0.0764
  564loPI    C2 9010   8.645  15.961  11.106 -0.0872 -0.1098  0.1840
  564loPI    C3 9011   8.316  15.738  11.151  0.2891 -0.6384  0.4222
  564loPI   PO4 9012   8.569  15.644  10.641 -0.1513  0.3076 -0.3179
  564loPI   GL1 9013   8.366  15.740  10.258 -0.0497 -0.0966  0.2247
  564loPI   GL2 9014   8.442  15.438  10.189 -0.0194  0.2284  0.2432
  564loPI   C1A 9015   8.203  15.830   9.889  0.0816 -0.1337 -0.1482
  564loPI   C2A 9016   8.158  15.882   9.428 -0.2626 -0.1098 -0.3635
  564loPI   C3A 9017   8.075  15.914   8.989  0.2666 -0.3902 -0.3223
  564loPI   C4A 9018   7.991  15.943   8.778  0.1477 -0.0524  0.1576
  564loPI   C5A 9019   7.921  15.990   8.350 -0.1154 -0.0021 -0.0628
  564loPI   C6A 9020   7.977  15.947   7.945  0.2428  0.2065  0.0866
  564loPI   C1B 9021   8.355  15.352   9.788  0.0296 -0.1182  0.1127
  564loPI   C2B 9022   8.216  15.422   9.322 -0.1383 -0.0456 -0.2912
  564loPI   C3B 9023   8.185  15.411   8.870  0.1284  0.0046  0.0006
  564loPI   C4B 9024   8.185  15.548   8.378 -0.0280  0.1840 -0.0813
  565loPI    C1 9025   3.900  17.583  10.696 -0.0805  0.0046 -0.0117
  565loPI    C2 9026   3.919  17.499  11.086 -0.0397 -0.2083 -0.0580
  565loPI    C3 9027   3.719  17.822  10.960 -0.0102 -0.1100  0.1417
  565loPI   PO4 9028   4.112  17.429  10.629  0.2291 -0.0418  0.0423
  565loPI   GL1 9029   4.272  17.302  10.358 -0.1507 -0.2826  0.0364
  565loPI   GL2 9030   4.551  17.173  10.311  0.0577 -0.0234 -0.0721
  565loPI   C1A 9031   4.133  17.395  10.024  0.0268 -0.0014  0.1259
  565loPI   C2A 9032   4.180  17.340   9.641  0.1216  0.1551 -0.3023
  565loPI   C3A 9033   4.182  17.498   9.262  0.3965 -0.0696 -0.1254
  565loPI   C4A 9034   4.366  17.628   8.894  0.3423 -0.2888  0.0407
  565loPI   C5A 9035   4.499  17.770   8.479  0.0334 -0.0645  0.0057
  565loPI   C6A 9036   4.418  17.799   8.039  0.0451  0.1516  0.0191
  565loPI   C1B 9037   4.604  17.129   9.962  0.1086 -0.2094  0.0015
  565loPI   C2B 9038   4.656  17.287   9.557  0.2669 -0.0231  0.1174
  565loPI   C3B 9039   4.752  17.282   9.151 -0.1501 -0.0877  0.0109
  565loPI   C4B 9040   4.865  17.410   8.749 -0.4542  0.0689 -0.4180
  566loPI    C1 9041  16.269  10.568  10.119  0.5078  0.1869  0.2450
  566loPI    C2 9042  16.200  10.220  10.303  0.0048  0.2099  0.1140
  566loPI    C3 9043  16.053  10.559  10.456 -0.1102  0.2738 -0.1338
  566loPI   PO4 9044  16.210  10.536   9.872  0.1611 -0.1622  0.1514
  566loPI   GL1 9045  16.418  10.702   9.612  0.1750  0.0011  0.1096
  566loPI   GL2 9046  16.697  10.514   9.766  0.0844  0.1494 -0.0821
  566loPI   C1A 9047  16.595  10.969   9.226  0.0465 -0.0974 -0.0100
  566loPI   C2A 9048  16.701  11.025   8.815 -0.0518 -0.0221 -0.0936
  566loPI   C3A 9049  16.753  10.938   8.439 -0.1057 -0.1805  0.2745
  566loPI   C4A 9050  16.579  10.845   8.134 -0.2054  0.0351  0.1607
  566loPI   C5A 9051  16.459  10.811   7.749 -0.1408 -0.3052 -0.0244
  566loPI   C6A 9052  16.462  10.327   7.569 -0.3561  0.1235  0.1796
  566loPI   C1B 9053  16.780  10.470   9.214 -0.2331  0.2766 -0.0218
  566loPI   C2B 9054  16.738  10.530   8.767  0.0065  0.0189  0.0476
  566loPI   C3B 9055  16.906  10.496   8.291  0.0004  0.2288  0.0868
  566loPI   C4B 9056  16.920  10.406   7.831  0.0729 -0.0038  0.0408
  567loPI    C1 9057  13.820  10.838  10.017 -0.2092 -0.0910 -0.1631
  567loPI    C2 9058  13.958  10.478  10.122 -0.1850 -0.0961 -0.2122
  567loPI    C3 9059  14.057  10.800  10.336 -0.3828 -0.1479 -0.0391
  567loPI   PO4 9060  13.918  10.829   9.807  0.2119  0.2750  0.2014
  567loPI   GL1 9061  14.074  10.881   9.401  0.0489 -0.1953 -0.1443
  567loPI   GL2 9062  14.249  10.695   9.297 -0.0424 -0.0945 -0.2500
  567loPI   C1A 9063  13.736  10.813   9.146 -0.5242 -0.0497  0.2191
  567loPI   C2A 9064  13.780  10.724   8.744 -0.0561 -0.0105 -0.0905
  567loPI   C3A 9065  13.878  10.562   8.388  0.0618  0.1398  0.4012
  567loPI   C4A 9066  13.912  10.511   8.008 -0.2186  0.0154  0.0912
  567loPI   C5A 9067  13.744  10.421   7.624 -0.3050 -0.2577  0.2224
  567loPI   C6A 9068  13.695  10.338   7.257 -0.1025  0.1373  0.1374
  567loPI   C1B 9069  14.403  10.497   9.006 -0.1072 -0.1846  0.0488
  567loPI   C2B 9070  14.313  10.444   8.556 -0.2075 -0.0761  0.3383
  567loPI   C3B 9071  14.462  10.421   8.166  0.2912  0.0535  0.1840
  567loPI   C4B 9072  14.823  10.392   7.833 -0.1318 -0.3269  0.0495
  568loPI    C1 9073  12.921   7.233  10.583  0.0137  0.2006 -0.2657
  568loPI    C2 9074  13.314   7.275  10.525  0.0391  0.0907 -0.1774
  568loPI    C3 9075  13.179   7.112  10.864 -0.0804  0.0737 -0.2327
  568loPI   PO4 9076  12.818   7.021  10.351 -0.1180  0.0730  0.0441
  568loPI   GL1 9077  13.115   6.834  10.039  0.2707 -0.1530  0.1960
  568loPI   GL2 9078  13.394   6.964  10.101 -0.0395 -0.1979 -0.1755
  568loPI   C1A 9079  13.250   6.667   9.648  0.1164 -0.0179  0.0745
  568loPI   C2A 9080  13.209   6.590   9.218  0.1492  0.2748 -0.1143
  568loPI   C3A 9081  13.113   6.591   8.720 -0.0153  0.1921  0.0653
  568loPI   C4A 9082  13.155   6.585   8.257  0.1105  0.3131  0.2400
  568loPI   C5A 9083  13.074   6.423   7.807  0.0892 -0.0495 -0.0250
  568loPI   C6A 9084  12.779   6.185   7.561  0.1963  0.0415  0.2376
  568loPI   C1B 9085  13.181   7.241   9.717  0.0788 -0.0258  0.0652
  568loPI   C2B 9086  13.135   7.137   9.294 -0.1821 -0.0765 -0.0568
  568loPI   C3B 9087  13.086   7.154   8.782 -0.0112  0.1065 -0.0446
  568loPI   C4B 9088  13.167   7.054   8.436 -0.0375 -0.0981 -0.2424
  569loPI    C1 9089   0.129   9.895  10.657  0.0365 -0.0503 -0.0720
  569loPI    C2 9090   0.471   9.690  10.694  0.1079  0.0055 -0.3888
  569loPI    C3 9091   0.140   9.504  10.569  0.0401 -0.0308 -0.1596
  569loPI   PO4 9092   0.156  10.094  10.495  0.2522  0.6682 -0.0130
  569loPI   GL1 9093   0.262  10.086  10.096  0.2602  0.1912  0.1341
  569loPI   GL2 9094   0.361   9.737  10.198 -0.1670 -0.0036 -0.1246
  569loPI   C1A 9095   0.328   9.823   9.704  0.2129 -0.2454 -0.0765
  569loPI   C2A 9096   0.127   9.813   9.357 -0.3213  0.2152  0.0959
  569loPI   C3A 9097   0.180   9.700   8.961  0.0939  0.2119 -0.1042
  569loPI   C4A 9098   0.275   9.650   8.538 -0.0863 -0.4767  0.1631
  569loPI   C5A 9099   0.364   9.582   8.029 -0.0639  0.4486 -0.0843
  569loPI   C6A 9100   0.245   9.396   7.574 -0.0360  0.0492  0.3840
  569loPI   C1B 9101   0.360   9.395   9.939  0.1442  0.0306 -0.0852
  569loPI   C2B 9102   0.373   9.316   9.596 -0.2456 -0.3123 -0.1036
  569loPI   C3B 9103   0.210   9.232   9.226  0.2569 -0.0081 -0.0445
  569loPI   C4B 9104   0.363   9.200   8.802  0.1623  0.1898 -0.0666
  570loPI    C1 9105  16.668   8.029  10.241 -0.1777 -0.0866 -0.0085
  570loPI    C2 9106  16.438   7.729  10.371 -0.0496 -0.3547 -0.3821
  570loPI    C3 9107  16.836   7.686  10.362 -0.0016 -0.0245 -0.0727
  570loPI   PO4 9108  16.593   8.137  10.043  0.2464  0.0586 -0.2784
  570loPI   GL1 9109  16.720   8.170   9.611 -0.0174 -0.3018  0.1321
  570loPI   GL2 9110  16.994   8.243   9.684 -0.1573 -0.0452  0.1697
  570loPI   C1A 9111  16.610   8.132   9.250  0.1282 -0.0378 -0.2546
  570loPI   C2A 9112  16.663   8.197   8.856  0.0634  0.0116  0.3121
  570loPI   C3A 9113  16.697   8.081   8.394  0.2929  0.0175  0.0251
  570loPI   C4A 9114  16.652   8.152   8.013 -0.2856  0.0008 -0.1106
  570loPI   C5A 9115  16.931   8.111   7.636  0.0855 -0.0813 -0.1130
  570loPI   C6A 9116  17.367   8.148   7.601  0.3489 -0.0656  0.0951
  570loPI   C1B 9117  17.025   8.389   9.186 -0.2737 -0.1178 -0.1274
  570loPI   C2B 9118  17.087   8.508   8.828  0.2656  0.2824 -0.0020
  570loPI   C3B 9119  17.132   8.397   8.381  0.3617  0.2422 -0.3355
  570loPI   C4B 9120  17.167   8.474   7.923 -0.1403 -0.0034  0.0533
  571loPI    C1 9121  11.969   2.550  10.493  0.2336  0.0736  0.0188
  571loPI    C2 9122  12.110   2.314  10.783  0.0053  0.0855  0.1416
  571loPI    C3 9123  11.949   2.668  10.874  0.0355  0.1392 -0.0108
  571loPI   PO4 9124  12.013   2.454  10.283  0.0987 -0.1771  0.0253
  571loPI   GL1 9125  11.920   2.422   9.875 -0.1498  0.0957  0.0255
  571loPI   GL2 9126  11.844   2.680   9.752 -0.2831  0.1813 -0.1604
  571loPI   C1A 9127  11.928   2.309   9.344 -0.0471 -0.1596 -0.0117
  571loPI   C2A 9128  11.945   2.235   8.862  0.1310  0.5606 -0.0412
  571loPI   C3A 9129  11.907   2.175   8.377  0.2730 -0.3122 -0.1683
  571loPI   C4A 9130  11.857   2.335   7.869  0.0428  0.3245 -0.4016
  571loPI   C5A 9131  11.852   2.202   7.485  0.0755  0.1389 -0.2899
  571loPI   C6A 9132  11.734   1.843   7.254 -0.1080 -0.0342 -0.0439
  571loPI   C1B 9133  11.730   2.777   9.396  0.3570  0.0477  0.2295
  571loPI   C2B 9134  11.865   2.692   9.040  0.0316 -0.1221  0.0848
  571loPI   C3B 9135  11.864   2.722   8.644  0.1385  0.2880  0.4289
  571loPI   C4B 9136  11.706   2.645   8.207  0.1195  0.0589 -0.2057
  572loPI    C1 9137   2.585   7.550  10.904  0.1444 -0.2296 -0.1303
  572loPI    C2 9138   2.744   7.899  11.019  0.0074 -0.0996 -0.3308
  572loPI    C3 9139   2.638   7.627  11.293 -0.3785  0.2330 -0.1391
  572loPI   PO4 9140   2.662   7.619  10.592 -0.1008 -0.2641 -0.1730
  572loPI   GL1 9141   2.890   7.561  10.147  0.3101 -0.0154 -0.0290
  572loPI   GL2 9142   2.696   7.359  10.068  0.0771 -0.2572  0.2099
  572loPI   C1A 9143   2.833   7.849   9.733  0.0328  0.1526  0.2357
  572loPI   C2A 9144   2.849   7.792   9.204 -0.3119  0.0504 -0.2144
  572loPI   C3A 9145   2.919   7.834   8.770  0.0306  0.1147 -0.0314
  572loPI   C4A 9146   2.994   7.809   8.371 -0.3171  0.0451  0.1174
  572loPI   C5A 9147   3.147   7.478   8.208 -0.2380 -0.1154 -0.0387
  572loPI   C6A 9148   3.393   7.153   8.118 -0.1625 -0.0155 -0.2020
  572loPI   C1B 9149   2.804   7.262   9.673 -0.3931 -0.1243 -0.1181
  572loPI   C2B 9150   2.952   7.271   9.220 -0.1029 -0.0623 -0.0569
  572loPI   C3B 9151   3.014   7.202   8.772 -0.1636  0.4053 -0.1074
  572loPI   C4B 9152   2.976   6.935   8.324 -0.3718  0.1621 -0.1515
  573loPI    C1 9153   9.801  14.703  10.378  0.0260 -0.0082 -0.1614
  573loPI    C2 9154   9.541  14.615  10.669  0.0162 -0.0723 -0.1894
  573loPI    C3 9155   9.821  14.894  10.729 -0.0249 -0.0415 -0.1403
  573loPI   PO4 9156   9.702  14.527  10.216 -0.2679  0.2725 -0.1585
  573loPI   GL1 9157   9.463  14.613   9.829 -0.0583  0.2513 -0.2800
  573loPI   GL2 9158   9.468  14.228   9.945 -0.2422 -0.1879 -0.1265
  573loPI   C1A 9159   9.304  14.506   9.433  0.2391  0.0653  0.0813
  573loPI   C2A 9160   9.362  14.390   8.994  0.2006 -0.1560  0.0899
  573loPI   C3A 9161   9.237  14.465   8.570 -0.0412 -0.2533  0.0165
  573loPI   C4A 9162   9.177  14.391   8.132 -0.0816  0.1468 -0.0849
  573loPI   C5A 9163   8.902  14.407   7.758  0.2840  0.3147 -0.0743
  573loPI   C6A 9164   8.565  14.288   7.549 -0.3313 -0.0539  0.1418
  573loPI   C1B 9165   9.351  14.037   9.523 -0.0595  0.1561 -0.1256
  573loPI   C2B 9166   9.350  13.872   9.112 -0.1024  0.1100  0.1435
  573loPI   C3B 9167   9.275  13.943   8.633 -0.1072 -0.0926  0.0016
  573loPI   C4B 9168   9.327  13.862   8.257  0.2979 -0.1899 -0.0402
  574loPI    C1 9169  16.906   6.696  10.580  0.1736 -0.0803  0.0155
  574loPI    C2 9170  16.671   6.970  10.752 -0.0102 -0.0080 -0.3414
  574loPI    C3 9171  16.548   6.591  10.726  0.1359 -0.0765 -0.0741
  574loPI   PO4 9172  16.961   6.791  10.385  0.0825 -0.0428  0.2152
  574loPI   GL1 9173  17.127   6.585   9.999  0.3344  0.1783  0.0881
  574loPI   GL2 9174  16.863   6.874   9.918 -0.1862  0.0012  0.0749
  574loPI   C1A 9175  17.305   6.377   9.596 -0.0500 -0.0446 -0.1315
  574loPI   C2A 9176  17.284   6.463   9.173  0.1555  0.4159 -0.1151
  574loPI   C3A 9177  17.276   6.440   8.803 -0.2256 -0.0424  0.0853
  574loPI   C4A 9178  17.249   6.406   8.313  0.0726 -0.0772  0.1840
  574loPI   C5A 9179  17.581   6.236   8.006 -0.0361  0.4298 -0.4579
  574loPI   C6A 9180  17.781   5.904   8.110 -0.1685 -0.0173 -0.2999
  574loPI   C1B 9181  16.913   6.754   9.551  0.0982 -0.0035  0.0888
  574loPI   C2B 9182  16.842   6.749   9.057  0.2976 -0.0471  0.0931
  574loPI   C3B 9183  16.788   6.578   8.557 -0.4029 -0.2535  0.1859
  574loPI   C4B 9184  16.780   6.487   8.031 -0.1659  0.3399 -0.0274
  575loPI    C1 9185  10.983   7.602  10.640 -0.0306  0.0591 -0.1983
  575loPI    C2 9186  10.820   7.965  10.677  0.0648  0.0562  0.3259
  575loPI    C3 9187  11.216   7.920  10.703  0.0875 -0.0429 -0.1151
  575loPI   PO4 9188  10.957   7.527  10.461  0.1459  0.1098 -0.0347
  575loPI   GL1 9189  11.199   7.350  10.158 -0.0249 -0.0149  0.0687
  575loPI   GL2 9190  11.626   7.270   9.969  0.2216  0.2068 -0.1771
  575loPI   C1A 9191  11.170   7.219   9.744 -0.0481  0.1999 -0.1026
  575loPI   C2A 9192  11.127   7.203   9.349  0.3228 -0.3700  0.1006
  575loPI   C3A 9193  11.165   7.401   8.876 -0.0942 -0.1617 -0.0772
  575loPI   C4A 9194  11.256   7.465   8.431 -0.1289 -0.2510  0.1356
  575loPI   C5A 9195  11.313   7.391   8.134 -0.2019 -0.4641  0.1269
  575loPI   C6A 9196  11.435   7.622   7.733  0.0910  0.1355 -0.0673
  575loPI   C1B 9197  11.693   7.213   9.451  0.3617  0.0535  0.1497
  575loPI   C2B 9198  11.629   7.171   9.037  0.0512  0.1038 -0.0661
  575loPI   C3B 9199  11.636   7.291   8.588 -0.0840 -0.1622 -0.0815
  575loPI   C4B 9200  11.818   7.302   8.185 -0.2227  0.1202  0.0460
  576loPI    C1 9201  11.019   2.984  10.701 -0.0483  0.1520 -0.0310
  576loPI    C2 9202  10.778   2.825  10.978 -0.0083 -0.0838 -0.1292
  576loPI    C3 9203  11.084   3.057  11.089 -0.2763  0.2184 -0.0035
  576loPI   PO4 9204  10.863   3.017  10.444 -0.0197  0.2155 -0.1742
  576loPI   GL1 9205  11.016   3.094  10.014 -0.0044  0.1793 -0.0130
  576loPI   GL2 9206  10.835   3.160   9.938  0.3678  0.0244  0.1344
  576loPI   C1A 9207  11.199   2.854   9.718 -0.3780 -0.0802 -0.2857
  576loPI   C2A 9208  11.221   2.810   9.288 -0.1977 -0.0359 -0.2535
  576loPI   C3A 9209  11.416   2.854   8.824 -0.0073  0.3652 -0.1744
  576loPI   C4A 9210  11.388   2.967   8.410  0.2863  0.1190 -0.2466
  576loPI   C5A 9211  11.280   2.985   8.024  0.1336  0.1635  0.1423
  576loPI   C6A 9212  11.077   3.062   7.646  0.2165 -0.4119 -0.1156
  576loPI   C1B 9213  10.752   3.047   9.496  0.0128  0.1627  0.0436
  576loPI   C2B 9214  10.789   2.940   9.050 -0.1370  0.0947  0.0208
  576loPI   C3B 9215  10.995   3.065   8.716  0.0619  0.0544  0.4400
  576loPI   C4B 9216  10.887   3.071   8.290 -0.0145  0.1961 -0.0489
  577loPI    C1 9217  14.576  11.570   9.873  0.0914  0.0382 -0.1355
  577loPI    C2 9218  14.729  11.861  10.101 -0.0443  0.0648 -0.0775
  577loPI    C3 9219  14.344  11.758  10.140  0.0425 -0.2337  0.0177
  577loPI   PO4 9220  14.728  11.672   9.640 -0.2613 -0.1840  0.1765
  577loPI   GL1 9221  14.597  11.870   9.281 -0.0116 -0.0345  0.0285
  577loPI   GL2 9222  14.307  12.008   9.274 -0.0487  0.2570  0.0856
  577loPI   C1A 9223  14.401  11.660   8.953  0.1041 -0.1653 -0.0447
  577loPI   C2A 9224  14.198  11.589   8.571 -0.1417  0.2415  0.3239
  577loPI   C3A 9225  14.137  11.518   8.161  0.3014 -0.1752 -0.2392
  577loPI   C4A 9226  14.327  11.245   7.793  0.1647  0.0421  0.0607
  577loPI   C5A 9227  14.126  11.162   7.468 -0.0517  0.2635  0.1066
  577loPI   C6A 9228  13.818  11.291   7.283  0.2861 -0.2543  0.1616
  577loPI   C1B 9229  14.316  12.181   8.904 -0.3654 -0.1489  0.1798
  577loPI   C2B 9230  14.433  12.035   8.542 -0.0142  0.0866  0.1583
  577loPI   C3B 9231  14.541  12.037   8.130  0.3316 -0.0467  0.4190
  577loPI   C4B 9232  14.465  11.711   7.811 -0.0297  0.1172  0.5549
  578loPI    C1 9233  14.473   8.739  10.389  0.0400 -0.1354 -0.0848
  578loPI    C2 9234  14.863   8.743  10.481  0.0122 -0.0860  0.0330
  578loPI    C3 9235  14.589   8.723  10.772 -0.0717 -0.2360 -0.0549
  578loPI   PO4 9236  14.517   8.872  10.142  0.0354  0.0315  0.1198
  578loPI   GL1 9237  14.626   9.097   9.810  0.2349  0.2552 -0.0316
  578loPI   GL2 9238  14.645   9.494   9.798  0.0677  0.2924  0.0007
  578loPI   C1A 9239  14.721   8.964   9.451 -0.0072  0.1227  0.1435
  578loPI   C2A 9240  14.713   8.940   9.073 -0.2009 -0.3308 -0.0219
  578loPI   C3A 9241  14.657   8.852   8.640 -0.0571  0.0986  0.1575
  578loPI   C4A 9242  14.639   8.950   8.206 -0.0124  0.1552  0.0516
  578loPI   C5A 9243  14.510   9.160   7.796 -0.1308 -0.1999  0.0438
  578loPI   C6A 9244  14.055   8.918   7.661  0.0797 -0.2769  0.1127
  578loPI   C1B 9245  14.677   9.449   9.317  0.0755  0.3256 -0.1285
  578loPI   C2B 9246  14.591   9.429   8.879  0.3943 -0.2214 -0.1364
  578loPI   C3B 9247  14.594   9.342   8.505 -0.0289 -0.1148 -0.1070
  578loPI   C4B 9248  14.658   9.510   8.121 -0.1258  0.0379 -0.0144
  579loPI    C1 9249  18.074  12.828  10.577  0.0678 -0.0552  0.0683
  579loPI    C2 9250  17.689  12.857  10.471  0.1041  0.0605 -0.0345
  579loPI    C3 9251  17.813  13.013  10.818  0.0522 -0.0070  0.0148
  579loPI   PO4 9252  18.297  12.881  10.312 -0.0360 -0.1966  0.2674
  579loPI   GL1 9253  18.421  12.767   9.942  0.0878  0.1653 -0.0119
  579loPI   GL2 9254  18.428  12.458   9.940  0.3016  0.0038 -0.0990
  579loPI   C1A 9255  18.482  12.832   9.592  0.0297  0.1624 -0.1337
  579loPI   C2A 9256  18.507  12.751   9.197 -0.0352 -0.1687  0.1036
  579loPI   C3A 9257  18.562  12.697   8.718  0.1249 -0.1798 -0.2335
  579loPI   C4A 9258  18.407  12.767   8.303 -0.1887 -0.0413  0.2689
  579loPI   C5A 9259  18.536  12.727   7.950  0.2160  0.4794  0.0127
  579loPI   C6A 9260  18.370  12.727   7.570 -0.2467 -0.0332 -0.0479
  579loPI   C1B 9261  18.584  12.350   9.488  0.1525  0.0725  0.0263
  579loPI   C2B 9262  18.568  12.192   9.061 -0.2909 -0.1128 -0.1701
  579loPI   C3B 9263  18.598  12.163   8.606 -0.1947  0.4202 -0.0069
  579loPI   C4B 9264  18.655  12.336   8.247  0.1572  0.1386 -0.2888
  580loPI    C1 9265   1.862   8.639  10.649  0.0277 -0.0584 -0.0541
  580loPI    C2 9266   2.110   8.693  10.958 -0.0663  0.0975 -0.0050
  580loPI    C3 9267   1.775   8.479  11.004 -0.0270  0.0314 -0.0267
  580loPI   PO4 9268   2.000   8.632  10.452  0.3276 -0.0828  0.0132
  580loPI   GL1 9269   2.282   8.312  10.201  0.3838 -0.1231 -0.2476
  580loPI   GL2 9270   2.005   8.160  10.180  0.2834  0.1355 -0.0644
  580loPI   C1A 9271   2.199   8.587   9.860 -0.0555  0.0198  0.1344
  580loPI   C2A 9272   2.227   8.590   9.428  0.1693 -0.2052 -0.1344
  580loPI   C3A 9273   2.298   8.531   8.950 -0.0474  0.1444 -0.1048
  580loPI   C4A 9274   2.355   8.487   8.552  0.5165  0.0486  0.0262
  580loPI   C5A 9275   2.276   8.375   8.191 -0.3028 -0.1721  0.1642
  580loPI   C6A 9276   2.153   7.974   8.068  0.1478 -0.2621  0.1499
  580loPI   C1B 9277   1.823   8.250   9.795  0.1477 -0.1192  0.0135
  580loPI   C2B 9278   1.922   8.157   9.359 -0.0736  0.3409  0.0723
  580loPI   C3B 9279   1.843   8.164   8.917 -0.2726  0.2412  0.0719
  580loPI   C4B 9280   1.856   8.153   8.517 -0.2874 -0.1815  0.0939
  581loPI    C1 9281  11.142  16.994  10.303 -0.0771 -0.0340  0.1106
  581loPI    C2 9282  10.955  16.652  10.393  0.0548 -0.1413 -0.0183
  581loPI    C3 9283  11.317  16.728  10.546 -0.0046 -0.0274  0.0661
  581loPI   PO4 9284  11.152  17.037  10.004  0.0254  0.1211  0.0051
  581loPI   GL1 9285  11.230  17.086   9.577  0.4221  0.0959 -0.0279
  581loPI   GL2 9286  10.827  17.193   9.649  0.0240 -0.0876  0.0324
  581loPI   C1A 9287  11.267  17.138   9.130 -0.0403 -0.0343  0.1847
  581loPI   C2A 9288  11.228  17.097   8.693 -0.2673  0.0527  0.0759
  581loPI   C3A 9289  11.234  17.095   8.257 -0.2277 -0.1524 -0.0513
  581loPI   C4A 9290  11.249  17.113   7.838  0.3231 -0.1108 -0.0628
  581loPI   C5A 9291  11.239  17.436   7.426  0.2334  0.2758 -0.1381
  581loPI   C6A 9292  11.346  17.698   7.139 -0.2322  0.2513  0.3971
  581loPI   C1B 9293  10.798  17.201   9.258 -0.0561  0.0845 -0.1116
  581loPI   C2B 9294  10.640  17.239   8.795 -0.0743 -0.0350  0.0684
  581loPI   C3B 9295  10.812  17.342   8.400  0.1594 -0.0154 -0.0373
  581loPI   C4B 9296  10.752  17.227   7.984  0.0355  0.1918 -0.1598
  582loPI    C1 9297   1.316   8.927  10.595 -0.0220 -0.0715  0.0012
  582loPI    C2 9298   1.666   9.067  10.460  0.0754 -0.2100  0.1081
  582loPI    C3 9299   1.337   9.294  10.436  0.1616 -0.0993 -0.0405
  582loPI   PO4 9300   1.356   8.621  10.533 -0.0314  0.0895 -0.1937
  582loPI   GL1 9301   1.525   8.478  10.146  0.0385 -0.2389 -0.0843
  582loPI   GL2 9302   1.767   8.804  10.043  0.1129  0.0097 -0.2490
  582loPI   C1A 9303   1.344   8.418   9.764 -0.0386  0.0875  0.0828
  582loPI   C2A 9304   1.318   8.437   9.282  0.0452 -0.2661 -0.0923
  582loPI   C3A 9305   1.394   8.306   8.961  0.0136 -0.1552  0.1346
  582loPI   C4A 9306   1.412   8.289   8.438 -0.3176 -0.0458 -0.2961
  582loPI   C5A 9307   1.763   8.386   8.093 -0.0087 -0.3046  0.2897
  582loPI   C6A 9308   1.939   8.253   7.662  0.0126 -0.2881 -0.2812
  582loPI   C1B 9309   1.791   8.793   9.693 -0.4239  0.0991  0.0248
  582loPI   C2B 9310   1.745   8.665   9.343  0.3234  0.0401 -0.4824
  582loPI   C3B 9311   1.821   8.710   8.995  0.3497 -0.1557  0.0432
  582loPI   C4B 9312   1.811   8.690   8.543 -0.2875  0.3846 -0.2525
  583loPI    C1 9313  16.399  11.857   9.972  0.4001 -0.0655  0.2460
  583loPI    C2 9314  16.182  11.530  10.049 -0.1632  0.2135 -0.0918
  583loPI    C3 9315  16.225  11.812  10.330 -0.1403  0.1055  0.0142
  583loPI   PO4 9316  16.495  11.811   9.701 -0.0448 -0.1121 -0.2094
  583loPI   GL1 9317  16.601  11.968   9.305  0.0748  0.1040  0.0726
  583loPI   GL2 9318  16.891  12.170   9.320  0.0891  0.3163  0.0758
  583loPI   C1A 9319  16.594  11.703   8.997 -0.2654  0.0335  0.0077
  583loPI   C2A 9320  16.647  11.491   8.582  0.1498  0.1367 -0.2245
  583loPI   C3A 9321  16.372  11.240   8.495  0.1567  0.1723 -0.0169
  583loPI   C4A 9322  16.286  10.861   8.578 -0.2096 -0.0839  0.0756
  583loPI   C5A 9323  16.138  10.542   8.665 -0.2907 -0.2545 -0.2249
  583loPI   C6A 9324  15.789  10.667   9.008  0.0608  0.2036  0.3932
  583loPI   C1B 9325  16.773  12.217   8.891 -0.2198  0.1787  0.3172
  583loPI   C2B 9326  16.758  11.971   8.551  0.2260  0.0527 -0.2183
  583loPI   C3B 9327  16.770  11.629   8.150  0.1736 -0.1750 -0.4486
  583loPI   C4B 9328  16.582  11.273   7.887 -0.3612  0.0860 -0.0209
  584loPI    C1 9329  17.929   2.932  10.235  0.0975 -0.3293 -0.1612
  584loPI    C2 9330  17.855   2.684  10.540  0.1382 -0.1829 -0.0308
  584loPI    C3 9331  18.033   3.036  10.608 -0.0584 -0.0500 -0.1930
  584loPI   PO4 9332  17.787   2.923   9.969 -0.0900  0.2799 -0.0476
  584loPI   GL1 9333  17.678   3.358   9.810 -0.3751  0.1671 -0.2338
  584loPI   GL2 9334  17.435   3.516   9.844  0.1802  0.1373  0.1204
  584loPI   C1A 9335  17.847   3.335   9.408  0.2732 -0.0538 -0.0489
  584loPI   C2A 9336  17.854   3.435   9.116 -0.1431  0.0174  0.0087
  584loPI   C3A 9337  17.912   3.451   8.678 -0.1845 -0.1742  0.1011
  584loPI   C4A 9338  17.957   3.334   8.328  0.1668 -0.0762  0.2249
  584loPI   C5A 9339  18.156   3.280   7.961 -0.3198 -0.0665  0.2026
  584loPI   C6A 9340  17.871   3.022   7.757  0.3564  0.1275 -0.0825
  584loPI   C1B 9341  17.301   3.571   9.419  0.0455 -0.2547  0.0434
  584loPI   C2B 9342  17.407   3.670   9.015  0.0861  0.0128  0.1698
  584loPI   C3B 9343  17.421   3.434   8.627  0.2516  0.1568  0.1885
  584loPI   C4B 9344  17.428   3.549   8.265  0.0570 -0.0604 -0.1068
  585loPI    C1 9345   1.346  12.470  10.497  0.0783  0.0752 -0.1910
  585loPI    C2 9346   1.427  12.728  10.793  0.0169  0.1135 -0.2074
  585loPI    C3 9347   1.077  12.747  10.601  0.0090  0.0129 -0.2037
  585loPI   PO4 9348   1.572  12.424  10.240  0.1536  0.3328 -0.0310
  585loPI   GL1 9349   1.725  12.382   9.788  0.0907 -0.1650  0.1347
  585loPI   GL2 9350   1.850  12.505   9.865  0.1096 -0.0961 -0.1628
  585loPI   C1A 9351   1.799  12.267   9.368 -0.4924 -0.1026  0.1037
  585loPI   C2A 9352   1.675  12.140   8.976 -0.0126  0.3480 -0.0918
  585loPI   C3A 9353   1.585  11.958   8.617  0.1893  0.0007 -0.1505
  585loPI   C4A 9354   1.455  11.696   8.264  0.3571  0.2016 -0.0079
  585loPI   C5A 9355   1.552  11.557   7.845  0.0021 -0.1178 -0.1560
  585loPI   C6A 9356   1.594  11.439   7.342 -0.2365  0.0061  0.0322
  585loPI   C1B 9357   2.199  12.689   9.557  0.0358  0.2501 -0.2802
  585loPI   C2B 9358   2.084  12.997   9.235 -0.0255  0.0350 -0.1325
  585loPI   C3B 9359   2.216  13.074   8.866  0.0185 -0.2313  0.0117
  585loPI   C4B 9360   2.156  12.897   8.553  0.1998  0.2577 -0.0162
  586loPI    C1 9361  16.839  16.036   9.936  0.1913 -0.1113  0.2292
  586loPI    C2 9362  17.176  15.919  10.116  0.1983 -0.0590  0.2503
  586loPI    C3 9363  17.125  16.303  10.019  0.3282 -0.1359 -0.1429
  586loPI   PO4 9364  16.817  15.920   9.710 -0.0667 -0.1798  0.3068
  586loPI   GL1 9365  16.722  15.811   9.207  0.0984  0.0634 -0.2937
  586loPI   GL2 9366  17.030  15.736   9.322  0.0039  0.0935 -0.2514
  586loPI   C1A 9367  16.632  16.050   8.886 -0.0520  0.1215  0.3058
  586loPI   C2A 9368  16.639  16.223   8.389  0.1740 -0.0341  0.1124
  586loPI   C3A 9369  16.633  16.266   7.923 -0.0103  0.0926 -0.2663
  586loPI   C4A 9370  16.614  16.444   7.603  0.1970  0.2140  0.0847
  586loPI   C5A 9371  16.914  16.692   7.336  0.1077 -0.2223 -0.1691
  586loPI   C6A 9372  17.283  16.771   7.098 -0.0786  0.2576 -0.0889
  586loPI   C1B 9373  16.968  15.665   8.847 -0.1294  0.0068  0.2313
  586loPI   C2B 9374  16.961  15.756   8.414  0.3571  0.4466 -0.0870
  586loPI   C3B 9375  17.111  16.068   8.121 -0.0556 -0.2812  0.0363
  586loPI   C4B 9376  17.116  16.332   7.785 -0.1228  0.1034  0.1860
  587loPI    C1 9377   8.790   9.578  10.253 -0.0686  0.1230  0.0115
  587loPI    C2 9378   8.586   9.673  10.584 -0.0470 -0.0203  0.0666
  587loPI    C3 9379   8.408   9.464  10.293 -0.1091  0.2259 -0.0753
  587loPI   PO4 9380   8.958   9.639  10.148  0.2345 -0.0788 -0.0350
  587loPI   GL1 9381   9.032   9.881   9.902  0.2485  0.2034 -0.4574
  587loPI   GL2 9382   9.203  10.162  10.004  0.3787  0.1453  0.1955
  587loPI   C1A 9383   8.959   9.705   9.492  0.1619  0.1582  0.2755
  587loPI   C2A 9384   8.883   9.725   9.064  0.2066 -0.0458 -0.0214
  587loPI   C3A 9385   9.005   9.692   8.725  0.0609 -0.1834  0.1140
  587loPI   C4A 9386   9.137   9.664   8.297  0.0041 -0.0772 -0.1230
  587loPI   C5A 9387   9.238   9.713   7.855 -0.3684  0.2529  0.0336
  587loPI   C6A 9388   9.445   9.544   7.638  0.3363  0.1174 -0.3208
  587loPI   C1B 9389   8.892  10.316   9.590 -0.1987 -0.3009 -0.0098
  587loPI   C2B 9390   8.835  10.196   9.179  0.1954  0.1834  0.1429
  587loPI   C3B 9391   8.849  10.147   8.718  0.1775  0.0910  0.3335
  587loPI   C4B 9392   8.894  10.097   8.250  0.0107 -0.2427 -0.0782
  588loPI    C1 9393   3.597  14.468  10.581  0.1818  0.0557  0.2751
  588loPI    C2 9394   3.840  14.365  10.882  0.0230  0.1068  0.4225
  588loPI    C3 9395   3.455  14.257  10.889  0.0110  0.1350  0.2520
  588loPI   PO4 9396   3.857  14.635  10.453  0.2161 -0.1781 -0.0534
  588loPI   GL1 9397   3.905  14.601  10.126 -0.2853  0.0171  0.0632
  588loPI   GL2 9398   4.289  14.462  10.197 -0.1434  0.0579 -0.1529
  588loPI   C1A 9399   4.148  14.919   9.826  0.2291 -0.1569  0.0090
  588loPI   C2A 9400   4.160  15.038   9.429 -0.2824 -0.1776 -0.0385
  588loPI   C3A 9401   4.059  14.958   9.066 -0.3824  0.1104  0.0170
  588loPI   C4A 9402   4.116  15.106   8.579  0.0122 -0.1727 -0.1109
  588loPI   C5A 9403   4.039  15.111   8.175 -0.1683 -0.4100 -0.3348
  588loPI   C6A 9404   4.105  14.838   7.949  0.0950  0.1940 -0.3320
  588loPI   C1B 9405   4.472  14.425   9.804  0.1968 -0.1201  0.0928
  588loPI   C2B 9406   4.529  14.344   9.355 -0.0332  0.0686 -0.1869
  588loPI   C3B 9407   4.703  14.376   8.975 -0.1646  0.0997 -0.0953
  588loPI   C4B 9408   4.650  14.501   8.612  0.1523  0.1151  0.0100
  589loPI    C1 9409  14.674  14.245   9.717 -0.3069  0.1690  0.1265
  589loPI    C2 9410  14.667  14.213  10.115 -0.3014  0.1843  0.1279
  589loPI    C3 9411  14.619  13.888   9.888  0.0573  0.1167  0.1421
  589loPI   PO4 9412  14.814  14.426   9.652 -0.0612 -0.2949 -0.1087
  589loPI   GL1 9413  14.918  14.150   9.269 -0.1716  0.0475  0.2037
  589loPI   GL2 9414  14.606  14.316   9.085 -0.0734 -0.1058 -0.3599
  589loPI   C1A 9415  15.046  14.286   8.877  0.3015  0.1124 -0.1478
  589loPI   C2A 9416  15.006  14.381   8.443 -0.1989  0.2757  0.3213
  589loPI   C3A 9417  15.090  14.267   8.103  0.1072  0.3114  0.2523
  589loPI   C4A 9418  15.396  14.146   7.879  0.0103 -0.0908 -0.0085
  589loPI   C5A 9419  15.705  14.058   7.493 -0.2662 -0.1235  0.1367
  589loPI   C6A 9420  16.039  14.112   7.182 -0.0335  0.0347  0.0893
  589loPI   C1B 9421  14.585  14.274   8.695  0.3445 -0.4492  0.0063
  589loPI   C2B 9422  14.584  14.352   8.171  0.1858 -0.0779 -0.1149
  589loPI   C3B 9423  14.632  14.443   7.734  0.1939 -0.0545 -0.0631
  589loPI   C4B 9424  14.613  14.375   7.210  0.0673  0.1700 -0.2597
  590loPI    C1 9425  16.133   0.876   9.927  0.0456  0.0444 -0.0373
  590loPI    C2 9426  15.980   1.079  10.236  0.0780  0.0366 -0.0161
  590loPI    C3 9427  15.880   0.696  10.180  0.3285 -0.0595  0.1765
  590loPI   PO4 9428  16.083   1.014   9.752 -0.0015 -0.0859  0.0789
  590loPI   GL1 9429  16.264   1.170   9.326 -0.1100 -0.0115 -0.2085
  590loPI   GL2 9430  16.300   1.505   9.463 -0.0658  0.2388  0.0904
  590loPI   C1A 9431  16.397   1.026   8.904  0.0898 -0.1357 -0.0902
  590loPI   C2A 9432  16.495   0.919   8.457  0.0689 -0.0540 -0.0293
  590loPI   C3A 9433  16.411   0.862   8.081  0.0627  0.0021  0.2109
  590loPI   C4A 9434  16.619   0.820   7.635 -0.0936 -0.1734  0.0394
  590loPI   C5A 9435  16.976   0.634   7.403  0.0221 -0.0406 -0.1048
  590loPI   C6A 9436  17.310   0.679   7.116  0.1265  0.0463  0.1778
  590loPI   C1B 9437  16.289   1.499   9.010 -0.1043 -0.1135  0.1168
  590loPI   C2B 9438  16.322   1.396   8.580  0.0275 -0.0018 -0.0983
  590loPI   C3B 9439  16.352   1.475   8.165  0.0936  0.1328 -0.2534
  590loPI   C4B 9440  16.446   1.281   7.738  0.0973 -0.1438  0.1324
  591loPI    C1 9441  15.879   4.309  10.784  0.1292  0.3928  0.0968
  591loPI    C2 9442  16.270   4.325  10.700  0.1488  0.1658  0.1357
  591loPI    C3 9443  16.124   4.018  10.909 -0.0963  0.1047 -0.1191
  591loPI   PO4 9444  15.792   4.368  10.464  0.1457  0.0854 -0.3564
  591loPI   GL1 9445  15.753   4.306  10.020 -0.0103 -0.1041 -0.4313
  591loPI   GL2 9446  15.907   4.043   9.939 -0.1146 -0.3082  0.4174
  591loPI   C1A 9447  15.895   4.606   9.705 -0.2100 -0.0971  0.2521
  591loPI   C2A 9448  15.855   4.553   9.262 -0.0943 -0.0287  0.1968
  591loPI   C3A 9449  15.819   4.542   8.833 -0.0216  0.0337 -0.0225
  591loPI   C4A 9450  15.818   4.482   8.340  0.0579 -0.1077  0.0723
  591loPI   C5A 9451  16.045   4.384   7.963  0.0199  0.1576 -0.3497
  591loPI   C6A 9452  16.281   4.333   7.640 -0.1754 -0.3789  0.3107
  591loPI   C1B 9453  15.902   4.088   9.511  0.0645  0.1953  0.2824
  591loPI   C2B 9454  15.883   4.122   9.060  0.2711  0.1368  0.3409
  591loPI   C3B 9455  15.986   4.029   8.677  0.1472 -0.0134 -0.0677
  591loPI   C4B 9456  15.979   4.002   8.251  0.1805  0.1109 -0.0278
  592loPI    C1 9457   2.274  15.412  10.776 -0.2037  0.0103  0.0102
  592loPI    C2 9458   1.889  15.415  10.884 -0.1824  0.1295  0.0855
  592loPI    C3 9459   2.174  15.463  11.160 -0.1063 -0.1276  0.0545
  592loPI   PO4 9460   2.220  15.251  10.523 -0.0390 -0.1100 -0.0829
  592loPI   GL1 9461   2.332  15.329  10.138  0.0530  0.1485  0.0564
  592loPI   GL2 9462   2.047  15.324   9.985 -0.0914 -0.3414  0.2637
  592loPI   C1A 9463   2.557  15.318   9.705  0.1721  0.0298 -0.1901
  592loPI   C2A 9464   2.567  15.495   9.327  0.1982  0.4329 -0.1232
  592loPI   C3A 9465   2.645  15.527   8.860  0.1306 -0.2749 -0.4690
  592loPI   C4A 9466   2.738  15.854   8.594  0.2218  0.1217 -0.1034
  592loPI   C5A 9467   2.893  16.296   8.393 -0.0204 -0.2404 -0.1460
  592loPI   C6A 9468   3.157  16.624   8.451  0.2645 -0.1899 -0.1233
  592loPI   C1B 9469   2.179  15.580   9.623  0.0897  0.1196 -0.0292
  592loPI   C2B 9470   2.448  15.977   9.480  0.2828  0.1017 -0.2324
  592loPI   C3B 9471   2.686  15.955   9.212 -0.0656 -0.0322 -0.0832
  592loPI   C4B 9472   2.821  16.204   8.926 -0.0828  0.0405  0.0503
  593loPI    C1 9473  12.249  17.805  10.149  0.0782 -0.0510  0.1025
  593loPI    C2 9474  12.083  18.147  10.273  0.1564  0.0601 -0.0956
  593loPI    C3 9475  11.935  17.797  10.397 -0.0317  0.1625 -0.0273
  593loPI   PO4 9476  12.212  17.863   9.866  0.0685 -0.1826  0.2661
  593loPI   GL1 9477  11.967  18.113   9.539 -0.2052  0.3590  0.2387
  593loPI   GL2 9478  11.742  17.864   9.457 -0.2127 -0.0652  0.0225
  593loPI   C1A 9479  12.137  18.204   9.117  0.3339  0.1435  0.1553
  593loPI   C2A 9480  11.981  18.251   8.704  0.1979 -0.0074 -0.2619
  593loPI   C3A 9481  11.925  18.178   8.240 -0.1655 -0.0707 -0.0126
  593loPI   C4A 9482  11.772  18.197   7.859  0.0784 -0.3715  0.2179
  593loPI   C5A 9483  11.545  18.207   7.502  0.2081  0.0855 -0.2380
  593loPI   C6A 9484  11.544  18.225   7.065  0.0156  0.4683  0.2435
  593loPI   C1B 9485  11.668  17.961   9.019  0.0359 -0.1732 -0.4202
  593loPI   C2B 9486  11.548  17.846   8.664 -0.1380  0.0500 -0.0982
  593loPI   C3B 9487  11.540  17.840   8.182  0.1182 -0.6208  0.3194
  593loPI   C4B 9488  11.489  17.734   7.829  0.0397 -0.1921  0.0314
  594loPI    C1 9489  13.869   1.621   9.890 -0.0134  0.0017 -0.0655
  594loPI    C2 9490  14.228   1.484  10.003 -0.0485 -0.0563 -0.0238
  594loPI    C3 9491  13.922   1.479  10.260 -0.0969 -0.0713 -0.0813
  594loPI   PO4 9492  13.907   1.718   9.654  0.2759  0.0657 -0.0464
  594loPI   GL1 9493  13.959   1.520   9.232  0.3275  0.1658 -0.1090
  594loPI   GL2 9494  13.928   1.830   9.140  0.0010 -0.1136  0.0062
  594loPI   C1A 9495  13.986   1.430   8.847 -0.3902  0.0196  0.0151
  594loPI   C2A 9496  13.886   1.430   8.447  0.1544 -0.2590 -0.2910
  594loPI   C3A 9497  14.058   1.434   8.144  0.2714 -0.1221 -0.1329
  594loPI   C4A 9498  13.897   1.540   7.717  0.0538  0.1828 -0.3762
  594loPI   C5A 9499  13.927   1.541   7.308 -0.0820  0.0750  0.1655
  594loPI   C6A 9500  14.043   1.862   6.986  0.0224  0.4498 -0.1917
  594loPI   C1B 9501  13.886   1.936   8.729  0.0422  0.0745  0.1567
  594loPI   C2B 9502  13.874   1.896   8.327  0.0108 -0.4490 -0.1509
  594loPI   C3B 9503  13.693   2.114   7.985  0.1161 -0.0034  0.2781
  594loPI   C4B 9504  13.762   2.017   7.483 -0.1662  0.1791  0.0937
  595loPI    C1 9505   2.718  14.503  10.659 -0.0414 -0.2998  0.0559
  595loPI    C2 9506   3.062  14.406  10.479 -0.0877 -0.1256 -0.1291
  595loPI    C3 9507   2.970  14.245  10.833  0.0899 -0.3295 -0.1737
  595loPI   PO4 9508   2.374  14.361  10.436 -0.1576  0.1206 -0.2135
  595loPI   GL1 9509   2.262  14.241  10.045 -0.1819  0.0531  0.0739
  595loPI   GL2 9510   2.251  14.582   9.993 -0.0896  0.0804  0.0575
  595loPI   C1A 9511   2.272  14.296   9.592  0.0793  0.0486  0.0505
  595loPI   C2A 9512   2.315  14.612   9.294 -0.0379  0.1744 -0.3760
  595loPI   C3A 9513   2.606  14.586   9.001 -0.0004  0.1894  0.0493
  595loPI   C4A 9514   2.601  14.682   8.556 -0.2849  0.0181 -0.5657
  595loPI   C5A 9515   2.220  14.690   8.205  0.0084 -0.2366 -0.0590
  595loPI   C6A 9516   1.844  14.906   8.058 -0.1604  0.0143  0.2300
  595loPI   C1B 9517   2.601  14.823   9.710  0.1865 -0.3845  0.0677
  595loPI   C2B 9518   2.721  14.984   9.292  0.1206 -0.5286  0.0534
  595loPI   C3B 9519   2.749  15.047   8.860 -0.4832 -0.0656 -0.0432
  595loPI   C4B 9520   2.614  15.233   8.437 -0.3370 -0.3699  0.1978
  596loPI    C1 9521   8.100   2.278  10.955  0.1567 -0.0248  0.0991
  596loPI    C2 9522   8.451   2.120  11.062  0.1224  0.0016  0.2533
  596loPI    C3 9523   8.280   2.400  11.291  0.0911  0.1256  0.0805
  596loPI   PO4 9524   8.219   2.333  10.603  0.0137 -0.1003  0.1252
  596loPI   GL1 9525   8.250   2.268  10.149  0.1049  0.0297 -0.2564
  596loPI   GL2 9526   7.950   2.410  10.211 -0.0435  0.2381 -0.0328
  596loPI   C1A 9527   8.403   2.222   9.887  0.2075 -0.0810  0.1771
  596loPI   C2A 9528   8.342   2.269   9.396  0.3889 -0.0910  0.1085
  596loPI   C3A 9529   8.182   2.247   9.028 -0.1080 -0.1092 -0.1030
  596loPI   C4A 9530   8.272   2.317   8.629  0.1143  0.4871  0.0158
  596loPI   C5A 9531   8.276   2.301   8.173  0.1389 -0.0795 -0.1423
  596loPI   C6A 9532   8.319   2.514   7.781 -0.0256 -0.3357  0.0975
  596loPI   C1B 9533   7.920   2.385   9.759 -0.1757 -0.2032 -0.3455
  596loPI   C2B 9534   7.797   2.390   9.355 -0.0354  0.0662 -0.1600
  596loPI   C3B 9535   7.699   2.500   8.891  0.1492  0.2370  0.0515
  596loPI   C4B 9536   7.865   2.562   8.468 -0.1459  0.2286 -0.0988
  597loPI    C1 9537   5.209   7.617  10.877 -0.0671 -0.1226  0.2423
  597loPI    C2 9538   5.579   7.734  10.976  0.0069 -0.0618 -0.0943
  597loPI    C3 9539   5.315   7.642  11.262  0.1705  0.2363  0.1586
  597loPI   PO4 9540   5.215   7.743  10.626  0.0069 -0.0152  0.0496
  597loPI   GL1 9541   5.284   7.674  10.208 -0.3831 -0.1482 -0.2154
  597loPI   GL2 9542   5.177   7.953  10.136  0.0143 -0.0802 -0.3044
  597loPI   C1A 9543   5.212   7.690   9.752 -0.0769  0.1572  0.0338
  597loPI   C2A 9544   5.122   7.718   9.306 -0.1430 -0.0790 -0.2148
  597loPI   C3A 9545   5.134   7.774   8.862  0.0803  0.1618 -0.0691
  597loPI   C4A 9546   5.118   7.940   8.397 -0.3065 -0.1371 -0.0040
  597loPI   C5A 9547   5.173   8.113   7.973 -0.1077  0.2492 -0.0769
  597loPI   C6A 9548   5.086   8.346   7.664  0.1553 -0.0875  0.0099
  597loPI   C1B 9549   5.136   8.209   9.764  0.5027  0.3031  0.1922
  597loPI   C2B 9550   5.068   8.198   9.284 -0.0896 -0.0980 -0.1080
  597loPI   C3B 9551   5.110   8.256   8.867 -0.1307  0.2178  0.3235
  597loPI   C4B 9552   5.205   8.416   8.464 -0.2404 -0.1283 -0.0927
  598loPI    C1 9553  17.740   4.263  10.520 -0.1730 -0.2108  0.1431
  598loPI    C2 9554  17.621   4.178  10.892 -0.1093 -0.1544  0.1765
  598loPI    C3 9555  17.966   4.371  10.831 -0.0652 -0.2619  0.0827
  598loPI   PO4 9556  17.630   4.031  10.333 -0.0807 -0.0421  0.0258
  598loPI   GL1 9557  17.766   3.873  10.007 -0.1684  0.2632  0.1257
  598loPI   GL2 9558  18.074   3.959  10.011  0.1224  0.2509  0.1335
  598loPI   C1A 9559  17.706   3.849   9.629 -0.1567 -0.0177  0.1885
  598loPI   C2A 9560  17.832   3.869   9.298 -0.1138 -0.1573  0.2403
  598loPI   C3A 9561  17.895   3.968   8.831 -0.0731 -0.1464  0.1222
  598loPI   C4A 9562  17.896   3.933   8.463 -0.0978 -0.0319  0.3061
  598loPI   C5A 9563  17.810   3.740   8.075 -0.4020 -0.2125 -0.1896
  598loPI   C6A 9564  17.631   3.433   7.821  0.1733  0.0614 -0.0977
  598loPI   C1B 9565  18.203   4.205   9.643 -0.0704  0.3737  0.0761
  598loPI   C2B 9566  18.197   4.159   9.159 -0.1401  0.0593 -0.3337
  598loPI   C3B 9567  18.285   4.261   8.766  0.3125 -0.2401 -0.1254
  598loPI   C4B 9568  18.281   4.259   8.321 -0.0591 -0.0644 -0.1061
  599loPI    C1 9569   7.996   4.008  11.114  0.1075  0.0228  0.2807
  599loPI    C2 9570   7.906   3.635  10.999  0.1126  0.0690  0.1238
  599loPI    C3 9571   7.926   3.726  11.388  0.0337 -0.0752  0.1623
  599loPI   PO4 9572   8.149   4.101  10.947 -0.0586  0.0260 -0.1321
  599loPI   GL1 9573   8.370   4.174  10.569  0.4545 -0.2620  0.0223
  599loPI   GL2 9574   8.068   4.446  10.584 -0.0738  0.0032 -0.1081
  599loPI   C1A 9575   8.472   4.076  10.051  0.2688 -0.0870 -0.1457
  599loPI   C2A 9576   8.453   4.172   9.541  0.1729 -0.0119 -0.4915
  599loPI   C3A 9577   8.464   4.154   9.090  0.1814 -0.1567 -0.0087
  599loPI   C4A 9578   8.405   4.277   8.709  0.0030 -0.1295  0.0459
  599loPI   C5A 9579   8.085   4.206   8.414 -0.2410 -0.0289 -0.1569
  599loPI   C6A 9580   7.678   4.455   8.097 -0.0172 -0.0022 -0.0628
  599loPI   C1B 9581   7.950   4.212  10.262 -0.0193 -0.0799  0.0413
  599loPI   C2B 9582   7.964   4.259   9.926  0.1851  0.0225  0.0136
  599loPI   C3B 9583   7.846   4.302   9.577 -0.1058  0.0300 -0.0938
  599loPI   C4B 9584   7.918   4.384   9.076 -0.2720 -0.1823  0.0740
  600loPI    C1 9585   9.165   4.902  11.087 -0.1887 -0.0507 -0.2346
  600loPI    C2 9586   9.402   4.590  11.169 -0.1282  0.0402 -0.0583
  600loPI    C3 9587   9.513   4.959  11.276 -0.1988  0.1233 -0.2670
  600loPI   PO4 9588   9.127   4.847  10.894  0.2091 -0.0636  0.0406
  600loPI   GL1 9589   9.222   4.762  10.474 -0.0895  0.0243 -0.4037
  600loPI   GL2 9590   9.222   5.030  10.441  0.3545  0.0047  0.2118
  600loPI   C1A 9591   9.288   4.722  10.068  0.3471 -0.0863  0.1435
  600loPI   C2A 9592   9.236   4.808   9.619 -0.2421  0.0454  0.0859
  600loPI   C3A 9593   9.321   4.816   9.161 -0.3002 -0.0377  0.0440
  600loPI   C4A 9594   9.221   4.668   8.806  0.0309 -0.0730  0.0066
  600loPI   C5A 9595   9.272   4.565   8.365  0.1037  0.1612  0.1244
  600loPI   C6A 9596   8.966   4.464   8.128  0.0645  0.3362  0.2163
  600loPI   C1B 9597   9.270   5.261  10.044  0.0022 -0.0355  0.0150
  600loPI   C2B 9598   9.097   5.292   9.638  0.0547  0.2745 -0.2696
  600loPI   C3B 9599   9.198   5.352   9.263  0.4041 -0.4702 -0.2361
  600loPI   C4B 9600   9.108   5.195   8.873  0.3336 -0.0875  0.1048
  601loPI    C1 9601  14.863  10.863  10.196  0.2586 -0.2831 -0.2139
  601loPI    C2 9602  14.549  10.623  10.258  0.1609 -0.0698  0.1452
  601loPI    C3 9603  14.786  10.725  10.563  0.2525  0.2189 -0.0186
  601loPI   PO4 9604  14.920  10.721   9.911  0.2799 -0.3455  0.0020
  601loPI   GL1 9605  14.802  10.498   9.518 -0.1589 -0.0009 -0.1964
  601loPI   GL2 9606  14.718  10.766   9.405 -0.1963  0.0307  0.0076
  601loPI   C1A 9607  14.899  10.327   9.097 -0.1014 -0.0028 -0.2709
  601loPI   C2A 9608  14.854  10.222   8.705 -0.1600  0.2280  0.1657
  601loPI   C3A 9609  15.018  10.377   8.335  0.1882  0.1292 -0.2237
  601loPI   C4A 9610  15.338  10.550   8.017  0.1074  0.2106 -0.0376
  601loPI   C5A 9611  15.122  10.712   7.578  0.1254 -0.2626  0.0522
  601loPI   C6A 9612  14.865  10.885   7.137 -0.2324 -0.2037  0.0450
  601loPI   C1B 9613  14.731  10.831   9.092  0.0739 -0.1432  0.0069
  601loPI   C2B 9614  14.647  10.817   8.659 -0.1894 -0.0445  0.1844
  601loPI   C3B 9615  14.801  10.855   8.222  0.0435 -0.1325  0.3790
  601loPI   C4B 9616  14.749  10.878   7.794 -0.3336 -0.2363  0.2195
  602loPI    C1 9617   2.818   8.655  10.643 -0.0701 -0.0805 -0.0870
  602loPI    C2 9618   2.512   8.864  10.793 -0.0021 -0.0169 -0.0364
  602loPI    C3 9619   2.444   8.518  10.605 -0.1005 -0.0275  0.0183
  602loPI   PO4 9620   3.037   8.771  10.512  0.2779 -0.0254  0.0237
  602loPI   GL1 9621   3.074   8.849  10.009  0.0518  0.1270 -0.0888
  602loPI   GL2 9622   3.071   9.136   9.918 -0.1389 -0.1599  0.2986
  602loPI   C1A 9623   3.278   8.630   9.696  0.0119 -0.0494  0.3442
  602loPI   C2A 9624   3.225   8.533   9.297  0.0095  0.0671 -0.1140
  602loPI   C3A 9625   3.237   8.608   8.850 -0.1870  0.2079  0.1543
  602loPI   C4A 9626   3.018   8.551   8.321  0.0057 -0.1904 -0.0720
  602loPI   C5A 9627   2.646   8.738   8.132 -0.2410  0.2882 -0.1349
  602loPI   C6A 9628   2.270   8.943   8.182  0.2672 -0.3044  0.1996
  602loPI   C1B 9629   3.029   9.077   9.499 -0.3495 -0.0395  0.0412
  602loPI   C2B 9630   3.116   9.081   9.137 -0.0621  0.0329  0.1503
  602loPI   C3B 9631   3.112   9.087   8.634 -0.3871  0.0706  0.0720
  602loPI   C4B 9632   3.165   8.994   8.212 -0.0483  0.2138  0.0886
  603loPI    C1 9633  15.291  14.704   9.814 -0.1124 -0.1142 -0.2308
  603loPI    C2 9634  15.005  14.664  10.090  0.1223 -0.3048 -0.0096
  603loPI    C3 9635  15.306  14.921  10.149  0.0797 -0.2158 -0.1719
  603loPI   PO4 9636  15.203  14.786   9.606  0.0760 -0.0315  0.0798
  603loPI   GL1 9637  15.207  14.588   9.225 -0.0286  0.3027 -0.1764
  603loPI   GL2 9638  14.867  14.786   9.183 -0.1196  0.0024  0.0972
  603loPI   C1A 9639  15.465  14.710   8.849 -0.0602 -0.1951 -0.3874
  603loPI   C2A 9640  15.487  14.482   8.547  0.1926 -0.0435 -0.0511
  603loPI   C3A 9641  15.490  14.594   8.191 -0.0199  0.1375 -0.1866
  603loPI   C4A 9642  15.259  14.594   7.729  0.1816 -0.1266 -0.2909
  603loPI   C5A 9643  14.923  14.671   7.363  0.1756  0.2407  0.0544
  603loPI   C6A 9644  14.731  14.777   6.977  0.3731 -0.3887 -0.0946
  603loPI   C1B 9645  14.990  14.762   8.711 -0.1442 -0.1103 -0.1136
  603loPI   C2B 9646  15.197  15.033   8.342  0.2424 -0.1485  0.1663
  603loPI   C3B 9647  15.438  15.036   7.928 -0.0491  0.1867  0.1790
  603loPI   C4B 9648  15.364  15.152   7.477  0.2195 -0.2157  0.1696
  604loPI    C1 9649   5.545   1.005  11.062  0.0021 -0.3293 -0.2814
  604loPI    C2 9650   5.286   1.106  10.775 -0.0216  0.2654 -0.0648
  604loPI    C3 9651   5.268   1.285  11.132  0.0881 -0.3730  0.2749
  604loPI   PO4 9652   5.777   1.058  10.968 -0.2180 -0.1754  0.1149
  604loPI   GL1 9653   6.109   1.097  10.502  0.0209  0.1247  0.1707
  604loPI   GL2 9654   5.728   0.955  10.507  0.3668 -0.0581  0.0169
  604loPI   C1A 9655   6.204   0.980  10.086  0.2020 -0.0050  0.1955
  604loPI   C2A 9656   6.222   1.122   9.540  0.1614  0.0442  0.2537
  604loPI   C3A 9657   6.140   1.141   9.112  0.1095 -0.0963 -0.1191
  604loPI   C4A 9658   6.099   1.061   8.660  0.1208 -0.1886  0.2054
  604loPI   C5A 9659   5.776   0.902   8.345  0.2279  0.1283 -0.0581
  604loPI   C6A 9660   5.633   1.021   7.931 -0.0692  0.0421  0.2767
  604loPI   C1B 9661   5.759   1.167  10.059 -0.2253 -0.0362  0.0380
  604loPI   C2B 9662   5.641   1.319   9.610  0.1665 -0.3279  0.0650
  604loPI   C3B 9663   5.695   1.341   9.121 -0.1789  0.1417 -0.2284
  604loPI   C4B 9664   5.660   1.311   8.707  0.0494 -0.1896  0.0114
  605loPI    C1 9665  10.389  15.740  10.495  0.0924  0.0195 -0.1521
  605loPI    C2 9666  10.464  15.347  10.505  0.1423  0.0316 -0.0385
  605loPI    C3 9667  10.362  15.540  10.840 -0.2373  0.0477 -0.1586
  605loPI   PO4 9668  10.238  15.800  10.202 -0.0138 -0.1063 -0.0626
  605loPI   GL1 9669  10.055  15.592   9.880 -0.1064 -0.2836  0.1162
  605loPI   GL2 9670  10.254  15.373   9.804 -0.5079  0.1146 -0.1281
  605loPI   C1A 9671  10.019  15.548   9.384 -0.2000 -0.0249 -0.1127
  605loPI   C2A 9672   9.926  15.574   8.887 -0.1885 -0.1089 -0.2483
  605loPI   C3A 9673   9.976  15.534   8.417  0.2180 -0.0809 -0.3243
  605loPI   C4A 9674  10.018  15.564   8.021  0.2082 -0.0043 -0.0266
  605loPI   C5A 9675  10.081  15.649   7.603 -0.0286  0.3845  0.1582
  605loPI   C6A 9676   9.928  15.985   7.367 -0.0653 -0.2687  0.0170
  605loPI   C1B 9677  10.132  15.099   9.372 -0.1790  0.1996  0.1944
  605loPI   C2B 9678  10.078  15.104   8.946 -0.2428  0.3951 -0.1224
  605loPI   C3B 9679  10.004  14.968   8.570 -0.0558  0.2736 -0.0442
  605loPI   C4B 9680  10.022  14.935   8.109 -0.0929 -0.1133  0.0110
  606loPI    C1 9681   5.914   0.197  11.186 -0.0417  0.3250 -0.0184
  606loPI    C2 9682   5.655   0.230  11.489 -0.0115  0.0658  0.0382
  606loPI    C3 9683   5.922  -0.068  11.485 -0.2076 -0.1129 -0.3903
  606loPI   PO4 9684   5.797   0.126  10.968 -0.0245 -0.3812  0.1790
  606loPI   GL1 9685   5.916   0.080  10.584  0.1992 -0.0431 -0.0559
  606loPI   GL2 9686   5.997   0.348  10.484 -0.1597  0.1631  0.2053
  606loPI   C1A 9687   5.939   0.142  10.063  0.0139 -0.2885  0.1661
  606loPI   C2A 9688   5.856   0.138   9.645  0.1291  0.0093 -0.0498
  606loPI   C3A 9689   5.919   0.289   9.159  0.1365  0.1383 -0.0489
  606loPI   C4A 9690   5.915   0.337   8.650  0.4358  0.0435 -0.1844
  606loPI   C5A 9691   6.142   0.583   8.397 -0.0548 -0.3710 -0.3031
  606loPI   C6A 9692   6.270   0.954   8.109 -0.1152  0.2021  0.1872
  606loPI   C1B 9693   5.891   0.604  10.181  0.0730 -0.5239 -0.1095
  606loPI   C2B 9694   5.818   0.746   9.711 -0.1341  0.2307 -0.2338
  606loPI   C3B 9695   5.777   0.849   9.383  0.1722 -0.0612  0.1359
  606loPI   C4B 9696   5.820   0.754   8.997  0.1110 -0.0188 -0.2477
  607loPI    C1 9697   4.286   7.045  11.043 -0.2146  0.2373  0.1427
  607loPI    C2 9698   4.143   6.677  11.103  0.4394 -0.0875 -0.1867
  607loPI    C3 9699   4.418   6.827  11.351  0.0805  0.2412  0.0223
  607loPI   PO4 9700   4.337   7.014  10.831  0.2793 -0.0404 -0.0258
  607loPI   GL1 9701   4.245   6.799  10.500  0.1371  0.0607  0.2719
  607loPI   GL2 9702   4.088   6.793  10.232  0.2634 -0.1828 -0.1800
  607loPI   C1A 9703   4.508   6.668  10.175  0.0484  0.1770 -0.0434
  607loPI   C2A 9704   4.517   6.518   9.665  0.0234 -0.2772 -0.1123
  607loPI   C3A 9705   4.505   6.526   9.320  0.0410  0.0796  0.4296
  607loPI   C4A 9706   4.502   6.547   8.853  0.0730 -0.2339 -0.0388
  607loPI   C5A 9707   4.384   6.602   8.415 -0.2553  0.0336 -0.1410
  607loPI   C6A 9708   4.084   6.413   8.016  0.2758 -0.2252 -0.2204
  607loPI   C1B 9709   4.047   6.798   9.811  0.0944  0.0710 -0.0374
  607loPI   C2B 9710   3.989   6.864   9.447 -0.0653  0.1196  0.0435
  607loPI   C3B 9711   4.079   6.796   9.097  0.0769 -0.1626 -0.3944
  607loPI   C4B 9712   3.945   6.838   8.772 -0.3580  0.3622 -0.1315
  608loPI    C1 9713   7.723   5.239  11.021  0.0916  0.1455 -0.1008
  608loPI    C2 9714   7.619   4.908  11.219 -0.4093  0.3388 -0.0267
  608loPI    C3 9715   7.804   5.206  11.411  0.0083  0.1250 -0.0850
  608loPI   PO4 9716   7.669   5.101  10.722 -0.3499  0.0000 -0.0578
  608loPI   GL1 9717   7.419   4.962  10.342 -0.1260  0.1349  0.2258
  608loPI   GL2 9718   7.590   4.702  10.445  0.0640 -0.0928  0.2774
  608loPI   C1A 9719   7.437   4.909   9.852  0.0166 -0.1761 -0.3753
  608loPI   C2A 9720   7.295   5.032   9.401 -0.1321  0.0938 -0.0638
  608loPI   C3A 9721   7.340   5.083   8.984  0.1085  0.0680 -0.1340
  608loPI   C4A 9722   7.374   5.100   8.574  0.0167 -0.1918 -0.0355
  608loPI   C5A 9723   7.478   4.931   8.206  0.0091  0.0927 -0.0019
  608loPI   C6A 9724   7.824   5.022   8.026 -0.3209 -0.2423  0.2409
  608loPI   C1B 9725   7.833   4.690  10.071  0.2859 -0.0484  0.0905
  608loPI   C2B 9726   7.958   4.751   9.719  0.1171 -0.0892 -0.0020
  608loPI   C3B 9727   7.902   4.838   9.370 -0.1273 -0.1948 -0.0620
  608loPI   C4B 9728   7.787   4.832   8.909 -0.0454 -0.2273  0.1204
  609POPI    C1 9729   4.234  12.281  10.596  0.0588  0.0702 -0.0766
  609POPI    C2 9730   3.925  12.178  10.363  0.0559 -0.0676 -0.0134
  609POPI    C3 9731   3.899  12.136  10.760  0.0246  0.2581  0.0217
  609POPI   PO4 9732   4.261  12.541  10.519 -0.0879 -0.1323 -0.1793
  609POPI   GL1 9733   4.270  12.781  10.092  0.1456  0.3877 -0.1298
  609POPI   GL2 9734   4.008  12.712   9.866  0.1574  0.1121  0.0222
  609POPI   C1A 9735   4.626  12.932   9.845 -0.0241  0.0936  0.2860
  609POPI   D2A 9736   4.788  12.938   9.464 -0.0269  0.0372  0.4479
  609POPI   C3A 9737   4.775  12.866   8.975  0.0896 -0.0970 -0.1918
  609POPI   C4A 9738   4.841  13.061   8.522 -0.0775  0.1947  0.1131
  609POPI   C1B 9739   4.201  12.970   9.519 -0.1760 -0.1595  0.2573
  609POPI   C2B 9740   4.354  13.032   9.063  0.2502 -0.1498  0.1432
  609POPI   C3B 9741   4.321  13.037   8.613  0.0785 -0.0331  0.1522
  609POPI   C4B 9742   4.064  13.141   8.240 -0.0451  0.1027 -0.2760
  610POPI    C1 9743  12.460   2.105  10.439 -0.0643  0.2575 -0.1447
  610POPI    C2 9744  12.508   2.498  10.491  0.0069  0.2409 -0.0829
  610POPI    C3 9745  12.764   2.242  10.660  0.0928  0.1761 -0.3088
  610POPI   PO4 9746  12.428   2.074  10.193  0.0113 -0.0939 -0.1441
  610POPI   GL1 9747  12.554   2.190   9.837 -0.1612  0.2062  0.1773
  610POPI   GL2 9748  12.583   1.970   9.627 -0.2423 -0.0623 -0.3368
  610POPI   C1A 9749  12.395   2.411   9.494  0.1592 -0.1320  0.0486
  610POPI   D2A 9750  12.448   2.621   9.161  0.2108  0.0979 -0.0007
  610POPI   C3A 9751  12.370   2.459   8.747 -0.2962 -0.2526 -0.0291
  610POPI   C4A 9752  12.280   2.596   8.363 -0.0199 -0.0406  0.1248
  610POPI   C1B 9753  12.589   2.022   9.204  0.1847  0.1015  0.0882
  610POPI   C2B 9754  12.394   1.996   8.849  0.2008 -0.1119  0.2163
  610POPI   C3B 9755  12.482   1.982   8.410  0.2641  0.1580 -0.1908
  610POPI   C4B 9756  12.303   2.178   8.100 -0.1683 -0.2066 -0.1159
  611POPI    C1 9757  18.353  18.146  10.088  0.0986  0.1407  0.1490
  611POPI    C2 9758  18.633  17.894  10.223 -0.1625 -0.0524  0.3389
  611POPI    C3 9759  18.245  17.812  10.279 -0.2629  0.1585 -0.0166
  611POPI   PO4 9760  18.454  18.213   9.806 -0.0866  0.1946 -0.0970
  611POPI   GL1 9761  18.577  17.967   9.488  0.2242 -0.0441  0.2061
  611POPI   GL2 9762  18.834  18.175   9.544  0.0138 -0.0499 -0.1122
  611POPI   C1A 9763  18.824  17.834   9.088  0.0063 -0.2131  0.1115
  611POPI   D2A 9764  19.067  17.997   8.768 -0.1159  0.3585 -0.3189
  611POPI   C3A 9765  19.176  18.041   8.392  0.0897 -0.0585  0.1663
  611POPI   C4A 9766  19.232  17.925   7.994 -0.2614 -0.1912 -0.3680
  611POPI   C1B 9767  18.709  18.346   9.125 -0.0723 -0.0943  0.2155
  611POPI   C2B 9768  18.894  18.472   8.667  0.0330  0.4415 -0.0865
  611POPI   C3B 9769  19.131  18.516   8.284  0.1064 -0.1528  0.3823
  611POPI   C4B 9770  19.272  18.663   7.929 -0.2203  0.1366  0.2530
  612POPI    C1 9771  11.553   7.497  10.649  0.0794 -0.1904 -0.0661
  612POPI    C2 9772  11.312   7.244  10.844 -0.0177 -0.0477  0.0006
  612POPI    C3 9773  11.707   7.236  10.910 -0.0445 -0.0330  0.1679
  612POPI   PO4 9774  11.502   7.538  10.447  0.2870 -0.1753 -0.0804
  612POPI   GL1 9775  11.470   7.793  10.108  0.2044 -0.0108 -0.0973
  612POPI   GL2 9776  11.582   8.087  10.096  0.2030 -0.0064  0.3637
  612POPI   C1A 9777  11.495   7.709   9.676 -0.3304  0.0783 -0.0730
  612POPI   D2A 9778  11.444   7.596   9.262 -0.1493  0.2737 -0.2717
  612POPI   C3A 9779  11.654   7.780   8.916 -0.0543 -0.0302 -0.2385
  612POPI   C4A 9780  11.622   7.751   8.407  0.0757 -0.0566 -0.4759
  612POPI   C1B 9781  11.593   8.333   9.664  0.1123  0.1234 -0.0535
  612POPI   C2B 9782  11.469   8.170   9.273 -0.0321  0.1972 -0.3833
  612POPI   C3B 9783  11.585   8.259   8.932  0.0004 -0.1508  0.0138
  612POPI   C4B 9784  11.552   8.247   8.533 -0.0639 -0.1088  0.2090
  613POPI    C1 9785   3.340   2.992  11.034 -0.1526  0.0180 -0.1182
  613POPI    C2 9786   3.099   3.307  10.979 -0.0291  0.1589  0.1293
  613POPI    C3 9787   3.467   3.360  11.126  0.0209 -0.0944  0.1004
  613POPI   PO4 9788   3.215   2.870  10.864 -0.1217 -0.0240 -0.1284
  613POPI   GL1 9789   3.240   2.671  10.431  0.0217 -0.0958 -0.2774
  613POPI   GL2 9790   3.156   2.431  10.410 -0.2453 -0.1421  0.3710
  613POPI   C1A 9791   3.172   2.816  10.070 -0.1243 -0.1124  0.0369
  613POPI   D2A 9792   3.297   2.851   9.657  0.2482  0.3980 -0.1007
  613POPI   C3A 9793   3.212   2.890   9.221 -0.4274  0.2601  0.1890
  613POPI   C4A 9794   3.247   2.835   8.835 -0.0535 -0.2636  0.1768
  613POPI   C1B 9795   3.210   2.339   9.985  0.1540  0.2426 -0.3703
  613POPI   C2B 9796   3.313   2.372   9.565  0.1539 -0.1821  0.0696
  613POPI   C3B 9797   3.225   2.392   9.208 -0.2252  0.4703 -0.0491
  613POPI   C4B 9798   3.299   2.296   8.761  0.0022  0.2293  0.2933
  614POPI    C1 9799  10.478   0.461  10.394 -0.0375  0.2001 -0.0001
  614POPI    C2 9800  10.804   0.689  10.438  0.0743  0.0586 -0.0881
  614POPI    C3 9801  10.641   0.509  10.756  0.2379 -0.0826 -0.0830
  614POPI   PO4 9802  10.470   0.255  10.190 -0.0363 -0.1471  0.0902
  614POPI   GL1 9803  10.206   0.227   9.947  0.0777  0.2042 -0.1645
  614POPI   GL2 9804  10.157   0.517   9.724  0.1050 -0.2426 -0.1342
  614POPI   C1A 9805  10.127   0.040   9.590  0.0663 -0.1391 -0.0480
  614POPI   D2A 9806  10.156   0.018   9.082 -0.1757 -0.1366 -0.2425
  614POPI   C3A 9807  10.012   0.105   8.710 -0.4420 -0.0941 -0.3607
  614POPI   C4A 9808   9.991   0.109   8.281  0.1741  0.4205 -0.0740
  614POPI   C1B 9809  10.092   0.462   9.284  0.0789  0.1801  0.2047
  614POPI   C2B 9810   9.947   0.587   8.879 -0.0608  0.0304 -0.1002
  614POPI   C3B 9811   9.787   0.680   8.473 -0.1177 -0.0094  0.1448
  614POPI   C4B 9812   9.490   0.787   8.142  0.1183 -0.2630  0.2490
  615POPI    C1 9813  15.836  13.034   9.755 -0.0541  0.2090 -0.1655
  615POPI    C2 9814  15.855  13.331  10.022  0.1047 -0.0282  0.0939
  615POPI    C3 9815  15.692  12.981  10.125  0.1299 -0.1088 -0.1351
  615POPI   PO4 9816  15.755  13.154   9.575 -0.1734  0.2864 -0.0281
  615POPI   GL1 9817  15.891  13.436   9.171  0.0779  0.1497  0.2463
  615POPI   GL2 9818  15.929  13.791   9.127  0.1309 -0.2233  0.0508
  615POPI   C1A 9819  15.989  13.200   8.732 -0.2958 -0.1349 -0.1727
  615POPI   D2A 9820  15.838  13.042   8.335 -0.3206 -0.0017  0.3051
  615POPI   C3A 9821  15.950  12.958   7.909  0.0930 -0.3070  0.0919
  615POPI   C4A 9822  16.030  12.636   7.533 -0.2688 -0.0777  0.0257
  615POPI   C1B 9823  16.196  13.676   8.659  0.2037 -0.2057  0.1912
  615POPI   C2B 9824  16.253  13.585   8.226  0.1777  0.4229  0.0330
  615POPI   C3B 9825  16.250  13.725   7.902  0.0910  0.0627 -0.1043
  615POPI   C4B 9826  16.058  13.728   7.536 -0.0883  0.1645 -0.0187
  616POPI    C1 9827   5.712   9.597  11.224 -0.0976  0.0887  0.0528
  616POPI    C2 9828   5.810   9.538  11.607  0.1010 -0.4118 -0.0668
  616POPI    C3 9829   5.426   9.523  11.493 -0.0020  0.1501  0.1723
  616POPI   PO4 9830   5.831   9.544  11.028  0.1349 -0.1552 -0.1148
  616POPI   GL1 9831   5.816   9.552  10.609 -0.1728  0.2405 -0.1837
  616POPI   GL2 9832   5.662   9.483  10.337 -0.3030  0.0386  0.4049
  616POPI   C1A 9833   6.069   9.822  10.175  0.2551 -0.0365 -0.2090
  616POPI   D2A 9834   6.019   9.905   9.774  0.0450  0.0931 -0.1144
  616POPI   C3A 9835   6.105   9.805   9.335 -0.1549  0.0414 -0.2906
  616POPI   C4A 9836   6.269   9.798   8.910  0.0860 -0.2568  0.1438
  616POPI   C1B 9837   5.738   9.553   9.917 -0.1798 -0.2771  0.0110
  616POPI   C2B 9838   5.816   9.463   9.489 -0.0286 -0.2612  0.1764
  616POPI   C3B 9839   5.883   9.506   8.944  0.0429  0.2259  0.0185
  616POPI   C4B 9840   6.012   9.561   8.550 -0.1451  0.0849  0.1198
  617POPI    C1 9841  16.215   8.260  10.384  0.0058  0.0510  0.2044
  617POPI    C2 9842  16.555   8.462  10.442  0.0804 -0.0607  0.1582
  617POPI    C3 9843  16.454   8.165  10.690  0.0115 -0.0213  0.1777
  617POPI   PO4 9844  16.160   8.394  10.097 -0.0658  0.0001 -0.1635
  617POPI   GL1 9845  16.169   8.203   9.659 -0.0563  0.1813 -0.0763
  617POPI   GL2 9846  16.254   7.821   9.530  0.1718 -0.3090 -0.0133
  617POPI   C1A 9847  16.069   8.355   9.189  0.2218  0.0692 -0.0501
  617POPI   D2A 9848  16.155   8.318   8.793 -0.0792  0.1104 -0.0603
  617POPI   C3A 9849  16.213   8.408   8.326 -0.0148  0.0102 -0.2779
  617POPI   C4A 9850  16.208   8.502   7.925 -0.1433 -0.0114 -0.0055
  617POPI   C1B 9851  16.230   7.810   9.065  0.1414 -0.3460  0.2581
  617POPI   C2B 9852  16.104   7.828   8.608 -0.1827  0.1621 -0.0518
  617POPI   C3B 9853  15.783   7.628   8.397 -0.2608  0.2090 -0.1419
  617POPI   C4B 9854  15.854   7.425   8.047 -0.4384 -0.0216 -0.2929
  618POPI    C1 9855   7.328  11.363  10.942  0.0893  0.1879  0.0706
  618POPI    C2 9856   6.937  11.345  10.862  0.0912  0.2642  0.0421
  618POPI    C3 9857   7.066  11.305  11.239  0.0896 -0.1997 -0.0006
  618POPI   PO4 9858   7.409  11.251  10.669 -0.3685 -0.3490  0.0672
  618POPI   GL1 9859   7.132  11.348  10.371  0.2701  0.1755 -0.2413
  618POPI   GL2 9860   6.989  11.645  10.215 -0.0828 -0.0051 -0.0713
  618POPI   C1A 9861   7.323  11.248   9.969  0.4666 -0.0160  0.2047
  618POPI   D2A 9862   7.300  11.358   9.623 -0.0633 -0.0512  0.1682
  618POPI   C3A 9863   7.194  11.279   9.171 -0.0406  0.0531 -0.1873
  618POPI   C4A 9864   7.263  11.418   8.842 -0.0078 -0.1177  0.1663
  618POPI   C1B 9865   6.838  11.529   9.849  0.0907 -0.2473 -0.1495
  618POPI   C2B 9866   6.773  11.483   9.477  0.3587  0.1245 -0.1681
  618POPI   C3B 9867   6.769  11.486   9.003  0.2034 -0.3338 -0.1191
  618POPI   C4B 9868   6.858  11.390   8.547 -0.0809 -0.3618  0.3620
  619POPI    C1 9869   8.015   0.247  10.939 -0.1639 -0.0184 -0.2045
  619POPI    C2 9870   7.863   0.168  11.301 -0.1438 -0.1221 -0.2184
  619POPI    C3 9871   8.140   0.453  11.258 -0.0862 -0.1657 -0.1386
  619POPI   PO4 9872   7.933   0.121  10.715  0.0361 -0.1180 -0.0232
  619POPI   GL1 9873   7.861   0.004  10.319  0.0803 -0.3921  0.1010
  619POPI   GL2 9874   8.153   0.111  10.161 -0.0239 -0.0805 -0.0408
  619POPI   C1A 9875   7.772  -0.083   9.870  0.1104 -0.1070 -0.1412
  619POPI   D2A 9876   7.759  -0.050   9.437  0.0700 -0.3180  0.1801
  619POPI   C3A 9877   7.693   0.035   8.994 -0.2764  0.1630  0.2002
  619POPI   C4A 9878   7.687  -0.032   8.674 -0.2345  0.0784  0.0752
  619POPI   C1B 9879   8.216   0.347   9.818 -0.1454  0.0499 -0.2109
  619POPI   C2B 9880   8.175   0.324   9.361  0.1744 -0.0034  0.1347
  619POPI   C3B 9881   8.071   0.307   8.870  0.2218  0.0544 -0.0745
  619POPI   C4B 9882   7.976   0.366   8.340  0.0498  0.0303  0.0529
  620POPI    C1 9883   1.206   4.504  10.558 -0.0745  0.1001 -0.1668
  620POPI    C2 9884   1.014   4.403  10.223 -0.1816 -0.1419 -0.0349
  620POPI    C3 9885   1.274   4.148  10.388  0.3123  0.2076 -0.2483
  620POPI   PO4 9886   1.330   4.727  10.554 -0.0972 -0.0976 -0.1449
  620POPI   GL1 9887   1.637   4.888  10.164  0.4166  0.2076 -0.1055
  620POPI   GL2 9888   1.465   4.542  10.086  0.3078  0.1684 -0.0692
  620POPI   C1A 9889   1.399   5.093   9.797  0.1775  0.3530 -0.0523
  620POPI   D2A 9890   1.431   5.035   9.395 -0.0442  0.2438  0.0250
  620POPI   C3A 9891   1.451   4.970   8.955  0.2796 -0.0574 -0.0657
  620POPI   C4A 9892   1.469   5.000   8.514 -0.0537  0.0904 -0.0599
  620POPI   C1B 9893   1.490   4.543   9.770  0.3790  0.2028  0.3100
  620POPI   C2B 9894   1.454   4.540   9.414 -0.1495  0.1142 -0.0244
  620POPI   C3B 9895   1.481   4.497   9.068 -0.1459  0.0247 -0.0873
  620POPI   C4B 9896   1.545   4.504   8.663  0.1039 -0.1520 -0.1845
  621POPI    C1 9897  15.157  11.731   9.829  0.1943 -0.0317 -0.0810
  621POPI    C2 9898  15.253  11.651  10.209 -0.1745  0.1275  0.0500
  621POPI    C3 9899  15.205  12.030  10.090  0.2358  0.0969 -0.2339
  621POPI   PO4 9900  15.391  11.438   9.711  0.4728  0.0593 -0.1793
  621POPI   GL1 9901  15.404  11.274   9.300 -0.0039  0.1299  0.0178
  621POPI   GL2 9902  15.731  11.313   9.228  0.1936  0.0591 -0.0466
  621POPI   C1A 9903  15.092  11.177   8.882 -0.4009  0.0316 -0.1237
  621POPI   D2A 9904  15.241  11.009   8.438  0.0297 -0.0451  0.3055
  621POPI   C3A 9905  15.202  11.135   8.055  0.0116 -0.2184  0.0397
  621POPI   C4A 9906  15.262  11.613   7.820  0.1706 -0.1377  0.0230
  621POPI   C1B 9907  15.528  11.364   8.811 -0.0621 -0.0447 -0.1469
  621POPI   C2B 9908  15.458  11.460   8.369 -0.3610  0.2804  0.0800
  621POPI   C3B 9909  15.701  11.430   8.016 -0.0156  0.1090  0.1582
  621POPI   C4B 9910  15.761  11.562   7.547 -0.1181 -0.0382 -0.3133
  622POPI    C1 9911   6.759   2.914  11.284  0.1674  0.0939 -0.0454
  622POPI    C2 9912   6.976   3.178  11.492  0.1897  0.1563 -0.1475
  622POPI    C3 9913   7.077   2.791  11.493  0.0920  0.1299  0.0920
  622POPI   PO4 9914   6.679   2.908  11.037 -0.0907  0.4179  0.0081
  622POPI   GL1 9915   6.699   3.108  10.673  0.1143 -0.3479 -0.1542
  622POPI   GL2 9916   6.863   2.852  10.571  0.1340 -0.1726  0.1962
  622POPI   C1A 9917   6.417   3.198  10.417 -0.2808  0.0655  0.4048
  622POPI   D2A 9918   6.356   2.932  10.098 -0.2523 -0.1573 -0.1503
  622POPI   C3A 9919   6.410   3.048   9.719  0.0913  0.0231  0.2415
  622POPI   C4A 9920   6.356   2.896   9.247 -0.4212 -0.1739 -0.0979
  622POPI   C1B 9921   6.914   3.135  10.160 -0.1490 -0.1175 -0.0962
  622POPI   C2B 9922   6.741   3.347   9.877  0.1839 -0.0083  0.1306
  622POPI   C3B 9923   6.771   3.333   9.461 -0.1470 -0.1817  0.0160
  622POPI   C4B 9924   6.807   3.364   9.080  0.0710  0.0878  0.0209
  623POPI    C1 9925   2.678  13.816  10.723 -0.0100  0.1404  0.0159
  623POPI    C2 9926   2.638  13.492  10.491 -0.0120  0.0591  0.1293
  623POPI    C3 9927   2.807  13.460  10.852  0.0785  0.2027  0.1004
  623POPI   PO4 9928   2.755  13.955  10.453  0.1308  0.1464  0.0510
  623POPI   GL1 9929   2.988  13.813  10.012 -0.0159 -0.3819  0.1310
  623POPI   GL2 9930   2.812  13.615   9.999 -0.1687 -0.1029  0.0559
  623POPI   C1A 9931   3.269  13.807   9.703 -0.1080 -0.2558 -0.0456
  623POPI   D2A 9932   3.666  13.853   9.505  0.0200  0.2534 -0.0720
  623POPI   C3A 9933   3.667  13.738   9.193  0.2833 -0.0073 -0.2008
  623POPI   C4A 9934   3.614  13.751   8.767  0.2589  0.0616  0.1629
  623POPI   C1B 9935   2.728  13.496   9.560 -0.0622 -0.0238  0.2134
  623POPI   C2B 9936   2.736  13.535   9.179 -0.2014 -0.2887 -0.2548
  623POPI   C3B 9937   2.689  13.682   8.764  0.3761 -0.0553 -0.1220
  623POPI   C4B 9938   2.608  13.815   8.355  0.1864  0.4309  0.1570
  624POPI    C1 9939   9.104  12.050  10.842 -0.0924 -0.0215 -0.3694
  624POPI    C2 9940   8.904  11.709  10.782 -0.0690 -0.0620 -0.2213
  624POPI    C3 9941   9.250  11.705  10.982 -0.1335  0.0658 -0.1055
  624POPI   PO4 9942   9.000  12.202  10.638 -0.1633  0.0709 -0.0224
  624POPI   GL1 9943   8.939  12.040  10.157 -0.4161 -0.0298 -0.2902
  624POPI   GL2 9944   9.121  12.363  10.190  0.0297  0.2053 -0.1288
  624POPI   C1A 9945   8.772  11.877   9.765  0.2928  0.0402  0.0103
  624POPI   D2A 9946   8.574  11.764   9.413  0.2360 -0.1807 -0.0608
  624POPI   C3A 9947   8.565  11.792   8.930 -0.2692 -0.0115  0.4387
  624POPI   C4A 9948   8.525  11.842   8.485 -0.0236 -0.1593 -0.0014
  624POPI   C1B 9949   9.156  12.178   9.718  0.2264 -0.1086 -0.1889
  624POPI   C2B 9950   9.037  12.084   9.318 -0.0638  0.3278  0.3533
  624POPI   C3B 9951   9.035  12.065   8.874 -0.0983 -0.2101  0.1142
  624POPI   C4B 9952   8.991  12.023   8.435 -0.1478  0.1442  0.0616
  625DPPI    C1 9953  16.013  16.444   9.922  0.2574 -0.0091  0.1644
  625DPPI    C2 9954  16.105  16.830   9.976 -0.1525  0.1422 -0.1569
  625DPPI    C3 9955  15.838  16.652  10.215  0.3539 -0.0747  0.2694
  625DPPI   PO4 9956  15.870  16.390   9.680 -0.0223 -0.1005  0.2079
  625DPPI   GL1 9957  16.029  16.300   9.305 -0.2564  0.3867 -0.0915
  625DPPI   GL2 9958  15.912  16.022   9.263 -0.2104 -0.3628  0.1201
  625DPPI   C1A 9959  16.314  16.481   8.973  0.0929  0.0563 -0.0460
  625DPPI   C2A 9960  16.334  16.525   8.619 -0.0394  0.0152  0.5556
  625DPPI   C3A 9961  16.320  16.667   8.248 -0.1770 -0.2077  0.1293
  625DPPI   C4A 9962  16.233  16.831   7.904 -0.0002 -0.0237  0.1019
  625DPPI   C1B 9963  16.149  16.066   8.834 -0.1224  0.0246 -0.0653
  625DPPI   C2B 9964  16.104  16.093   8.426 -0.1991  0.1932 -0.2649
  625DPPI   C3B 9965  16.133  16.286   8.059 -0.3019 -0.2952  0.2268
  625DPPI   C4B 9966  16.192  16.117   7.644  0.1367 -0.0879  0.1206
  626DPPI    C1 9967   9.147   3.829  10.860  0.1399  0.2357 -0.0806
  626DPPI    C2 9968   9.094   3.936  11.242 -0.1824 -0.2046  0.0065
  626DPPI    C3 9969   9.387   3.682  11.145 -0.0385 -0.0166 -0.0568
  626DPPI   PO4 9970   8.915   3.876  10.682  0.0891  0.4966 -0.1986
  626DPPI   GL1 9971   8.852   3.940  10.302 -0.1165 -0.1927  0.2631
  626DPPI   GL2 9972   8.870   4.272  10.351 -0.2299  0.0009  0.2225
  626DPPI   C1A 9973   8.999   3.955   9.861  0.0891  0.3433  0.0852
  626DPPI   C2A 9974   8.910   4.026   9.383 -0.2709  0.1291 -0.0040
  626DPPI   C3A 9975   8.925   3.944   9.026  0.0444  0.0841  0.1795
  626DPPI   C4A 9976   8.991   3.852   8.682 -0.0241  0.1473  0.0029
  626DPPI   C1B 9977   8.867   4.418  10.009  0.2652 -0.0879 -0.2122
  626DPPI   C2B 9978   8.846   4.493   9.540 -0.2490  0.2120  0.0694
  626DPPI   C3B 9979   8.841   4.499   9.110  0.3075  0.1226  0.0874
  626DPPI   C4B 9980   8.886   4.363   8.661 -0.2235  0.1204 -0.0259
  627DPPI    C1 9981   5.085  12.055  10.820 -0.0613 -0.2005  0.0320
  627DPPI    C2 9982   5.393  11.882  11.008  0.1499 -0.1321 -0.2458
  627DPPI    C3 9983   5.022  11.745  11.066  0.2171 -0.1495  0.1719
  627DPPI   PO4 9984   5.139  12.101  10.527 -0.1011 -0.0548 -0.2096
  627DPPI   GL1 9985   5.192  11.973  10.134  0.1715 -0.0813 -0.1391
  627DPPI   GL2 9986   4.933  12.047   9.953  0.0049  0.1996 -0.1728
  627DPPI   C1A 9987   5.429  12.088   9.702  0.0511  0.0619  0.1513
  627DPPI   C2A 9988   5.427  12.138   9.191 -0.2657  0.0710 -0.2214
  627DPPI   C3A 9989   5.374  12.114   8.716 -0.0182  0.0642  0.0006
  627DPPI   C4A 9990   5.499  12.279   8.274  0.4424  0.1107 -0.1955
  627DPPI   C1B 9991   4.975  11.844   9.632  0.1748  0.1325  0.1380
  627DPPI   C2B 9992   5.055  11.816   9.259  0.1697 -0.0120  0.2546
  627DPPI   C3B 9993   4.958  11.841   8.863  0.1131  0.1277  0.4055
  627DPPI   C4B 9994   4.992  11.670   8.476 -0.0774 -0.5745  0.0478
  628DPPI    C1 9995   5.767  13.165  10.773 -0.0335  0.0677  0.0201
  628DPPI    C2 9996   5.397  13.134  10.920 -0.0901 -0.2671 -0.1831
  628DPPI    C3 9997   5.665  13.367  11.103 -0.4056 -0.0019 -0.0480
  628DPPI   PO4 9998   5.726  13.096  10.496 -0.2558  0.2406 -0.1370
  628DPPI   GL1 9999   5.935  13.184  10.136  0.2394  0.1108 -0.2735
  628DPPI   GL210000   6.170  13.149  10.011  0.0335 -0.0917  0.1181
  628DPPI   C1A10001   5.738  12.829   9.858  0.1254 -0.4883  0.0567
  628DPPI   C2A10002   5.760  12.950   9.484  0.0167  0.0069 -0.3412
  628DPPI   C3A10003   5.683  12.997   9.077 -0.0026  0.1610  0.1066
  628DPPI   C4A10004   5.719  12.943   8.651 -0.0671  0.1808  0.3187
  628DPPI   C1B10005   6.124  13.257   9.604 -0.1766 -0.2836  0.3434
  628DPPI   C2B10006   6.065  13.406   9.240  0.0433  0.0546 -0.0176
  628DPPI   C3B10007   6.159  13.257   8.805 -0.1259 -0.2521  0.1465
  628DPPI   C4B10008   6.132  13.252   8.420 -0.2941 -0.2476  0.0006
  629DPPI    C110009   1.461   6.327  10.799  0.1204  0.0903  0.0065
  629DPPI    C210010   1.338   5.984  10.964  0.1422  0.0027 -0.1575
  629DPPI    C310011   1.144   6.324  11.043  0.1528 -0.0378  0.0480
  629DPPI   PO410012   1.409   6.340  10.519  0.0513  0.0358  0.0114
  629DPPI   GL110013   1.596   6.520  10.164  0.0319  0.2744  0.0894
  629DPPI   GL210014   1.893   6.530  10.210  0.1556  0.1085  0.2965
  629DPPI   C1A10015   1.671   6.370   9.710  0.0366 -0.0178 -0.1700
  629DPPI   C2A10016   1.687   6.259   9.215 -0.0680  0.1716  0.0153
  629DPPI   C3A10017   1.702   6.359   8.822 -0.2256  0.0412  0.1226
  629DPPI   C4A10018   1.860   6.184   8.484  0.0530 -0.0827 -0.0121
  629DPPI   C1B10019   2.112   6.546   9.868  0.1252 -0.0394  0.4106
  629DPPI   C2B10020   2.112   6.621   9.385 -0.0499  0.1689 -0.1176
  629DPPI   C3B10021   2.246   6.633   9.022  0.1541  0.1678  0.3478
  629DPPI   C4B10022   2.063   6.724   8.636  0.0699 -0.1570  0.0579
  630DPPI    C110023  18.448  14.368   9.790  0.0641  0.3150  0.2448
  630DPPI    C210024  18.298  14.205  10.123  0.1735  0.1341  0.2071
  630DPPI    C310025  18.185  14.573  10.011  0.1953  0.2276  0.4846
  630DPPI   PO410026  18.535  14.122   9.654  0.0644 -0.1473 -0.0937
  630DPPI   GL110027  18.513  13.789   9.399  0.1439 -0.2649  0.0394
  630DPPI   GL210028  18.191  14.119   9.274  0.0407  0.0084 -0.0708
  630DPPI   C1A10029  18.435  13.704   9.030 -0.0065  0.0108 -0.2557
  630DPPI   C2A10030  18.433  13.708   8.586  0.0024  0.0967 -0.0634
  630DPPI   C3A10031  18.432  13.717   8.106 -0.1413  0.2386  0.0274
  630DPPI   C4A10032  18.062  13.728   7.956 -0.2089  0.0974  0.2597
  630DPPI   C1B10033  18.051  14.040   8.891  0.1008 -0.1709 -0.1387
  630DPPI   C2B10034  18.027  14.105   8.507  0.2849  0.2164  0.0519
  630DPPI   C3B10035  18.177  14.195   8.176 -0.1819 -0.0550  0.0339
  630DPPI   C4B10036  18.333  14.141   7.742  0.1190  0.1184  0.1977
  631DPPI    C110037   8.249   5.378  10.865 -0.1208  0.2324 -0.0767
  631DPPI    C210038   8.061   5.558  11.169  0.1858  0.1920  0.1412
  631DPPI    C310039   8.234   5.202  11.224 -0.5081 -0.2386 -0.3121
  631DPPI   PO410040   8.375   5.573  10.699  0.1202 -0.2836 -0.5367
  631DPPI   GL110041   8.348   5.632  10.309 -0.2529 -0.0810  0.3953
  631DPPI   GL210042   8.574   5.939  10.337  0.1526 -0.2266 -0.0742
  631DPPI   C1A10043   8.199   5.574  10.010  0.1807  0.4496 -0.1640
  631DPPI   C2A10044   8.155   5.553   9.612 -0.1575 -0.0571 -0.3217
  631DPPI   C3A10045   8.143   5.687   9.195  0.1153  0.1519 -0.1404
  631DPPI   C4A10046   8.135   5.703   8.774 -0.0881  0.0473  0.2640
  631DPPI   C1B10047   8.541   5.893   9.801 -0.5193 -0.1996 -0.2207
  631DPPI   C2B10048   8.578   5.978   9.397  0.1317  0.0330  0.5721
  631DPPI   C3B10049   8.565   5.952   8.899  0.1592 -0.1204 -0.1171
  631DPPI   C4B10050   8.557   5.759   8.525 -0.4114  0.3131 -0.2056
  632DPPI    C110051   7.761  11.692  10.641  0.0667  0.2840  0.3928
  632DPPI    C210052   7.876  11.347  10.808  0.2529  0.2030  0.1054
  632DPPI    C310053   7.734  11.643  11.037  0.1752 -0.0303  0.3644
  632DPPI   PO410054   7.985  11.792  10.487 -0.1511  0.0196  0.2492
  632DPPI   GL110055   8.183  11.682  10.074  0.0028  0.1462 -0.1423
  632DPPI   GL210056   8.504  11.592  10.004  0.1239 -0.0639  0.1163
  632DPPI   C1A10057   7.767  11.690   9.803  0.5263  0.4423  0.0160
  632DPPI   C2A10058   7.641  11.648   9.324  0.0323 -0.1164  0.0988
  632DPPI   C3A10059   7.777  11.661   8.948 -0.3083 -0.2495 -0.1992
  632DPPI   C4A10060   7.668  11.603   8.607 -0.0761  0.0434 -0.2156
  632DPPI   C1B10061   8.217  11.425   9.664  0.0289 -0.1706 -0.2983
  632DPPI   C2B10062   8.201  11.457   9.305  0.1722  0.1048  0.2249
  632DPPI   C3B10063   8.193  11.529   8.720  0.0961  0.0172  0.0472
  632DPPI   C4B10064   7.922  11.308   8.277  0.4942  0.1779 -0.2920
  633DPPI    C110065   0.785   1.001  10.328 -0.1711 -0.0763  0.0735
  633DPPI    C210066   0.726   1.101  10.711 -0.1319  0.0306  0.0519
  633DPPI    C310067   1.074   1.187  10.533 -0.1137 -0.1069  0.0204
  633DPPI   PO410068   0.456   0.917  10.205  0.0366  0.1573 -0.0896
  633DPPI   GL110069   0.303   0.755   9.870  0.1879 -0.0612 -0.5393
  633DPPI   GL210070   0.652   0.641   9.752  0.0114  0.0702 -0.2404
  633DPPI   C1A10071   0.256   0.492   9.473  0.0452 -0.1883 -0.0728
  633DPPI   C2A10072   0.385   0.347   9.023 -0.1046 -0.2629 -0.5456
  633DPPI   C3A10073   0.343   0.497   8.659 -0.0781  0.1571  0.2348
  633DPPI   C4A10074   0.511   0.474   8.268  0.0516 -0.0712  0.2237
  633DPPI   C1B10075   0.675   0.837   9.300 -0.3764  0.0013 -0.1640
  633DPPI   C2B10076   0.804   0.928   8.884  0.1404  0.0216 -0.1131
  633DPPI   C3B10077   0.784   0.907   8.475 -0.0214 -0.2842  0.1799
  633DPPI   C4B10078   0.723   0.888   8.012  0.0262  0.2306 -0.3653
  634DPPI    C110079  14.737   1.465   9.804  0.1626  0.1115  0.0371
  634DPPI    C210080  14.977   1.391  10.115  0.1033 -0.2659 -0.0026
  634DPPI    C310081  14.688   1.132  10.019 -0.1118  0.0243 -0.1549
  634DPPI   PO410082  14.819   1.825   9.720 -0.0588  0.3138 -0.4925
  634DPPI   GL110083  14.754   1.922   9.275  0.1778  0.0101 -0.2724
  634DPPI   GL210084  14.495   2.079   9.397 -0.2078 -0.1335  0.0147
  634DPPI   C1A10085  14.939   2.048   8.999 -0.3495 -0.0348  0.0013
  634DPPI   C2A10086  14.931   2.051   8.559 -0.0143 -0.0913 -0.0410
  634DPPI   C3A10087  14.919   2.098   8.062 -0.1914  0.0571 -0.0372
  634DPPI   C4A10088  14.720   1.898   7.769  0.1776 -0.0890 -0.2548
  634DPPI   C1B10089  14.388   2.224   9.067 -0.1781 -0.0670  0.0825
  634DPPI   C2B10090  14.217   2.289   8.658 -0.1082 -0.0542 -0.3317
  634DPPI   C3B10091  14.124   2.335   8.268  0.0890  0.2598 -0.1246
  634DPPI   C4B10092  14.013   2.371   7.756  0.2093  0.2043  0.0508
  635PYPI    C110093   2.172   6.884  10.920  0.0941 -0.0144  0.1067
  635PYPI    C210094   2.531   7.035  11.007  0.1870 -0.1774  0.0117
  635PYPI    C310095   2.206   7.266  11.031  0.3199  0.0228 -0.0832
  635PYPI   PO410096   2.256   6.691  10.707 -0.0895  0.2002  0.2347
  635PYPI   GL110097   2.427   6.599  10.264  0.1278 -0.2599  0.1339
  635PYPI   GL210098   2.253   6.898  10.177 -0.0313 -0.1425 -0.3074
  635PYPI   C1A10099   2.678   6.358   9.868  0.2096  0.0269 -0.2208
  635PYPI   C2A10100   2.594   6.458   9.459 -0.1269 -0.0266  0.1356
  635PYPI   D3A10101   2.698   6.383   9.055  0.3144 -0.1823 -0.0351
  635PYPI   C4A10102   2.554   6.569   8.599 -0.1239  0.0883 -0.0785
  635PYPI   C1B10103   2.404   6.999   9.835  0.2031 -0.1700  0.1507
  635PYPI   C2B10104   2.501   6.979   9.442  0.0179 -0.0828 -0.0356
  635PYPI   C3B10105   2.624   6.928   8.999  0.1060 -0.0704 -0.0643
  635PYPI   C4B10106   2.513   7.084   8.625  0.0298  0.3090  0.1036
  636PYPI    C110107   0.451   4.702  10.979 -0.0592 -0.2029  0.0700
  636PYPI    C210108   0.383   4.596  11.358 -0.0166  0.2412  0.2072
  636PYPI    C310109   0.594   4.927  11.277  0.1869  0.0172 -0.2073
  636PYPI   PO410110   0.603   4.552  10.793  0.2218 -0.1108 -0.0336
  636PYPI   GL110111   0.560   4.596  10.345  0.1836  0.0460 -0.1099
  636PYPI   GL210112   0.864   4.834  10.380 -0.3874 -0.2613 -0.2127
  636PYPI   C1A10113   0.475   4.817   9.872  0.0713 -0.1138  0.1202
  636PYPI   C2A10114   0.513   4.795   9.365 -0.1717 -0.0076  0.0423
  636PYPI   D3A10115   0.515   4.894   8.989  0.1327  0.0042  0.0337
  636PYPI   C4A10116   0.552   4.885   8.611  0.0036  0.0606  0.0687
  636PYPI   C1B10117   1.012   4.809   9.953 -0.0013  0.1048 -0.1400
  636PYPI   C2B10118   0.903   4.695   9.624 -0.3814  0.1286 -0.1915
  636PYPI   C3B10119   0.993   4.720   9.159  0.0656  0.1254  0.2764
  636PYPI   C4B10120   1.080   4.680   8.646  0.4621 -0.0807  0.2356
  637PYPI    C110121   4.507  13.248  10.332 -0.4199  0.0155 -0.1894
  637PYPI    C210122   4.757  12.943  10.397 -0.3511  0.0832 -0.1329
  637PYPI    C310123   4.477  13.033  10.667 -0.1999  0.2346 -0.0246
  637PYPI   PO410124   4.735  13.415  10.251  0.1158  0.0388  0.0038
  637PYPI   GL110125   5.054  13.249  10.090  0.4879 -0.1769 -0.0730
  637PYPI   GL210126   5.099  12.904   9.946 -0.4357  0.2382  0.0034
  637PYPI   C1A10127   5.119  13.550   9.771  0.1679 -0.0820  0.0286
  637PYPI   C2A10128   5.100  13.630   9.330 -0.1801 -0.3491 -0.0099
  637PYPI   D3A10129   5.128  13.683   8.970  0.2634  0.0451  0.1127
  637PYPI   C4A10130   4.866  13.855   8.663 -0.1435 -0.1478 -0.4014
  637PYPI   C1B10131   5.259  13.107   9.475  0.0556  0.1392 -0.0693
  637PYPI   C2B10132   5.127  13.139   9.107  0.2076  0.0988  0.0185
  637PYPI   C3B10133   5.238  13.251   8.791  0.0841 -0.2347 -0.3143
  637PYPI   C4B10134   5.098  13.447   8.411 -0.0706 -0.2173 -0.0014
  638PYPI    C110135  11.108  10.279  10.739 -0.1165  0.0719 -0.1233
  638PYPI    C210136  11.246  10.560  10.988 -0.2166 -0.0876  0.1153
  638PYPI    C310137  11.458  10.226  10.925 -0.3360 -0.1857  0.2279
  638PYPI   PO410138  10.957  10.454  10.463  0.2581 -0.0794  0.1492
  638PYPI   GL110139  10.731  10.703  10.160 -0.1624  0.2028 -0.0252
  638PYPI   GL210140  10.812  10.964   9.991 -0.1204  0.1612  0.0039
  638PYPI   C1A10141  10.542  10.938   9.619  0.0499 -0.1559  0.2881
  638PYPI   C2A10142  10.557  10.980   9.218  0.0446 -0.2857 -0.0663
  638PYPI   D3A10143  10.598  10.983   8.732  0.1392  0.2187  0.1869
  638PYPI   C4A10144  10.493  11.325   8.518 -0.0279 -0.1617  0.3407
  638PYPI   C1B10145  10.988  11.085   9.532 -0.0103  0.4706 -0.2810
  638PYPI   C2B10146  11.039  11.050   9.109  0.1942  0.0739  0.2665
  638PYPI   C3B10147  11.067  10.977   8.614  0.0517  0.2076 -0.1245
  638PYPI   C4B10148  11.213  10.841   8.253  0.0709 -0.1218 -0.0717
  639PYPI    C110149  12.051  15.116   9.922 -0.0607 -0.2419 -0.0434
  639PYPI    C210150  12.381  15.179  10.140 -0.1676  0.0396  0.0424
  639PYPI    C310151  12.069  14.986  10.300 -0.0976 -0.1058  0.0058
  639PYPI   PO410152  12.101  15.263   9.709  0.0136  0.1150 -0.0907
  639PYPI   GL110153  12.335  15.496   9.419 -0.0270  0.0542 -0.4017
  639PYPI   GL210154  12.453  15.685   9.104 -0.0829  0.2509 -0.0088
  639PYPI   C1A10155  12.330  15.160   9.072  0.0386 -0.2281  0.0117
  639PYPI   C2A10156  12.337  15.049   8.661 -0.3061  0.0320  0.1014
  639PYPI   D3A10157  12.312  15.109   8.212 -0.0318 -0.3479 -0.2385
  639PYPI   C4A10158  12.288  15.530   8.139  0.0087 -0.0826  0.0609
  639PYPI   C1B10159  12.301  15.633   8.769  0.0207 -0.1447 -0.1509
  639PYPI   C2B10160  11.914  15.753   8.514 -0.0215  0.0551  0.2095
  639PYPI   C3B10161  11.763  15.813   8.218 -0.4186  0.1811  0.4242
  639PYPI   C4B10162  11.890  15.568   7.828  0.0161 -0.1253  0.1522
  640PYPI    C110163  10.555  17.714  10.450 -0.0734  0.2362 -0.2357
  640PYPI    C210164  10.217  17.925  10.481 -0.1480  0.0665  0.1795
  640PYPI    C310165  10.514  17.985  10.741  0.0718  0.0835 -0.0709
  640PYPI   PO410166  10.649  17.752  10.227  0.2621 -0.0419 -0.1701
  640PYPI   GL110167  10.562  17.546   9.915 -0.1476  0.1956  0.3066
  640PYPI   GL210168  10.813  17.684   9.750  0.6059 -0.2696 -0.1029
  640PYPI   C1A10169  10.328  17.524   9.622  0.0767  0.3110 -0.0092
  640PYPI   C2A10170  10.315  17.400   9.187  0.1684  0.0671 -0.0384
  640PYPI   D3A10171  10.197  17.533   8.829  0.1709 -0.2338  0.0320
  640PYPI   C4A10172  10.287  17.312   8.431  0.0989 -0.0373  0.0886
  640PYPI   C1B10173  10.695  17.714   9.332  0.0704 -0.1978  0.2043
  640PYPI   C2B10174  10.612  17.769   8.851 -0.2747  0.2516  0.2170
  640PYPI   C3B10175  10.622  17.878   8.425 -0.0714  0.1965 -0.1212
  640PYPI   C4B10176  10.475  18.057   8.050 -0.1636 -0.0160  0.0592
  641ERGO   ROH10177   3.030  15.207   9.725 -0.3067 -0.0092  0.0443
  641ERGO    R110178   3.147  15.326   9.496 -0.1122 -0.1475  0.0689
  641ERGO    R210179   3.210  15.182   9.269 -0.3857 -0.2001  0.0214
  641ERGO    R310180   3.057  15.370   9.146 -0.0686  0.1113  0.0891
  641ERGO    R410181   3.215  15.251   8.930 -0.3719 -0.1789  0.0258
  641ERGO    R510182   3.200  15.463   8.978  0.0545 -0.1485  0.0483
  641ERGO    C110183   3.074  15.468   8.618 -0.0662  0.1260  0.0919
  641ERGO    C210184   3.064  15.449   8.246 -0.1555 -0.1500  0.0944
  642ERGO   ROH10185   6.520  17.083  10.240  0.2040 -0.1176  0.0560
  642ERGO    R110186   6.623  16.971  10.001  0.2790 -0.0858  0.0732
  642ERGO    R210187   6.460  16.871   9.801  0.3461 -0.2619  0.1051
  642ERGO    R310188   6.601  17.043   9.645  0.1960 -0.1799  0.0588
  642ERGO    R410189   6.468  16.864   9.455  0.2457 -0.2641  0.1028
  642ERGO    R510190   6.680  16.909   9.464  0.2224 -0.1359  0.0377
  642ERGO    C110191   6.604  17.023   9.108  0.0464 -0.1881  0.0579
  642ERGO    C210192   6.528  17.130   8.798 -0.3000 -0.0847 -0.1174
  643ERGO   ROH10193  15.989   7.043   9.558 -0.2227 -0.1407  0.1264
  643ERGO    R110194  15.850   7.020   9.313 -0.1586 -0.1757  0.0933
  643ERGO    R210195  15.879   7.203   9.108 -0.1517 -0.1718  0.0979
  643ERGO    R310196  15.938   6.982   8.962 -0.0659 -0.1601  0.1147
  643ERGO    R410197  15.884   7.190   8.763 -0.1097 -0.1858  0.0990
  643ERGO    R510198  15.791   6.993   8.773 -0.0492 -0.2150  0.0978
  643ERGO    C110199  15.943   6.975   8.424 -0.0048 -0.1829  0.1154
  643ERGO    C210200  15.914   6.942   8.108  0.0540  0.1574 -0.1614
  644ERGO   ROH10201   5.572   3.426  10.542  0.1321  0.1563 -0.0632
  644ERGO    R110202   5.502   3.320  10.289  0.0428  0.0287  0.0141
  644ERGO    R210203   5.296   3.423  10.137 -0.0785 -0.1135  0.0788
  644ERGO    R310204   5.489   3.441   9.946 -0.1838 -0.1103 -0.0284
  644ERGO    R410205   5.245   3.368   9.799 -0.2863 -0.0187  0.0929
  644ERGO    R510206   5.437   3.264   9.793 -0.3125 -0.0611 -0.0432
  644ERGO    C110207   5.397   3.352   9.424 -0.5062  0.0395  0.0007
  644ERGO    C210208   5.387   3.392   8.973 -0.5042  0.1370 -0.2680
  645ERGO   ROH10209  10.179   4.772  10.316  0.0168  0.1957 -0.1343
  645ERGO    R110210  10.114   4.898  10.071 -0.2018  0.0322 -0.1627
  645ERGO    R210211  10.297   4.930   9.866 -0.2320  0.3662 -0.1423
  645ERGO    R310212  10.107   4.803   9.719  0.0328 -0.0394 -0.1499
  645ERGO    R410213  10.257   4.961   9.524 -0.2309  0.2187 -0.1557
  645ERGO    R510214  10.042   4.963   9.554 -0.2506 -0.1930 -0.1946
  645ERGO    C110215  10.055   4.859   9.187  0.0183 -0.2479 -0.1708
  645ERGO    C210216  10.094   4.831   8.852 -0.0586 -0.3780 -0.2524
  646ERGO   ROH10217   5.276   9.747  10.290 -0.0463  0.4903 -0.0521
  646ERGO    R110218   5.214   9.642  10.034  0.0992  0.1769  0.0357
  646ERGO    R210219   5.163   9.803   9.815 -0.2346 -0.0778 -0.0855
  646ERGO    R310220   5.360   9.655   9.701  0.0239  0.1890  0.0035
  646ERGO    R410221   5.202   9.755   9.475 -0.2923 -0.3891 -0.0497
  646ERGO    R510222   5.254   9.547   9.516  0.1542 -0.2475  0.1711
  646ERGO    C110223   5.410   9.588   9.170 -0.0832 -0.3199  0.0544
  646ERGO    C210224   5.376   9.646   8.791 -0.1587 -0.0306 -0.1803
  647ERGO   ROH10225  10.355   9.523   9.912 -0.0332  0.0733  0.1228
  647ERGO    R110226  10.275   9.536   9.641  0.0404 -0.0810  0.0924
  647ERGO    R210227  10.298   9.766   9.489 -0.0502 -0.1260  0.0088
  647ERGO    R310228  10.435   9.602   9.321  0.0978 -0.1125  0.1141
  647ERGO    R410229  10.294   9.789   9.145 -0.0328 -0.3180 -0.0051
  647ERGO    R510230  10.288   9.572   9.135  0.1402 -0.3312  0.1137
  647ERGO    C110231  10.420   9.649   8.786  0.1163 -0.4173  0.0856
  647ERGO    C210232  10.462   9.752   8.447 -0.1669 -0.2070  0.3093
  648ERGO   ROH10233  14.962  12.916   9.227 -0.1106  0.0508 -0.0049
  648ERGO    R110234  14.890  12.838   8.965 -0.1048  0.1162 -0.0257
  648ERGO    R210235  14.774  13.013   8.785  0.0014  0.1895 -0.0204
  648ERGO    R310236  14.980  12.935   8.626 -0.0102  0.1177 -0.0009
  648ERGO    R410237  14.749  12.944   8.447  0.0210  0.2866 -0.0422
  648ERGO    R510238  14.883  12.775   8.476 -0.0723  0.2046 -0.0576
  648ERGO    C110239  14.928  12.830   8.101  0.0217  0.2758 -0.0367
  648ERGO    C210240  14.814  12.827   7.746  0.1249  0.4890 -0.0723
  649ERGO   ROH10241  14.312   0.497   5.729 -0.1062 -0.1460  0.0367
  649ERGO    R110242  14.226   0.515   5.998 -0.0053 -0.0863  0.0673
  649ERGO    R210243  14.190   0.293   6.158 -0.0805 -0.0642  0.0906
  649ERGO    R310244  14.358   0.426   6.325  0.0564 -0.1534  0.0233
  649ERGO    R410245  14.195   0.257   6.502 -0.2142  0.2012  0.1213
  649ERGO    R510246  14.224   0.472   6.518  0.0691  0.1787 -0.0443
  649ERGO    C110247  14.355   0.361   6.859 -0.1636  0.2721  0.0758
  649ERGO    C210248  14.554   0.206   6.987  0.1494 -0.3703 -0.0319
  650ERGO   ROH10249  17.073  16.932   9.307 -0.0660  0.0002  0.0334
  650ERGO    R110250  17.036  16.973   9.029  0.0243  0.0862  0.0333
  650ERGO    R210251  17.197  17.141   8.881  0.1816  0.0009  0.1036
  650ERGO    R310252  17.230  16.920   8.726  0.0535  0.0074  0.0660
  650ERGO    R410253  17.324  17.142   8.559 -0.0235  0.0030  0.0210
  650ERGO    R510254  17.174  16.994   8.505 -0.0773  0.0279  0.1061
  650ERGO    C110255  17.429  16.935   8.227 -0.2629  0.0101 -0.0623
  650ERGO    C210256  17.648  16.972   8.056  0.0175 -0.0261 -0.0057
  651ERGO   ROH10257   4.067  17.794  10.272 -0.2122  0.0331  0.0899
  651ERGO    R110258   4.049  17.908  10.013 -0.0541  0.0782  0.0979
  651ERGO    R210259   4.268  18.010   9.879  0.0714 -0.1250  0.1483
  651ERGO    R310260   4.187  17.840   9.684 -0.0629 -0.0260  0.1150
  651ERGO    R410261   4.229  18.096   9.547  0.1398 -0.0299  0.1637
  651ERGO    R510262   4.048  17.974   9.542  0.0416  0.1120  0.1395
  651ERGO    C110263   4.130  17.986   9.169  0.0536  0.1183  0.1413
  651ERGO    C210264   4.201  18.178   8.857 -0.0426  0.2167  0.0012
  652ERGO   ROH10265  10.665  15.520   9.509 -0.0408 -0.1232 -0.0255
  652ERGO    R110266  10.526  15.429   9.280 -0.1979  0.0684 -0.0096
  652ERGO    R210267  10.444  15.600   9.078  0.0254  0.1864 -0.0075
  652ERGO    R310268  10.582  15.428   8.920 -0.2336 -0.0223 -0.0139
  652ERGO    R410269  10.395  15.560   8.739 -0.0207  0.2788 -0.0119
  652ERGO    R510270  10.420  15.346   8.765 -0.3548  0.2365 -0.0253
  652ERGO    C110271  10.496  15.376   8.392 -0.2908  0.1368 -0.0204
  652ERGO    C210272  10.504  15.303   8.033 -0.0275 -0.2085 -0.2465
  653ERGO   ROH10273  13.569  18.093   9.047 -0.1394  0.0058  0.0098
  653ERGO    R110274  13.469  18.025   8.791 -0.0416  0.0605 -0.0465
  653ERGO    R210275  13.428  18.214   8.592  0.0979  0.1020 -0.0572
  653ERGO    R310276  13.586  18.047   8.447  0.1296  0.0721  0.0163
  653ERGO    R410277  13.407  18.170   8.250  0.0124 -0.2018 -0.0138
  653ERGO    R510278  13.440  17.957   8.280  0.1359 -0.1452  0.1426
  653ERGO    C110279  13.543  17.988   7.914 -0.0078 -0.4068  0.0803
  653ERGO    C210280  13.550  18.128   7.590 -0.2019  0.0971 -0.2755
  654ERGO   ROH10281   7.558  12.601  10.083 -0.0321  0.0646 -0.0191
  654ERGO    R110282   7.529  12.727   9.831 -0.1577  0.0504 -0.0122
  654ERGO    R210283   7.732  12.731   9.643 -0.1664  0.2479 -0.0177
  654ERGO    R310284   7.540  12.624   9.482 -0.0735  0.0763 -0.0178
  654ERGO    R410285   7.744  12.726   9.298 -0.1330  0.2051 -0.0163
  654ERGO    R510286   7.531  12.772   9.294 -0.1707  0.0427 -0.0411
  654ERGO    C110287   7.571  12.623   8.946 -0.0263  0.0190 -0.0155
  654ERGO    C210288   7.623  12.688   8.629  0.0500 -0.2580 -0.0282
  655ERGO   ROH10289  10.042   2.003   9.932  0.0102 -0.3855 -0.1818
  655ERGO    R110290  10.051   1.869   9.683  0.0543 -0.3263 -0.2135
  655ERGO    R210291   9.901   1.949   9.465  0.0691 -0.2907 -0.2166
  655ERGO    R310292  10.142   1.953   9.340  0.0853 -0.2328 -0.1813
  655ERGO    R410293   9.947   1.985   9.124  0.1222 -0.1555 -0.1948
  655ERGO    R510294  10.105   1.836   9.135  0.1230 -0.1509 -0.2315
  655ERGO    C110295  10.200   2.009   8.809  0.1682 -0.0224 -0.1491
  655ERGO    C210296  10.252   1.969   8.520 -0.4140  0.0239  0.1452
  656ERGO   ROH10297   6.509   5.962  10.538  0.0307 -0.1408 -0.0877
  656ERGO    R110298   6.497   5.835  10.285 -0.2121 -0.0450 -0.1253
  656ERGO    R210299   6.275   5.853  10.120 -0.1773  0.4361 -0.1217
  656ERGO    R310300   6.459   5.940   9.939 -0.0029  0.1333 -0.0989
  656ERGO    R410301   6.238   5.835   9.777 -0.1577  0.4559 -0.1260
  656ERGO    R510302   6.448   5.779   9.762 -0.2305  0.1205 -0.0846
  656ERGO    C110303   6.389   5.906   9.407  0.0174  0.1831 -0.1072
  656ERGO    C210304   6.356   5.859   9.015  0.1104  0.2033 -0.4900
  657ERGO   ROH10305  17.978   2.824   9.462 -0.0222  0.2012 -0.0030
  657ERGO    R110306  17.880   2.801   9.198 -0.0805 -0.1145  0.0396
  657ERGO    R210307  17.938   2.986   9.001 -0.5263 -0.0676 -0.0745
  657ERGO    R310308  18.023   2.767   8.865 -0.1244  0.0317  0.0088
  657ERGO    R410309  17.998   2.977   8.661 -0.0905 -0.0029 -0.0026
  657ERGO    R510310  17.907   2.779   8.655  0.1300 -0.0903 -0.1325
  657ERGO    C110311  18.114   2.765   8.335  0.5406  0.1279  0.1176
  657ERGO    C210312  18.143   2.681   8.007  0.0549  0.0149 -0.2134
  658ERGO   ROH10313   8.364   7.995  10.039  0.1559 -0.2982 -0.0780
  658ERGO    R110314   8.379   7.873   9.784  0.1710 -0.1916 -0.1276
  658ERGO    R210315   8.191   7.917   9.587  0.0823 -0.2556 -0.0527
  658ERGO    R310316   8.408   7.985   9.439 -0.0114 -0.0416 -0.0970
  658ERGO    R410317   8.184   7.988   9.248 -0.0502 -0.3386 -0.0687
  658ERGO    R510318   8.371   7.878   9.227  0.0768 -0.1348 -0.0690
  658ERGO    C110319   8.384   8.093   8.913 -0.2151 -0.1861 -0.1196
  658ERGO    C210320   8.355   8.023   8.581 -0.1351  0.1388  0.4272
  659ERGO   ROH10321  18.371   0.129   9.454 -0.1954 -0.1866 -0.0769
  659ERGO    R110322  18.282   0.144   9.186 -0.1736  0.0496 -0.0736
  659ERGO    R210323  18.345   0.356   9.020  0.0358  0.0853  0.0455
  659ERGO    R310324  18.436   0.158   8.856 -0.1478  0.0863 -0.0600
  659ERGO    R410325  18.354   0.374   8.675  0.0954  0.2848  0.0571
  659ERGO    R510326  18.290   0.166   8.667 -0.1198  0.3527 -0.0755
  659ERGO    C110327  18.446   0.199   8.321 -0.0424  0.4019 -0.0352
  659ERGO    C210328  18.611   0.198   8.090  0.0685  0.0025 -0.0148
  660ERGO   ROH10329   3.906   1.394  10.431  0.2073  0.1912  0.2009
  660ERGO    R110330   3.826   1.403  10.159  0.0222  0.2740  0.2573
  660ERGO    R210331   3.768   1.640  10.030  0.2908  0.3464  0.2751
  660ERGO    R310332   3.953   1.552   9.852  0.0270  0.0381  0.1409
  660ERGO    R410333   3.724   1.636   9.687  0.1048  0.6275  0.2911
  660ERGO    R510334   3.824   1.441   9.682 -0.3065  0.3996  0.1380
  660ERGO    C110335   3.873   1.551   9.320 -0.2512  0.5018  0.1745
  660ERGO    C210336   3.757   1.598   9.094 -0.2295  0.0119 -0.2622
  661ERGO   ROH10337  11.894   1.934   9.874 -0.0489 -0.3147  0.1156
  661ERGO    R110338  11.992   1.932   9.608 -0.1211 -0.1649  0.0869
  661ERGO    R210339  12.144   1.723   9.508  0.0220 -0.0125 -0.0086
  661ERGO    R310340  11.953   1.720   9.315 -0.0289 -0.1215  0.0418
  661ERGO    R410341  12.191   1.613   9.183  0.0384  0.1242 -0.0536
  661ERGO    R510342  12.069   1.779   9.114 -0.1283  0.0424  0.0278
  661ERGO    C110343  12.038   1.547   8.813  0.0002  0.1015 -0.0325
  661ERGO    C210344  12.112   1.672   8.460  0.2105  0.0540  0.0037
  662ERGO   ROH10345   7.003   8.140  10.104 -0.4073  0.0653  0.1884
  662ERGO    R110346   7.048   8.034   9.846 -0.0238 -0.0156  0.2830
  662ERGO    R210347   6.847   8.012   9.657  0.2045 -0.2857  0.0712
  662ERGO    R310348   7.020   8.153   9.503  0.2468 -0.2025  0.1913
  662ERGO    R410349   6.860   7.999   9.312  0.0940  0.1065  0.0464
  662ERGO    R510350   7.077   8.003   9.325  0.1078 -0.0373 -0.0039
  662ERGO    C110351   7.030   8.124   8.966  0.0694  0.4131  0.1449
  662ERGO    C210352   6.991   8.044   8.592  0.0187 -0.0068  0.0990
  663ERGO   ROH10353   7.193   3.578   6.350 -0.2274  0.1458  0.0656
  663ERGO    R110354   7.140   3.497   6.616 -0.1768  0.1221  0.0674
  663ERGO    R210355   7.340   3.455   6.802 -0.1394  0.0157 -0.0053
  663ERGO    R310356   7.195   3.632   6.950 -0.0260  0.0429  0.0769
  663ERGO    R410357   7.376   3.505   7.142 -0.0195 -0.0904 -0.0007
  663ERGO    R510358   7.159   3.520   7.158 -0.0159 -0.0013  0.0607
  663ERGO    C110359   7.262   3.700   7.479  0.1568 -0.1266  0.0790
  663ERGO    C210360   7.208   3.683   7.843  0.1828  0.1244  0.0413
  664ERGO   ROH10361   1.826  10.469   9.990  0.1675 -0.0243  0.0081
  664ERGO    R110362   1.992  10.341   9.799  0.1730 -0.0702  0.0395
  664ERGO    R210363   1.917  10.107   9.670  0.1508 -0.0837  0.0464
  664ERGO    R310364   1.969  10.253   9.447  0.1931 -0.0988  0.0497
  664ERGO    R410365   1.944   9.978   9.351 -0.0116 -0.0465  0.0191
  664ERGO    R510366   2.111  10.113   9.315  0.0592 -0.1644 -0.0063
  664ERGO    C110367   2.008  10.039   8.955 -0.0665 -0.0393  0.0063
  664ERGO    C210368   2.059   9.907   8.683  0.2365  0.2381  0.1638
  665ERGO   ROH10369   4.097   7.721  10.242  0.2314  0.1821 -0.1456
  665ERGO    R110370   4.175   7.731   9.970  0.1484  0.0239 -0.1746
  665ERGO    R210371   4.396   7.596   9.873  0.1116 -0.0338 -0.1618
  665ERGO    R310372   4.216   7.492   9.698  0.0609 -0.1320 -0.0548
  665ERGO    R410373   4.417   7.622   9.529  0.1806 -0.4623 -0.1972
  665ERGO    R510374   4.201   7.655   9.524  0.1941 -0.3241 -0.2590
  665ERGO    C110375   4.260   7.540   9.165  0.1731 -0.8039 -0.1172
  665ERGO    C210376   4.267   7.645   8.847 -0.1158 -0.3381 -0.0829
  666ERGO   ROH10377  14.406   1.651   9.023 -0.1235  0.0397  0.0554
  666ERGO    R110378  14.486   1.796   8.793 -0.1785  0.0490  0.0425
  666ERGO    R210379  14.517   1.676   8.546 -0.0203  0.0141  0.0792
  666ERGO    R310380  14.345   1.871   8.465 -0.1553 -0.1397 -0.0118
  666ERGO    R410381  14.446   1.751   8.216  0.0645 -0.0637  0.0419
  666ERGO    R510382  14.448   1.963   8.270 -0.1463 -0.0582  0.0322
  666ERGO    C110383  14.243   1.978   7.949 -0.0128 -0.2534 -0.0651
  666ERGO    C210384  14.308   2.023   7.478 -0.1104 -0.3277 -0.0970
  667ERGO   ROH10385  17.079  14.279   9.302  0.0407  0.0891 -0.0844
  667ERGO    R110386  17.286  14.299   9.110  0.0339 -0.0617 -0.1075
  667ERGO    R210387  17.312  14.123   8.899 -0.1941 -0.0053 -0.1774
  667ERGO    R310388  17.309  14.351   8.751  0.0362  0.0565 -0.0927
  667ERGO    R410389  17.460  14.159   8.588  0.0675  0.0316 -0.0520
  667ERGO    R510390  17.526  14.358   8.648  0.1266 -0.0186  0.0776
  667ERGO    C110391  17.544  14.394   8.269  0.4362  0.1111  0.1006
  667ERGO    C210392  17.653  14.409   8.017 -0.0643  0.1242 -0.0532
  668ERGO   ROH10393   4.242  10.070  10.082 -0.1128  0.0128 -0.0006
  668ERGO    R110394   4.137  10.079   9.820 -0.0989  0.0609 -0.0050
  668ERGO    R210395   4.264  10.211   9.613 -0.0911  0.1060  0.0259
  668ERGO    R310396   4.242   9.970   9.489 -0.0767  0.1288 -0.0198
  668ERGO    R410397   4.372  10.144   9.291 -0.2272  0.2117 -0.0426
  668ERGO    R510398   4.192  10.025   9.261 -0.2038  0.1645  0.0179
  668ERGO    C110399   4.414   9.879   8.988 -0.2931  0.2946 -0.1253
  668ERGO    C210400   4.427  10.051   8.634 -0.0776  0.5943 -0.1804
  669ERGO   ROH10401  10.280  12.956   9.782 -0.0195 -0.2270  0.0359
  669ERGO    R110402  10.385  13.020   9.527 -0.0679 -0.0261  0.0647
  669ERGO    R210403  10.426  12.829   9.331  0.1739  0.0783  0.0091
  669ERGO    R310404  10.272  12.996   9.181 -0.0095 -0.0527  0.0477
  669ERGO    R410405  10.389  12.810   8.988  0.1278  0.0708  0.0141
  669ERGO    R510406  10.397  13.028   8.980 -0.0759  0.0791  0.0273
  669ERGO    C110407  10.223  12.956   8.648 -0.0711 -0.0563  0.0535
  669ERGO    C210408  10.255  12.933   8.272 -0.5209  0.0912 -0.1291
  670ERGO   ROH10409  13.393   7.848   9.833 -0.0931  0.1032  0.0006
  670ERGO    R110410  13.387   7.999   9.594 -0.0214  0.0435 -0.0410
  670ERGO    R210411  13.581   7.976   9.398  0.0150 -0.0429 -0.0052
  670ERGO    R310412  13.366   7.929   9.237  0.0322 -0.0494 -0.0240
  670ERGO    R410413  13.589   7.972   9.052  0.0315 -0.0399 -0.0039
  670ERGO    R510414  13.398   8.076   9.051  0.0339 -0.0521 -0.0185
  670ERGO    C110415  13.393   7.925   8.700  0.0573 -0.0444 -0.0207
  670ERGO    C210416  13.383   7.867   8.391 -0.1034  0.1279  0.1147
  671ERGO   ROH10417   2.749  14.394  10.126  0.0958  0.1995  0.0254
  671ERGO    R110418   2.742  14.246   9.885  0.0283 -0.0336  0.1654
  671ERGO    R210419   2.744  14.368   9.636 -0.2185 -0.2617  0.0421
  671ERGO    R310420   2.957  14.204   9.594 -0.1378 -0.1603  0.0604
  671ERGO    R410421   2.805  14.192   9.344 -0.1745 -0.3386  0.0980
  671ERGO    R510422   2.869  14.023   9.465 -0.0587 -0.2561  0.1456
  671ERGO    C110423   3.040  13.937   9.135 -0.0731 -0.2882  0.1478
  671ERGO    C210424   3.131  13.922   8.687  0.3182  0.3280  0.0007
  672ERGO   ROH10425  15.630   5.442  10.146  0.3895  0.0488 -0.0141
  672ERGO    R110426  15.741   5.329   9.911  0.2851 -0.1124  0.0120
  672ERGO    R210427  15.629   5.110   9.785  0.0679 -0.0325  0.0532
  672ERGO    R310428  15.633   5.274   9.568  0.2376 -0.0763  0.0222
  672ERGO    R410429  15.650   5.003   9.457  0.0467 -0.1047  0.0756
  672ERGO    R510430  15.786   5.168   9.417  0.1822 -0.2209  0.0698
  672ERGO    C110431  15.665   5.094   9.062  0.1935 -0.1880  0.0596
  672ERGO    C210432  15.782   5.036   8.693  0.0947 -0.0171 -0.3579
  673ERGO   ROH10433  10.228   4.294  10.219  0.0307  0.0657  0.1106
  673ERGO    R110434  10.237   4.442   9.978 -0.0282 -0.0164  0.0578
  673ERGO    R210435  10.417   4.387   9.776 -0.0451 -0.0520  0.0561
  673ERGO    R310436  10.192   4.373   9.623 -0.0604 -0.1465  0.0858
  673ERGO    R410437  10.413   4.356   9.431 -0.0674  0.2509  0.0262
  673ERGO    R510438  10.246   4.497   9.426 -0.2172  0.0905  0.1832
  673ERGO    C110439  10.200   4.325   9.088 -0.0947  0.3386  0.0366
  673ERGO    C210440  10.160   4.346   8.797 -0.1783  0.0161  0.0628
  674PSPI    C110441   5.961  16.337   6.172  0.0243  0.0953 -0.0894
  674PSPI    C210442   6.190  16.320   5.845 -0.0443 -0.1489 -0.1272
  674PSPI    C310443   5.954  16.637   5.908  0.0487 -0.0522 -0.2594
  674PSPI   PO410444   5.836  16.143   6.201  0.0107  0.0153  0.2191
  674PSPI   GL110445   5.782  15.952   6.538  0.2100  0.3508 -0.0871
  674PSPI   GL210446   5.513  15.859   6.572  0.1698  0.0849 -0.2247
  674PSPI   C1A10447   6.052  15.949   6.908 -0.3369  0.2377  0.2351
  674PSPI   C2A10448   6.101  16.069   7.371  0.1748 -0.3092  0.1777
  674PSPI   C3A10449   6.029  16.109   7.786  0.1415  0.3218  0.2167
  674PSPI   C4A10450   5.703  15.922   8.044  0.0918 -0.1646 -0.0886
  674PSPI   C1B10451   5.457  15.662   6.829 -0.3194 -0.1830  0.2749
  674PSPI   C2B10452   5.360  15.814   7.264 -0.3498  0.0132  0.0492
  674PSPI   C3B10453   5.286  15.889   7.579  0.0674  0.0677 -0.0919
  674PSPI   C4B10454   5.174  16.276   7.799 -0.0384  0.1666 -0.1145
  675PSPI    C110455   5.473   2.015   5.986  0.0668 -0.1771 -0.1972
  675PSPI    C210456   5.798   2.248   5.998 -0.2360  0.2483  0.0510
  675PSPI    C310457   5.552   2.265   5.684 -0.0287 -0.0695 -0.1343
  675PSPI   PO410458   5.362   2.011   6.187  0.2090 -0.1148 -0.0554
  675PSPI   GL110459   5.308   2.191   6.620 -0.0321 -0.1746 -0.0998
  675PSPI   GL210460   5.385   2.472   6.509 -0.3308  0.5020 -0.2166
  675PSPI   C1A10461   5.418   2.083   7.065 -0.0660 -0.2397 -0.1714
  675PSPI   C2A10462   5.179   1.857   7.256  0.1591  0.0216 -0.1982
  675PSPI   C3A10463   4.923   1.548   7.244 -0.1348 -0.2242  0.1363
  675PSPI   C4A10464   4.718   1.325   7.556  0.1458  0.1488 -0.1886
  675PSPI   C1B10465   5.542   2.556   6.975 -0.3042  0.4661  0.1027
  675PSPI   C2B10466   5.611   2.415   7.374 -0.1838 -0.0859  0.3161
  675PSPI   C3B10467   5.608   2.528   7.735  0.1642  0.0245  0.0993
  675PSPI   C4B10468   5.947   2.574   8.099  0.0024  0.2601 -0.0854
  676PSPI    C110469  14.981  11.747   5.091  0.0031  0.3203 -0.0489
  676PSPI    C210470  14.982  11.424   4.854  0.0907 -0.0393  0.4259
  676PSPI    C310471  14.636  11.574   4.986  0.0387  0.1922  0.0421
  676PSPI   PO410472  15.170  11.736   5.246  0.1630 -0.0305 -0.0720
  676PSPI   GL110473  15.340  11.622   5.666 -0.1280  0.1702  0.2061
  676PSPI   GL210474  14.978  11.856   5.666 -0.1038  0.0833  0.0639
  676PSPI   C1A10475  15.037  11.409   6.022  0.0065  0.3844  0.1957
  676PSPI   C2A10476  14.783  11.138   5.998  0.4280  0.0565 -0.0639
  676PSPI   C3A10477  14.600  10.769   6.083 -0.0826  0.1868  0.3330
  676PSPI   C4A10478  14.537  10.676   6.428  0.0832  0.0259 -0.2713
  676PSPI   C1B10479  14.807  12.149   6.026 -0.1391  0.0712  0.1332
  676PSPI   C2B10480  14.725  12.104   6.515 -0.2907 -0.1150 -0.2447
  676PSPI   C3B10481  14.761  12.421   6.853  0.0108 -0.1385 -0.0661
  676PSPI   C4B10482  14.728  12.543   7.249 -0.1680 -0.2899 -0.0295
  677PSPI    C110483   6.867  11.672   5.787 -0.0233  0.2354  0.1633
  677PSPI    C210484   6.741  11.608   5.413  0.0282  0.3286  0.1297
  677PSPI    C310485   6.964  11.929   5.496 -0.0984  0.3821  0.2668
  677PSPI   PO410486   6.671  11.599   5.969  0.0867 -0.1293  0.2588
  677PSPI   GL110487   6.682  11.254   6.271  0.1866 -0.3976  0.1120
  677PSPI   GL210488   6.894  11.022   6.350  0.1490 -0.3327  0.0807
  677PSPI   C1A10489   6.546  11.334   6.684 -0.0969  0.3206 -0.0058
  677PSPI   C2A10490   6.454  11.083   7.058 -0.1526  0.0843  0.1484
  677PSPI   C3A10491   6.352  11.293   7.489  0.1123 -0.1871  0.1469
  677PSPI   C4A10492   6.458  11.620   7.788  0.0748  0.2554  0.1039
  677PSPI   C1B10493   6.978  11.186   6.847 -0.0253 -0.0458 -0.1696
  677PSPI   C2B10494   6.927  11.289   7.223  0.1613  0.3105  0.0079
  677PSPI   C3B10495   6.876  11.294   7.641  0.0682  0.1330 -0.2822
  677PSPI   C4B10496   6.957  11.319   8.060  0.1309  0.1670 -0.2549
  678PSPI    C110497   6.070  18.228   5.944 -0.0965  0.2024  0.0129
  678PSPI    C210498   6.323  18.509   5.814 -0.1055  0.2530  0.1037
  678PSPI    C310499   6.066  18.337   5.560  0.2834 -0.0795 -0.0767
  678PSPI   PO410500   6.252  18.171   6.196  0.1569  0.1510 -0.2799
  678PSPI   GL110501   6.381  18.281   6.638 -0.1266  0.1655  0.3278
  678PSPI   GL210502   6.097  18.109   6.757  0.2221 -0.0236 -0.0557
  678PSPI   C1A10503   6.447  18.087   7.063 -0.0886  0.1040 -0.2555
  678PSPI   C2A10504   6.506  18.163   7.490  0.0149  0.1732  0.0452
  678PSPI   C3A10505   6.965  18.104   7.618 -0.0457  0.0582  0.1367
  678PSPI   C4A10506   7.389  17.950   7.641 -0.1405  0.2614 -0.1792
  678PSPI   C1B10507   6.039  18.317   7.022 -0.3087 -0.1293 -0.1207
  678PSPI   C2B10508   5.993  18.253   7.410 -0.1643 -0.0544  0.0352
  678PSPI   C3B10509   6.147  18.107   7.778  0.0112 -0.2916 -0.2951
  678PSPI   C4B10510   6.533  17.759   7.795  0.1231  0.2042 -0.1347
  679PSPI    C110511  14.626  17.470   5.148  0.0809  0.2093 -0.0031
  679PSPI    C210512  14.564  17.156   4.907  0.1536  0.2871 -0.1247
  679PSPI    C310513  14.909  17.191   5.106  0.1093  0.2432 -0.0395
  679PSPI   PO410514  14.504  17.597   5.252 -0.2055  0.0460  0.0547
  679PSPI   GL110515  14.262  17.597   5.654  0.1339 -0.6034 -0.1072
  679PSPI   GL210516  14.122  17.867   5.483 -0.2480  0.0925  0.0117
  679PSPI   C1A10517  14.161  17.577   6.056  0.3034  0.0342  0.1096
  679PSPI   C2A10518  14.309  17.487   6.538 -0.0503 -0.3338  0.1929
  679PSPI   C3A10519  14.466  17.285   6.878 -0.0553 -0.0717  0.0273
  679PSPI   C4A10520  14.823  17.200   7.220  0.1004  0.0481  0.0113
  679PSPI   C1B10521  13.764  17.982   5.796  0.0711  0.2092 -0.0500
  679PSPI   C2B10522  13.408  17.938   5.937  0.0719  0.2814 -0.0801
  679PSPI   C3B10523  13.095  17.755   6.158  0.0607 -0.1763 -0.2560
  679PSPI   C4B10524  12.705  17.665   6.518 -0.3531  0.2410 -0.0196
  680PSPI    C110525   5.093  11.310   6.013  0.5261  0.2505 -0.1069
  680PSPI    C210526   5.186  10.999   5.780  0.1792  0.1535 -0.1215
  680PSPI    C310527   4.885  11.242   5.678  0.2879  0.3497  0.0183
  680PSPI   PO410528   5.118  11.162   6.265  0.0334 -0.0615  0.1039
  680PSPI   GL110529   5.001  11.214   6.755  0.0453  0.0096 -0.1448
  680PSPI   GL210530   4.761  11.438   6.581 -0.0316 -0.0162 -0.3772
  680PSPI   C1A10531   4.837  11.412   7.108 -0.2867 -0.2246  0.1399
  680PSPI   C2A10532   4.962  11.396   7.622 -0.0005  0.2094  0.3017
  680PSPI   C3A10533   4.956  11.181   7.968  0.4421  0.3386  0.2461
  680PSPI   C4A10534   4.754  10.936   8.261 -0.2456 -0.3433  0.1183
  680PSPI   C1B10535   4.379  11.477   6.795 -0.0728 -0.2008 -0.0852
  680PSPI   C2B10536   4.083  11.745   6.978 -0.1540 -0.0789 -0.1437
  680PSPI   C3B10537   4.188  12.131   7.116  0.1087 -0.2936 -0.2429
  680PSPI   C4B10538   4.496  12.283   7.256  0.1428  0.2763  0.2349
  681PSPI    C110539   6.899  16.583   5.802  0.0895  0.0047 -0.1239
  681PSPI    C210540   7.115  16.691   5.483  0.0610  0.2262 -0.0695
  681PSPI    C310541   7.296  16.623   5.833  0.0871  0.0259 -0.1209
  681PSPI   PO410542   6.714  16.264   5.860 -0.0801 -0.0626  0.0184
  681PSPI   GL110543   6.485  16.272   6.287 -0.0175  0.0084 -0.3164
  681PSPI   GL210544   6.640  16.525   6.354 -0.0025 -0.1031  0.3231
  681PSPI   C1A10545   6.526  16.189   6.726  0.1311 -0.2761 -0.3215
  681PSPI   C2A10546   6.564  16.204   7.180  0.1573 -0.0135 -0.1221
  681PSPI   C3A10547   6.569  16.264   7.618 -0.1478  0.1429 -0.0543
  681PSPI   C4A10548   6.881  16.264   7.927 -0.3069 -0.0158  0.0727
  681PSPI   C1B10549   6.825  16.571   6.675  0.1056  0.4322  0.5044
  681PSPI   C2B10550   6.710  16.702   7.091 -0.2381 -0.1786  0.3540
  681PSPI   C3B10551   6.471  16.765   7.468  0.1793 -0.3341  0.4421
  681PSPI   C4B10552   6.552  17.030   7.851 -0.0533  0.1128 -0.3839
  682PSPI    C110553  10.588  14.840   5.634 -0.0268  0.1235  0.2499
  682PSPI    C210554  10.797  14.499   5.633  0.0449  0.1669  0.0408
  682PSPI    C310555  10.575  14.599   5.315 -0.0925  0.2445  0.1601
  682PSPI   PO410556  10.765  15.019   5.804  0.3387  0.1743  0.3434
  682PSPI   GL110557  11.070  15.132   6.149  0.0053 -0.0582  0.0926
  682PSPI   GL210558  10.880  15.361   6.169  0.0577  0.3237 -0.1013
  682PSPI   C1A10559  11.343  15.263   6.469 -0.3548  0.0203 -0.0587
  682PSPI   C2A10560  11.665  15.386   6.825 -0.1949  0.1211  0.2463
  682PSPI   C3A10561  11.948  15.074   6.708  0.2391 -0.1386 -0.1485
  682PSPI   C4A10562  12.170  14.815   6.609 -0.0853  0.2239  0.0664
  682PSPI   C1B10563  11.050  15.722   6.495 -0.0361 -0.0540  0.0477
  682PSPI   C2B10564  11.349  15.795   6.853  0.0303  0.1345  0.2077
  682PSPI   C3B10565  11.368  16.116   7.131 -0.1054  0.3566 -0.3986
  682PSPI   C4B10566  11.143  16.497   7.161 -0.0286 -0.2230  0.1237
  683PSPI    C110567   6.555  14.302   5.748  0.3107 -0.3693  0.0757
  683PSPI    C210568   6.750  14.556   5.508 -0.0208 -0.0575  0.1271
  683PSPI    C310569   6.653  14.191   5.376 -0.1074  0.0722 -0.1783
  683PSPI   PO410570   6.644  14.414   6.010 -0.2410  0.2446  0.1836
  683PSPI   GL110571   6.724  14.534   6.486  0.1727 -0.0649  0.1152
  683PSPI   GL210572   6.965  14.757   6.551  0.0689  0.2600  0.3174
  683PSPI   C1A10573   6.572  14.625   6.947  0.2286  0.1151  0.3832
  683PSPI   C2A10574   6.297  14.741   7.268 -0.0283 -0.0923 -0.1512
  683PSPI   C3A10575   6.017  14.640   7.521 -0.2355  0.1559  0.2313
  683PSPI   C4A10576   5.927  14.223   7.523  0.4704  0.3336 -0.0258
  683PSPI   C1B10577   6.710  15.048   6.729 -0.0920 -0.0295 -0.0011
  683PSPI   C2B10578   6.512  15.156   7.113 -0.1962 -0.0137  0.0884
  683PSPI   C3B10579   6.687  15.346   7.464  0.5163  0.2868 -0.2321
  683PSPI   C4B10580   7.090  15.327   7.604 -0.0532  0.0365  0.0200
  684PSPI    C110581   7.823  13.239   5.811 -0.1468 -0.2788  0.1155
  684PSPI    C210582   7.511  13.086   5.615 -0.1331 -0.0519 -0.0884
  684PSPI    C310583   7.709  13.398   5.462  0.0665 -0.0638  0.1405
  684PSPI   PO410584   7.935  12.925   5.927 -0.0795  0.3163 -0.1344
  684PSPI   GL110585   7.738  12.761   6.236 -0.1676 -0.0336 -0.2335
  684PSPI   GL210586   8.097  12.486   6.233  0.0356 -0.0279 -0.1806
  684PSPI   C1A10587   7.276  12.708   6.332  0.1194 -0.0472  0.2872
  684PSPI   C2A10588   7.211  12.667   6.762  0.0497  0.2722 -0.2073
  684PSPI   C3A10589   7.440  12.762   7.055 -0.2017 -0.1167  0.2218
  684PSPI   C4A10590   7.662  13.098   7.307  0.0686  0.2855 -0.0111
  684PSPI   C1B10591   8.086  12.174   6.707  0.0786 -0.1027  0.1052
  684PSPI   C2B10592   8.058  12.129   7.130  0.3437 -0.1056  0.1716
  684PSPI   C3B10593   8.101  12.285   7.462  0.1202  0.0997  0.0405
  684PSPI   C4B10594   8.284  12.299   7.857  0.1555  0.1760 -0.2976
  685PSPI    C110595  14.620   6.391   5.667  0.0182  0.0147 -0.0091
  685PSPI    C210596  14.323   6.652   5.607 -0.0368 -0.0556 -0.0436
  685PSPI    C310597  14.648   6.661   5.374 -0.0198  0.0096 -0.0174
  685PSPI   PO410598  14.666   6.436   5.936  0.0029  0.1235 -0.1964
  685PSPI   GL110599  14.789   6.269   6.418 -0.0029  0.1325 -0.1570
  685PSPI   GL210600  14.798   6.062   6.215  0.2572 -0.0989 -0.1379
  685PSPI   C1A10601  14.639   6.078   6.774 -0.0631 -0.1590 -0.3088
  685PSPI   C2A10602  14.540   6.125   7.192 -0.0958 -0.0052 -0.2594
  685PSPI   C3A10603  14.587   5.799   7.576  0.1087  0.0022  0.0875
  685PSPI   C4A10604  14.332   5.521   7.826  0.0447  0.0534 -0.3346
  685PSPI   C1B10605  15.068   5.852   6.558 -0.0264  0.4389  0.0998
  685PSPI   C2B10606  15.311   5.727   6.849  0.1371  0.0125 -0.2577
  685PSPI   C3B10607  15.442   5.785   7.250  0.3437 -0.1784  0.0581
  685PSPI   C4B10608  15.563   5.623   7.647  0.0672 -0.3636  0.0467
  686PSPI    C110609   5.716   3.027   5.941 -0.0577 -0.0083  0.1145
  686PSPI    C210610   5.447   2.843   5.709  0.1462 -0.0122 -0.1227
  686PSPI    C310611   5.357   3.194   5.879 -0.0906 -0.1240 -0.0116
  686PSPI   PO410612   5.783   2.861   6.067 -0.0676 -0.2625 -0.2670
  686PSPI   GL110613   5.758   2.854   6.504 -0.1364  0.1898 -0.3878
  686PSPI   GL210614   5.897   2.527   6.542 -0.5734 -0.0777  0.1933
  686PSPI   C1A10615   6.036   2.767   6.927 -0.0647 -0.2431 -0.2460
  686PSPI   C2A10616   6.307   2.535   7.166  0.1565  0.1866 -0.4976
  686PSPI   C3A10617   6.132   2.366   7.467  0.1414 -0.0937  0.2606
  686PSPI   C4A10618   5.969   2.146   7.768 -0.0680 -0.1724 -0.1666
  686PSPI   C1B10619   5.915   2.217   6.882 -0.2893  0.3013  0.1259
  686PSPI   C2B10620   6.215   2.004   7.116  0.0223 -0.1955 -0.0746
  686PSPI   C3B10621   6.160   1.743   7.550 -0.3020  0.0069 -0.0593
  686PSPI   C4B10622   5.876   1.672   7.861 -0.1000 -0.0763 -0.0130
  687PSPI    C110623  16.260   3.334   5.488 -0.0806 -0.0337  0.1682
  687PSPI    C210624  15.988   3.225   5.215  0.0745  0.0324 -0.0149
  687PSPI    C310625  16.051   3.613   5.291  0.1192  0.0174  0.0257
  687PSPI   PO410626  16.166   3.206   5.676  0.3060  0.1007 -0.2945
  687PSPI   GL110627  16.319   3.121   6.109 -0.4930  0.3826 -0.4122
  687PSPI   GL210628  16.276   2.869   6.059 -0.0755 -0.1258 -0.0714
  687PSPI   C1A10629  15.992   3.240   6.312 -0.2515  0.1760  0.0548
  687PSPI   C2A10630  15.632   3.370   6.654 -0.3545 -0.0342 -0.0358
  687PSPI   C3A10631  15.625   3.332   7.104 -0.3399 -0.0449 -0.0357
  687PSPI   C4A10632  15.458   3.241   7.522 -0.1030  0.1020 -0.3163
  687PSPI   C1B10633  16.205   2.546   6.344  0.3211 -0.1568  0.0257
  687PSPI   C2B10634  16.112   2.552   6.812  0.3347  0.2116 -0.3668
  687PSPI   C3B10635  16.114   2.424   7.288 -0.0806 -0.1388 -0.1205
  687PSPI   C4B10636  16.362   2.337   7.687 -0.0044  0.0177 -0.3965
  688PSPI    C110637   3.482  13.568   6.242  0.1247  0.1658  0.0103
  688PSPI    C210638   3.531  13.466   5.859 -0.0831 -0.0973  0.0510
  688PSPI    C310639   3.819  13.389   6.125  0.0494  0.0597 -0.0454
  688PSPI   PO410640   3.154  13.461   6.285  0.1330  0.0460  0.2517
  688PSPI   GL110641   3.059  13.289   6.738  0.0355 -0.2611 -0.2068
  688PSPI   GL210642   3.382  13.305   6.723 -0.2099 -0.1092 -0.2341
  688PSPI   C1A10643   2.896  13.503   7.089 -0.0990 -0.2712 -0.2667
  688PSPI   C2A10644   2.822  13.575   7.543 -0.2188  0.2351  0.2426
  688PSPI   C3A10645   2.682  13.806   7.860  0.2148 -0.1615  0.1794
  688PSPI   C4A10646   2.308  13.979   7.888 -0.0476  0.1797 -0.1645
  688PSPI   C1B10647   3.501  13.397   7.152  0.2117  0.0873  0.1459
  688PSPI   C2B10648   3.432  13.557   7.479  0.3433  0.1973  0.2246
  688PSPI   C3B10649   3.235  13.799   7.870 -0.2328 -0.0297 -0.2271
  688PSPI   C4B10650   3.026  14.158   8.122  0.2673  0.4463  0.1220
  689PSPI    C110651  13.665   1.538   5.188 -0.1766  0.1415 -0.1772
  689PSPI    C210652  13.962   1.298   5.305 -0.1303  0.3228  0.0869
  689PSPI    C310653  13.794   1.248   4.946  0.0307  0.0424  0.0477
  689PSPI   PO410654  13.558   1.578   5.343 -0.1432  0.3779 -0.0505
  689PSPI   GL110655  13.315   1.815   5.698  0.0477 -0.1309  0.1134
  689PSPI   GL210656  13.239   1.615   5.921 -0.0744 -0.0748 -0.0747
  689PSPI   C1A10657  13.429   2.075   6.081  0.2250  0.0276 -0.1700
  689PSPI   C2A10658  13.216   2.056   6.520  0.0691 -0.1495 -0.0236
  689PSPI   C3A10659  13.028   1.765   6.846 -0.3353  0.1471  0.2658
  689PSPI   C4A10660  12.691   1.612   6.871  0.2246 -0.0190 -0.2268
  689PSPI   C1B10661  13.681   1.503   6.058 -0.0564  0.0310  0.1927
  689PSPI   C2B10662  13.967   1.386   6.227 -0.0142  0.0698  0.0226
  689PSPI   C3B10663  14.365   1.337   6.268  0.1181  0.2258 -0.2118
  689PSPI   C4B10664  14.695   1.345   6.564 -0.3366 -0.2706  0.2326
  690PSPI    C110665   1.749  11.165   5.765  0.1430  0.0247 -0.0460
  690PSPI    C210666   1.764  10.789   5.629  0.2910  0.0594 -0.1276
  690PSPI    C310667   1.593  11.075   5.408  0.1315  0.0312 -0.0426
  690PSPI   PO410668   1.633  11.172   5.961  0.0616  0.3680  0.0394
  690PSPI   GL110669   1.544  11.357   6.269  0.0318  0.0976 -0.1589
  690PSPI   GL210670   1.198  11.276   6.168  0.1429 -0.2535  0.0899
  690PSPI   C1A10671   1.351  11.605   6.658  0.1242  0.0807  0.0288
  690PSPI   C2A10672   1.168  11.646   7.037  0.1529 -0.0427  0.1027
  690PSPI   C3A10673   0.856  11.935   7.232 -0.2283 -0.0383  0.0297
  690PSPI   C4A10674   0.636  11.990   7.690  0.1058  0.0423  0.0797
  690PSPI   C1B10675   1.110  11.118   6.592 -0.0416  0.1078  0.3845
  690PSPI   C2B10676   1.244  11.155   7.043  0.1088  0.1173 -0.0517
  690PSPI   C3B10677   1.297  11.050   7.466 -0.2381  0.0370 -0.1266
  690PSPI   C4B10678   1.505  10.786   7.744  0.4844 -0.0712 -0.1443
  691PSPI    C110679   2.214   1.974   5.802 -0.2303  0.0809 -0.1413
  691PSPI    C210680   2.013   1.740   5.548 -0.1398  0.1037 -0.2345
  691PSPI    C310681   2.335   1.941   5.422 -0.0555  0.0636 -0.0849
  691PSPI   PO410682   1.977   1.971   5.991  0.0449  0.2399  0.2992
  691PSPI   GL110683   1.778   1.736   6.385 -0.3092 -0.0023  0.0597
  691PSPI   GL210684   1.863   1.403   6.448 -0.2133 -0.0703  0.1609
  691PSPI   C1A10685   1.364   1.517   6.484  0.1041 -0.4269 -0.3475
  691PSPI   C2A10686   1.107   1.458   6.902 -0.0691 -0.3939  0.0652
  691PSPI   C3A10687   0.831   1.146   7.103 -0.1443 -0.1725 -0.0405
  691PSPI   C4A10688   0.485   1.029   7.353 -0.1094  0.1596  0.1975
  691PSPI   C1B10689   1.701   1.499   6.844  0.3040  0.1575  0.1916
  691PSPI   C2B10690   1.544   1.542   7.216  0.1554 -0.0529 -0.2323
  691PSPI   C3B10691   1.227   1.377   7.553 -0.1381  0.1757  0.3369
  691PSPI   C4B10692   1.036   1.350   7.944  0.0067  0.0962  0.4343
  692PSPI    C110693   7.930  11.732   5.829  0.0177  0.0932  0.0227
  692PSPI    C210694   7.786  11.902   5.497 -0.0535 -0.2688 -0.1363
  692PSPI    C310695   7.894  11.517   5.494  0.0246 -0.2533  0.2398
  692PSPI   PO410696   7.801  11.904   6.042  0.3824 -0.1583  0.0536
  692PSPI   GL110697   7.608  11.893   6.489  0.1991  0.1789  0.0301
  692PSPI   GL210698   7.624  12.266   6.403  0.2595 -0.1783  0.0071
  692PSPI   C1A10699   7.599  12.106   6.884 -0.2647  0.2538  0.2992
  692PSPI   C2A10700   7.603  12.322   7.281 -0.1838 -0.1313 -0.0873
  692PSPI   C3A10701   7.416  12.662   7.540 -0.0286  0.2788 -0.0712
  692PSPI   C4A10702   7.051  12.834   7.341 -0.1294 -0.2181 -0.0633
  692PSPI   C1B10703   7.797  12.551   6.806  0.1215  0.0091  0.0411
  692PSPI   C2B10704   7.932  12.715   7.295 -0.0710 -0.0502 -0.0923
  692PSPI   C3B10705   7.893  12.790   7.776  0.1688  0.2008  0.1396
  692PSPI   C4B10706   7.723  12.889   8.164 -0.1358  0.0521  0.1572
  693POPI    C110707   7.938  15.079   5.852 -0.2598  0.0961  0.2785
  693POPI    C210708   7.662  14.954   5.591 -0.2118  0.0740  0.2384
  693POPI    C310709   7.917  14.692   5.755  0.3457  0.2052 -0.3740
  693POPI   PO410710   7.852  15.230   5.989  0.2969  0.0430 -0.2020
  693POPI   GL110711   7.723  15.519   6.326  0.1582 -0.0949 -0.4737
  693POPI   GL210712   7.665  15.878   6.252 -0.0656 -0.1167 -0.1180
  693POPI   C1A10713   7.695  15.577   6.789 -0.0475  0.1344 -0.2418
  693POPI   D2A10714   7.801  15.329   7.123 -0.4822 -0.2304  0.3352
  693POPI   C3A10715   7.626  15.206   7.450 -0.0089  0.1311 -0.4580
  693POPI   C4A10716   7.265  14.823   7.603 -0.1885  0.0562 -0.1253
  693POPI   C1B10717   7.695  16.074   6.688  0.3950 -0.0506  0.0777
  693POPI   C2B10718   7.607  16.368   6.986  0.2353  0.5069  0.1116
  693POPI   C3B10719   7.627  16.565   7.283 -0.2319 -0.0572  0.0157
  693POPI   C4B10720   7.564  16.648   7.632  0.2172 -0.1057  0.1757
  694POPI    C110721  11.328   3.373   6.050  0.1918 -0.0020 -0.1273
  694POPI    C210722  11.554   3.655   6.222 -0.0170  0.1582 -0.1116
  694POPI    C310723  11.661   3.271   6.247  0.0645  0.1983  0.2011
  694POPI   PO410724  11.103   3.262   6.211  0.2334  0.0256 -0.2656
  694POPI   GL110725  11.225   3.166   6.495 -0.1218  0.0480 -0.0008
  694POPI   GL210726  11.502   2.978   6.737 -0.2334 -0.0888  0.3331
  694POPI   C1A10727  11.336   3.530   6.712  0.1831  0.0630 -0.2480
  694POPI   D2A10728  11.795   3.922   6.997  0.1266 -0.3151  0.1870
  694POPI   C3A10729  12.108   3.800   7.095 -0.0102 -0.1100  0.2119
  694POPI   C4A10730  12.346   3.613   7.353 -0.2342  0.1351  0.1473
  694POPI   C1B10731  11.599   3.253   7.035 -0.0757 -0.1518  0.1071
  694POPI   C2B10732  11.551   3.174   7.478 -0.1768  0.1772  0.2154
  694POPI   C3B10733  11.750   2.936   7.741 -0.0908  0.1573  0.1483
  694POPI   C4B10734  12.198   2.772   7.823 -0.0556  0.0300  0.3048
  695POPI    C110735  13.245   6.966   6.153 -0.2128 -0.0404 -0.0004
  695POPI    C210736  13.384   7.251   5.909 -0.0075 -0.1886 -0.0593
  695POPI    C310737  13.639   7.034   6.129 -0.1650 -0.3002  0.0149
  695POPI   PO410738  13.124   7.028   6.255 -0.2307 -0.2620  0.1157
  695POPI   GL110739  13.239   6.976   6.681  0.1317 -0.1968  0.1356
  695POPI   GL210740  13.495   7.335   6.585 -0.4043  0.3786 -0.1250
  695POPI   C1A10741  13.508   6.691   6.871  0.3499 -0.1314 -0.4586
  695POPI   D2A10742  13.611   6.342   7.132 -0.2023  0.0033  0.0871
  695POPI   C3A10743  14.062   6.361   7.318 -0.0835  0.2063 -0.1004
  695POPI   C4A10744  14.381   6.712   7.420  0.0727 -0.0501 -0.1481
  695POPI   C1B10745  13.659   7.224   7.090 -0.3417  0.2681  0.4276
  695POPI   C2B10746  13.312   7.096   7.269  0.0299  0.0333  0.1138
  695POPI   C3B10747  13.132   6.981   7.712  0.1936  0.0989  0.1450
  695POPI   C4B10748  13.354   6.945   7.989  0.2595  0.1978 -0.0293
  696POPI    C110749   8.477  15.079   5.765  0.0948  0.2455 -0.0143
  696POPI    C210750   8.494  15.469   5.855 -0.1185  0.2182  0.1544
  696POPI    C310751   8.244  15.340   5.571  0.0640  0.2209 -0.0103
  696POPI   PO410752   8.389  14.985   6.059 -0.0737  0.0127  0.1842
  696POPI   GL110753   8.526  14.861   6.437 -0.0482 -0.0104  0.2303
  696POPI   GL210754   8.870  14.967   6.509  0.1693 -0.3626 -0.0661
  696POPI   C1A10755   8.357  14.780   6.777  0.2165  0.0363  0.0619
  696POPI   D2A10756   8.297  14.577   7.185  0.0235 -0.4751  0.0127
  696POPI   C3A10757   8.113  14.510   7.536  0.0794  0.2629  0.1321
  696POPI   C4A10758   7.727  14.384   7.803  0.0966  0.2274  0.1218
  696POPI   C1B10759   8.844  14.966   6.969 -0.0232 -0.1517 -0.0737
  696POPI   C2B10760   8.684  15.074   7.392 -0.2560 -0.1110 -0.1670
  696POPI   C3B10761   8.525  14.734   7.659  0.2071  0.0923 -0.2310
  696POPI   C4B10762   8.199  14.617   8.055 -0.4585  0.3319  0.2548
  697POPI    C110763  13.417  12.677   5.391  0.1057  0.1152  0.2664
  697POPI    C210764  13.215  12.417   5.619  0.0550  0.1544  0.2664
  697POPI    C310765  13.469  12.284   5.340  0.0222  0.1047  0.2603
  697POPI   PO410766  13.570  12.875   5.567  0.4471  0.1261 -0.2310
  697POPI   GL110767  13.365  13.128   5.897 -0.0369 -0.0076  0.1561
  697POPI   GL210768  13.109  13.338   5.877  0.0220 -0.3441 -0.0322
  697POPI   C1A10769  13.556  13.012   6.346 -0.0683  0.1787  0.1377
  697POPI   D2A10770  13.516  12.703   6.609  0.0134  0.1518  0.1169
  697POPI   C3A10771  13.889  12.676   6.872  0.0803  0.0990 -0.1514
  697POPI   C4A10772  13.909  12.813   7.231 -0.1563 -0.0392 -0.0157
  697POPI   C1B10773  13.041  13.275   6.280 -0.1775 -0.1547 -0.3102
  697POPI   C2B10774  12.723  13.238   6.441 -0.0083 -0.0736  0.2890
  697POPI   C3B10775  12.300  13.133   6.267  0.1159 -0.2816 -0.2165
  697POPI   C4B10776  12.234  12.654   6.330  0.1493 -0.1681 -0.1547
  698POPI    C110777  16.583   6.623   5.249 -0.1965 -0.0810 -0.1121
  698POPI    C210778  16.953   6.762   5.189 -0.2468  0.1527  0.1022
  698POPI    C310779  16.791   6.504   4.929  0.0529  0.0732 -0.0094
  698POPI   PO410780  16.598   6.582   5.530 -0.0682 -0.0335  0.0129
  698POPI   GL110781  16.508   6.576   6.060  0.0884 -0.0307  0.1922
  698POPI   GL210782  16.896   6.529   5.973 -0.0947  0.0707  0.0106
  698POPI   C1A10783  16.260   6.326   6.408  0.1075  0.0351 -0.1065
  698POPI   D2A10784  16.397   6.234   6.820 -0.2830 -0.1579 -0.2083
  698POPI   C3A10785  16.292   6.128   7.099  0.0858 -0.1278  0.1015
  698POPI   C4A10786  16.660   5.964   7.335 -0.0994 -0.1995 -0.4907
  698POPI   C1B10787  16.757   6.183   6.234  0.1070 -0.0869  0.1130
  698POPI   C2B10788  16.566   5.891   6.501  0.2189 -0.1058  0.1816
  698POPI   C3B10789  16.693   5.771   6.812 -0.0168 -0.1435 -0.1066
  698POPI   C4B10790  17.018   5.603   7.194 -0.0399  0.0972 -0.3979
  699POPI    C110791   6.287   6.342   5.948  0.0412 -0.1209  0.1311
  699POPI    C210792   6.605   6.112   5.871  0.4086  0.3608  0.1556
  699POPI    C310793   6.489   6.388   5.606  0.0458  0.2357  0.1778
  699POPI   PO410794   6.372   6.428   6.147  0.0071  0.0029 -0.1554
  699POPI   GL110795   6.589   6.774   6.432 -0.1725 -0.0262  0.0970
  699POPI   GL210796   6.708   6.369   6.592 -0.1779 -0.0127  0.4651
  699POPI   C1A10797   6.393   6.671   6.840  0.1901 -0.1825 -0.1911
  699POPI   D2A10798   6.219   6.809   7.263 -0.0796  0.0928 -0.2499
  699POPI   C3A10799   6.143   6.536   7.618  0.0289 -0.0969 -0.1348
  699POPI   C4A10800   6.074   6.082   7.833  0.0557  0.3701 -0.1385
  699POPI   C1B10801   6.903   6.681   6.792 -0.3084  0.1954  0.5208
  699POPI   C2B10802   7.066   6.882   7.163  0.3033  0.2400  0.0841
  699POPI   C3B10803   7.298   6.983   7.586 -0.0091  0.2178  0.3132
  699POPI   C4B10804   7.532   6.725   7.881  0.2626 -0.0917  0.0553
  700POPI    C110805   0.571  16.482   5.268  0.1538 -0.0403 -0.3585
  700POPI    C210806   0.751  16.814   5.138  0.0281  0.1059 -0.1655
  700POPI    C310807   0.957  16.544   5.349  0.0644  0.1902 -0.0926
  700POPI   PO410808   0.348  16.558   5.465 -0.0957 -0.2379  0.1707
  700POPI   GL110809   0.242  16.884   5.726  0.5944  0.0538  0.5901
  700POPI   GL210810   0.525  16.754   5.917  0.0405 -0.3240 -0.0435
  700POPI   C1A10811   0.079  16.736   6.138 -0.1934  0.0518 -0.2229
  700POPI   D2A10812   0.123  16.666   6.668  0.3049  0.1610  0.0117
  700POPI   C3A10813   0.386  16.695   6.982 -0.2953 -0.1595  0.1767
  700POPI   C4A10814   0.555  16.944   7.379 -0.1843  0.1326  0.0613
  700POPI   C1B10815   0.568  16.751   6.340  0.0686  0.1614 -0.0849
  700POPI   C2B10816   0.814  16.588   6.650 -0.0202  0.0909  0.1466
  700POPI   C3B10817   0.907  16.614   7.068 -0.0398 -0.2074 -0.2866
  700POPI   C4B10818   1.088  16.512   7.551 -0.2620 -0.2432  0.2902
  701POPI    C110819  11.923   1.772   5.661 -0.1443  0.0031 -0.1635
  701POPI    C210820  11.899   2.115   5.865  0.1073 -0.0433 -0.0524
  701POPI    C310821  11.666   2.056   5.545  0.0448  0.2200 -0.0573
  701POPI   PO410822  12.220   1.694   5.718  0.0951  0.0426 -0.0360
  701POPI   GL110823  12.301   1.540   6.131  0.1026 -0.1643  0.5934
  701POPI   GL210824  12.381   1.311   6.080  0.2101  0.0627  0.2751
  701POPI   C1A10825  12.370   1.624   6.516  0.0791 -0.0381 -0.4311
  701POPI   D2A10826  12.073   1.637   6.859  0.1590  0.4134  0.1555
  701POPI   C3A10827  11.732   1.637   6.754  0.3656 -0.2867 -0.0179
  701POPI   C4A10828  11.422   2.023   6.791  0.0196  0.0067 -0.0787
  701POPI   C1B10829  12.475   1.130   6.458 -0.0341  0.1026 -0.0128
  701POPI   C2B10830  12.540   0.878   6.782  0.0014  0.3835 -0.3354
  701POPI   C3B10831  12.480   0.661   7.219  0.1745  0.1468 -0.0970
  701POPI   C4B10832  12.766   0.363   7.321 -0.1226 -0.0577 -0.1617
  702POPI    C110833   6.104  17.467   5.851  0.0145  0.1196 -0.0639
  702POPI    C210834   6.246  17.113   5.732  0.0383  0.0813  0.0760
  702POPI    C310835   6.123  17.381   5.461  0.1154  0.0064 -0.0345
  702POPI   PO410836   5.890  17.353   6.082 -0.0326  0.1963  0.2044
  702POPI   GL110837   5.758  17.245   6.479  0.3343 -0.3296  0.1429
  702POPI   GL210838   6.046  17.305   6.575 -0.2890  0.3681 -0.4276
  702POPI   C1A10839   5.629  17.713   6.671 -0.1921 -0.2205  0.0575
  702POPI   D2A10840   5.609  18.007   7.000  0.1513  0.0504 -0.1339
  702POPI   C3A10841   5.594  18.032   7.474 -0.1813  0.3338  0.0588
  702POPI   C4A10842   5.408  18.001   7.896 -0.2291 -0.1529  0.2073
  702POPI   C1B10843   5.912  17.361   6.920  0.0056 -0.2737  0.0668
  702POPI   C2B10844   5.737  17.402   7.178 -0.2367 -0.0207 -0.1145
  702POPI   C3B10845   5.567  17.473   7.570 -0.0734 -0.2667 -0.0323
  702POPI   C4B10846   5.382  17.241   7.834  0.0416  0.4419 -0.2259
  703POPI    C110847   1.787  10.015   5.696 -0.2044  0.2001 -0.1003
  703POPI    C210848   1.717   9.625   5.644  0.0214  0.1013  0.2967
  703POPI    C310849   1.997   9.809   5.425 -0.0887  0.0440  0.1052
  703POPI   PO410850   1.785  10.052   6.023 -0.3737 -0.3712 -0.1762
  703POPI   GL110851   1.596   9.872   6.355  0.2697  0.5817  0.1326
  703POPI   GL210852   1.311   9.909   6.400 -0.2343 -0.1599 -0.2713
  703POPI   C1A10853   1.949  10.006   6.734  0.2688 -0.1120  0.0358
  703POPI   D2A10854   1.908  10.399   6.993 -0.0162 -0.1343  0.0362
  703POPI   C3A10855   2.042  10.848   6.958 -0.0257 -0.1551 -0.2417
  703POPI   C4A10856   2.263  11.102   6.820  0.2434 -0.0376  0.1052
  703POPI   C1B10857   1.065   9.953   6.728 -0.4524  0.2252 -0.1273
  703POPI   C2B10858   0.893  10.240   6.987  0.2441 -0.3086 -0.0789
  703POPI   C3B10859   0.650  10.234   7.305 -0.3200 -0.0347 -0.2487
  703POPI   C4B10860   0.476  10.357   7.703  0.0225 -0.1656 -0.1050
  704POPI    C110861   5.019   7.093   5.914  0.0975  0.2880  0.4442
  704POPI    C210862   4.973   7.457   5.755  0.0383  0.1643  0.1722
  704POPI    C310863   5.300   7.242   5.672 -0.2448 -0.1235 -0.2396
  704POPI   PO410864   4.786   7.216   6.191 -0.1052 -0.0947 -0.0222
  704POPI   GL110865   4.731   7.287   6.576 -0.1951 -0.2819 -0.0892
  704POPI   GL210866   4.484   7.391   6.718  0.0878  0.0098  0.0822
  704POPI   C1A10867   4.685   6.991   6.971 -0.1010 -0.3297  0.0057
  704POPI   D2A10868   4.326   6.856   7.227 -0.5426  0.1593 -0.0091
  704POPI   C3A10869   4.256   7.155   7.489  0.1014  0.4668 -0.2230
  704POPI   C4A10870   4.530   7.433   7.674 -0.2606 -0.2932 -0.1144
  704POPI   C1B10871   4.323   7.530   7.097  0.0373 -0.3047  0.0679
  704POPI   C2B10872   3.948   7.493   7.423  0.1412  0.1256 -0.2333
  704POPI   C3B10873   3.776   7.092   7.472 -0.0938  0.1774 -0.2797
  704POPI   C4B10874   3.396   6.901   7.441  0.0060  0.0887  0.1779
  705POPI    C110875   8.580  12.152   6.053  0.1186 -0.0478  0.3054
  705POPI    C210876   8.255  12.022   6.247  0.0654 -0.1798  0.1316
  705POPI    C310877   8.247  12.061   5.849  0.1453  0.1699  0.1613
  705POPI   PO410878   8.753  11.902   6.155  0.2092 -0.2041  0.2209
  705POPI   GL110879   8.689  11.755   6.512  0.3466 -0.0043  0.0602
  705POPI   GL210880   8.557  11.544   6.439 -0.0216 -0.2278  0.2815
  705POPI   C1A10881   8.847  11.840   6.848 -0.3046  0.0218  0.0696
  705POPI   D2A10882   8.917  11.821   7.247 -0.3041 -0.0895 -0.1814
  705POPI   C3A10883   9.004  11.627   7.592  0.0228  0.1680 -0.0095
  705POPI   C4A10884   8.679  11.564   7.794  0.1696 -0.2250  0.0493
  705POPI   C1B10885   8.230  11.209   6.684 -0.0114 -0.1067 -0.0182
  705POPI   C2B10886   7.969  11.101   6.998  0.1165 -0.1658 -0.0462
  705POPI   C3B10887   7.736  10.901   7.255  0.0219 -0.0040  0.1096
  705POPI   C4B10888   7.828  11.008   7.671  0.1496  0.1130  0.0175
  706POPI    C110889  18.279   2.772   5.892  0.0792 -0.0649  0.1085
  706POPI    C210890  18.109   2.415   5.830  0.1020 -0.0844  0.1569
  706POPI    C310891  17.963   2.741   5.648 -0.0270 -0.0906  0.2477
  706POPI   PO410892  18.588   2.674   5.849  0.1550 -0.2461 -0.1179
  706POPI   GL110893  18.704   2.434   6.240 -0.1235  0.0742  0.1394
  706POPI   GL210894  18.994   2.277   6.235  0.1961 -0.1093  0.0896
  706POPI   C1A10895  18.710   2.160   6.641  0.1131  0.1435 -0.0273
  706POPI   D2A10896  18.605   2.046   6.998 -0.1141 -0.0824  0.0139
  706POPI   C3A10897  18.876   1.958   7.446 -0.1241 -0.2771  0.1116
  706POPI   C4A10898  18.781   1.855   7.833  0.0913  0.0380  0.0773
  706POPI   C1B10899  19.065   2.496   6.626 -0.3804 -0.2350 -0.2052
  706POPI   C2B10900  18.784   2.550   6.982  0.2881 -0.0206  0.0795
  706POPI   C3B10901  18.878   2.498   7.322 -0.4195  0.3319  0.2146
  706POPI   C4B10902  19.274   2.240   7.595  0.2209 -0.2045 -0.1202
  707POPI    C110903   7.657   6.154   5.816  0.2028  0.1593  0.1407
  707POPI    C210904   7.967   6.134   5.564 -0.0944  0.1425 -0.2329
  707POPI    C310905   7.667   6.389   5.492 -0.1748  0.1526  0.1196
  707POPI   PO410906   7.643   6.214   6.167 -0.0879 -0.0712  0.0333
  707POPI   GL110907   7.514   5.861   6.519 -0.0868  0.1077 -0.1836
  707POPI   GL210908   7.492   5.594   6.541  0.0525  0.3269 -0.0172
  707POPI   C1A10909   7.723   6.231   6.841  0.2713 -0.1240  0.1259
  707POPI   D2A10910   7.946   6.438   7.266  0.0028  0.0332  0.0582
  707POPI   C3A10911   7.744   6.773   7.368  0.0594 -0.0287  0.3677
  707POPI   C4A10912   7.538   7.083   7.156 -0.1516 -0.0780  0.2123
  707POPI   C1B10913   7.588   5.756   7.004 -0.2387  0.2591  0.0600
  707POPI   C2B10914   7.505   6.078   7.345  0.0914  0.2487 -0.6700
  707POPI   C3B10915   7.754   6.268   7.737  0.0709 -0.1065 -0.0958
  707POPI   C4B10916   7.917   6.410   8.116  0.0525  0.1430 -0.1792
  708POPI    C110917  17.684   3.985   5.851 -0.1786  0.1773  0.0279
  708POPI    C210918  17.853   3.719   5.606 -0.2034  0.1462  0.0442
  708POPI    C310919  17.952   3.725   5.993 -0.0219  0.3201 -0.0027
  708POPI   PO410920  17.427   3.990   5.762  0.4280  0.0332  0.1249
  708POPI   GL110921  17.118   3.835   6.004  0.0978 -0.3063 -0.0313
  708POPI   GL210922  17.300   3.876   6.281  0.0107  0.0704  0.3947
  708POPI   C1A10923  16.737   3.863   6.423  0.0996 -0.2657  0.2621
  708POPI   D2A10924  16.338   4.088   6.489 -0.2698 -0.2267  0.2927
  708POPI   C3A10925  16.346   4.031   6.841 -0.0449  0.2120  0.0881
  708POPI   C4A10926  16.139   4.088   7.233 -0.4329 -0.2706  0.2160
  708POPI   C1B10927  17.708   3.887   6.459 -0.1811 -0.0034 -0.3143
  708POPI   C2B10928  17.855   4.048   6.892 -0.2202  0.0672 -0.1378
  708POPI   C3B10929  17.719   4.323   7.338  0.2513  0.1034 -0.3686
  708POPI   C4B10930  18.007   4.682   7.500  0.1615  0.0755  0.2980
  709POPI    C110931   3.515  10.522   5.802  0.2140  0.1688  0.0633
  709POPI    C210932   3.242  10.794   5.695 -0.0077 -0.0424  0.0838
  709POPI    C310933   3.602  10.793   5.520 -0.0853  0.1193 -0.0800
  709POPI   PO410934   3.542  10.516   6.076  0.1049 -0.1163  0.0629
  709POPI   GL110935   3.485  10.755   6.500  0.2089  0.2099 -0.0650
  709POPI   GL210936   3.178  10.681   6.578 -0.1096 -0.1221 -0.0554
  709POPI   C1A10937   3.487  10.651   7.024 -0.5099  0.0792  0.4553
  709POPI   D2A10938   3.415  10.552   7.440 -0.3301 -0.3756 -0.1830
  709POPI   C3A10939   3.394  10.930   7.706  0.1546  0.2169  0.1612
  709POPI   C4A10940   3.442  11.313   7.560  0.1234 -0.1624 -0.1255
  709POPI   C1B10941   3.061  10.860   7.013  0.3343 -0.0027  0.0248
  709POPI   C2B10942   2.941  10.985   7.448  0.2010 -0.2126  0.2229
  709POPI   C3B10943   3.021  11.246   7.822  0.2069 -0.0445 -0.1659
  709POPI   C4B10944   3.130  11.664   7.979  0.0452 -0.0353  0.0397
  710POPI    C110945  15.896   7.902   5.517  0.0709 -0.0700 -0.0157
  710POPI    C210946  15.768   8.181   5.260  0.1370 -0.0401 -0.0163
  710POPI    C310947  15.711   7.793   5.179 -0.1069 -0.0225  0.0653
  710POPI   PO410948  16.021   8.101   5.736  0.1915 -0.0003 -0.1002
  710POPI   GL110949  16.067   7.965   6.200 -0.3523  0.2074  0.0982
  710POPI   GL210950  16.229   8.101   6.374  0.0645  0.0459  0.1592
  710POPI   C1A10951  16.069   7.662   6.500  0.1701 -0.0386  0.3937
  710POPI   D2A10952  15.772   7.561   6.760  0.1302 -0.1605 -0.1307
  710POPI   C3A10953  15.786   7.262   6.983  0.0062  0.3298  0.1249
  710POPI   C4A10954  15.711   7.049   7.299 -0.1472 -0.0399  0.3209
  710POPI   C1B10955  16.154   8.151   6.744 -0.0310 -0.1024 -0.0622
  710POPI   C2B10956  16.159   8.080   7.176  0.1581 -0.2848  0.1834
  710POPI   C3B10957  16.473   8.012   7.469 -0.2295 -0.2285 -0.3286
  710POPI   C4B10958  16.601   7.695   7.825  0.0402 -0.1400  0.1063
  711POPI    C110959   6.104   1.681   6.087 -0.2374  0.0448  0.0384
  711POPI    C210960   5.759   1.588   5.908 -0.1007 -0.0115 -0.1994
  711POPI    C310961   6.023   1.824   5.723 -0.0586  0.1229  0.0284
  711POPI   PO410962   6.134   1.482   6.237  0.1885  0.0622  0.4976
  711POPI   GL110963   5.875   1.462   6.646 -0.1619 -0.0672 -0.1211
  711POPI   GL210964   6.098   1.219   6.643  0.4119 -0.1718  0.0997
  711POPI   C1A10965   5.828   1.711   6.963 -0.2662 -0.1261  0.1595
  711POPI   D2A10966   5.675   1.782   7.424  0.0751 -0.2393 -0.1460
  711POPI   C3A10967   5.393   2.009   7.789  0.0894  0.3440 -0.0746
  711POPI   C4A10968   5.429   2.316   8.205 -0.2635  0.2059  0.0510
  711POPI   C1B10969   5.914   1.097   6.985 -0.0709  0.2123 -0.0314
  711POPI   C2B10970   5.704   1.288   7.349  0.1319  0.1836  0.0015
  711POPI   C3B10971   5.313   1.243   7.654 -0.1098 -0.0730  0.1560
  711POPI   C4B10972   5.342   1.534   8.005  0.1363  0.3152  0.0601
  712POPI    C110973   6.248   8.197   5.794 -0.1242  0.2627 -0.0833
  712POPI    C210974   5.987   8.133   5.497  0.0151 -0.0461 -0.1431
  712POPI    C310975   6.323   8.337   5.427 -0.0506  0.0614 -0.1468
  712POPI   PO410976   6.157   8.363   5.938  0.1106 -0.0579 -0.1604
  712POPI   GL110977   6.355   8.440   6.356  0.6044 -0.3565  0.3641
  712POPI   GL210978   6.584   8.361   6.542  0.1419  0.3330  0.0042
  712POPI   C1A10979   6.119   8.506   6.805 -0.3016  0.0717 -0.2823
  712POPI   D2A10980   5.920   8.719   7.082 -0.0411  0.2820 -0.0002
  712POPI   C3A10981   5.599   8.701   6.847  0.2165 -0.0308  0.1133
  712POPI   C4A10982   5.222   8.560   6.573  0.1513  0.1232  0.0549
  712POPI   C1B10983   6.653   8.426   6.958  0.0304  0.3228 -0.2652
  712POPI   C2B10984   6.822   8.229   7.324 -0.0850 -0.1186  0.0634
  712POPI   C3B10985   6.904   8.243   7.745 -0.0542 -0.1085  0.1888
  712POPI   C4B10986   6.767   8.113   8.161  0.3238  0.5230 -0.1642
  713POPI    C110987   6.280   0.496   6.246 -0.1339 -0.0373 -0.0418
  713POPI    C210988   6.214   0.696   6.586 -0.0578 -0.2422  0.0962
  713POPI    C310989   6.264   0.895   6.242  0.0352 -0.0254  0.2336
  713POPI   PO410990   6.175   0.277   6.269 -0.2358  0.0376 -0.0568
  713POPI   GL110991   5.886   0.114   6.633  0.0666  0.1641 -0.1943
  713POPI   GL210992   5.615  -0.010   6.699 -0.0533 -0.2053  0.0602
  713POPI   C1A10993   6.169   0.292   6.887 -0.3665 -0.3252 -0.1452
  713POPI   D2A10994   6.344   0.151   7.305 -0.0619 -0.0790 -0.0765
  713POPI   C3A10995   6.140   0.174   7.640  0.0101  0.1717 -0.0113
  713POPI   C4A10996   6.183   0.143   8.082  0.1115  0.4893 -0.0584
  713POPI   C1B10997   5.368  -0.080   7.141  0.0081 -0.1737  0.0681
  713POPI   C2B10998   5.098  -0.025   7.395  0.4467 -0.0368 -0.0374
  713POPI   C3B10999   5.185   0.004   7.816  0.0636  0.0203  0.4635
  713POPI   C4B11000   5.340   0.081   8.220  0.0434  0.3530  0.1060
  714POPI    C111001   5.769   6.499   5.956  0.0229  0.2297  0.0232
  714POPI    C211002   5.482   6.772   5.896 -0.0409  0.1711  0.0607
  714POPI    C311003   5.455   6.413   5.723  0.0019  0.1600  0.0770
  714POPI   PO411004   5.849   6.394   6.212  0.0704  0.0398  0.0020
  714POPI   GL111005   6.003   6.609   6.542  0.1979 -0.0749  0.1461
  714POPI   GL211006   6.173   6.291   6.586  0.1002  0.0349 -0.0584
  714POPI   C1A11007   5.691   6.827   6.844 -0.1626  0.1595 -0.0973
  714POPI   D2A11008   5.455   6.991   7.124 -0.0566 -0.1820  0.1173
  714POPI   C3A11009   5.091   6.913   7.275  0.0277 -0.1102 -0.2478
  714POPI   C4A11010   4.768   6.901   7.683  0.0940 -0.1480  0.0172
  714POPI   C1B11011   5.878   6.308   6.882  0.0203 -0.0291 -0.0232
  714POPI   C2B11012   5.790   6.471   7.275 -0.1794  0.1842  0.2315
  714POPI   C3B11013   5.679   6.820   7.591 -0.1981  0.0567 -0.0072
  714POPI   C4B11014   5.476   7.152   7.649 -0.1300  0.2633 -0.1501
  715POPI    C111015   2.712   0.262   5.652  0.0219  0.1013 -0.0689
  715POPI    C211016   2.932   0.596   5.663  0.1747  0.0036 -0.1207
  715POPI    C311017   3.107   0.244   5.589  0.0188 -0.0922 -0.0388
  715POPI   PO411018   2.596   0.231   5.870 -0.1824  0.1703 -0.1001
  715POPI   GL111019   2.543   0.178   6.262 -0.0922  0.0395 -0.0067
  715POPI   GL211020   2.775   0.086   6.385 -0.0003  0.0779  0.1604
  715POPI   C1A11021   2.755   0.495   6.681  0.2509 -0.2708  0.1671
  715POPI   D2A11022   2.800   0.501   7.151  0.0227  0.3909 -0.1707
  715POPI   C3A11023   2.540   0.446   7.531  0.2941 -0.0024 -0.1214
  715POPI   C4A11024   2.305   0.470   7.888  0.2895 -0.1625 -0.1631
  715POPI   C1B11025   2.771   0.033   6.923 -0.1642  0.0870  0.1047
  715POPI   C2B11026   2.700   0.027   7.314 -0.3221  0.1064  0.0623
  715POPI   C3B11027   2.827  -0.042   7.673  0.1258 -0.3718  0.0429
  715POPI   C4B11028   3.078  -0.085   7.972 -0.1104  0.3309 -0.0131
  716POPI    C111029   0.665   8.724   5.743 -0.0272  0.2786  0.2653
  716POPI    C211030   0.492   9.060   5.611  0.1861  0.2399 -0.1311
  716POPI    C311031   0.530   8.746   5.367 -0.0320 -0.0874  0.2427
  716POPI   PO411032   0.765   8.779   5.944 -0.0427  0.1911 -0.0046
  716POPI   GL111033   0.804   9.022   6.286 -0.1333 -0.0926  0.2529
  716POPI   GL211034   0.454   9.054   6.283  0.2481 -0.0350  0.3113
  716POPI   C1A11035   0.723   8.927   6.674  0.1177 -0.1743  0.2376
  716POPI   D2A11036   0.634   8.827   7.118 -0.1587  0.5197 -0.3417
  716POPI   C3A11037   0.639   9.119   7.360  0.1802 -0.0139  0.0550
  716POPI   C4A11038   0.738   9.425   7.758 -0.0029  0.1823 -0.5207
  716POPI   C1B11039   0.160   8.894   6.673 -0.3331  0.0128 -0.1588
  716POPI   C2B11040   0.069   8.768   7.131  0.0663  0.0401 -0.1915
  716POPI   C3B11041  -0.168   8.660   7.531 -0.1001 -0.2107 -0.2564
  716POPI   C4B11042  -0.116   8.988   7.802 -0.1607  0.2224 -0.2461
  717POPI    C111043  18.473   5.715   5.871  0.0578 -0.2760 -0.1541
  717POPI    C211044  18.472   5.713   5.471 -0.1735 -0.1689 -0.1560
  717POPI    C311045  18.261   5.440   5.674 -0.1291 -0.1675 -0.1076
  717POPI   PO411046  18.487   6.025   5.940 -0.2001 -0.3602  0.1996
  717POPI   GL111047  18.536   6.275   6.309  0.1837 -0.1479 -0.3626
  717POPI   GL211048  18.182   6.323   6.222 -0.2352 -0.4538 -0.0287
  717POPI   C1A11049  18.443   6.233   6.816  0.1326 -0.2267 -0.0376
  717POPI   D2A11050  18.809   6.262   7.197  0.1421 -0.0724 -0.0091
  717POPI   C3A11051  19.064   6.596   7.126  0.1918  0.0806  0.1474
  717POPI   C4A11052  19.192   6.977   7.418 -0.0799 -0.2041 -0.1784
  717POPI   C1B11053  17.975   6.136   6.636 -0.3895 -0.0645 -0.2414
  717POPI   C2B11054  17.759   5.761   6.801  0.1403  0.3882 -0.2699
  717POPI   C3B11055  17.354   5.491   6.724 -0.1968  0.2619  0.1416
  717POPI   C4B11056  17.142   5.256   6.476  0.1021 -0.1309  0.2663
  718POPI    C111057  12.635   6.805   5.578 -0.1168 -0.1139 -0.2000
  718POPI    C211058  12.464   6.498   5.386  0.0879 -0.4107  0.0828
  718POPI    C311059  12.862   6.515   5.421  0.0696 -0.1904  0.2004
  718POPI   PO411060  12.511   6.801   5.906  0.2054  0.0666  0.0159
  718POPI   GL111061  12.521   6.916   6.345 -0.0787 -0.1782 -0.2761
  718POPI   GL211062  12.601   6.644   6.511  0.0880 -0.1897  0.2352
  718POPI   C1A11063  12.099   7.129   6.534 -0.2073  0.3698  0.1553
  718POPI   D2A11064  11.849   7.430   6.687  0.3025 -0.2288  0.1434
  718POPI   C3A11065  12.048   7.691   6.975 -0.0464  0.0496  0.3845
  718POPI   C4A11066  11.886   8.110   7.195 -0.1520  0.1227 -0.2012
  718POPI   C1B11067  12.715   6.908   6.832 -0.1777  0.0435 -0.0247
  718POPI   C2B11068  12.683   7.100   7.178  0.1083 -0.2084  0.0929
  718POPI   C3B11069  12.659   7.116   7.595 -0.0435  0.0314  0.3366
  718POPI   C4B11070  12.434   7.450   7.789 -0.1446 -0.2546  0.4545
  719POPI    C111071   1.847  17.401   5.444 -0.1309  0.2244 -0.0490
  719POPI    C211072   1.744  17.044   5.294 -0.2334  0.2258  0.0168
  719POPI    C311073   1.488  17.351   5.273 -0.0384  0.3731 -0.2924
  719POPI   PO411074   2.000  17.372   5.744  0.3932  0.2861 -0.2823
  719POPI   GL111075   1.912  17.362   6.259  0.1002 -0.2533 -0.2427
  719POPI   GL211076   2.205  17.252   6.404 -0.1999  0.0862  0.0303
  719POPI   C1A11077   1.818  17.489   6.619 -0.0695  0.2028 -0.2480
  719POPI   D2A11078   1.621  17.507   6.978  0.0815 -0.2191  0.1823
  719POPI   C3A11079   1.418  17.642   7.358  0.0949  0.3038 -0.2515
  719POPI   C4A11080   1.500  17.944   7.731  0.2873  0.4103  0.1340
  719POPI   C1B11081   2.334  16.996   6.564  0.0872 -0.1377  0.0308
  719POPI   C2B11082   2.504  16.549   6.823 -0.2731 -0.2611 -0.2072
  719POPI   C3B11083   2.828  16.390   6.822  0.0623  0.2919  0.4282
  719POPI   C4B11084   3.192  16.118   6.656 -0.3701 -0.0313  0.3634
  720POPI    C111085   3.066   9.510   5.831 -0.0589  0.0580 -0.2680
  720POPI    C211086   3.433   9.565   5.681 -0.0524  0.0459 -0.2567
  720POPI    C311087   3.257   9.207   5.654  0.1177 -0.0729  0.1351
  720POPI   PO411088   3.047   9.700   6.006 -0.0945  0.1973 -0.0529
  720POPI   GL111089   3.333   9.611   6.339 -0.3679 -0.0289 -0.0235
  720POPI   GL211090   3.016   9.692   6.513 -0.0246  0.1239  0.0034
  720POPI   C1A11091   3.399   9.616   6.864  0.1336 -0.1295 -0.1400
  720POPI   D2A11092   3.711   9.644   7.270  0.3822  0.0381  0.0670
  720POPI   C3A11093   3.408   9.817   7.657 -0.1982 -0.0237 -0.0325
  720POPI   C4A11094   3.282   9.920   8.112  0.0183  0.1077  0.0475
  720POPI   C1B11095   2.885   9.651   6.922  0.1757 -0.1712 -0.2240
  720POPI   C2B11096   2.693   9.494   7.190 -0.5225 -0.4023  0.0437
  720POPI   C3B11097   2.717   9.100   7.307 -0.0618  0.3266 -0.0664
  720POPI   C4B11098   2.582   8.599   7.339 -0.2182  0.2446  0.3302
  721POPI    C111099   4.844   7.779   6.069  0.1230 -0.3363 -0.0558
  721POPI    C211100   4.548   7.694   6.323  0.2143 -0.1126  0.1288
  721POPI    C311101   4.527   7.570   5.944 -0.1167 -0.0959  0.1385
  721POPI   PO411102   5.088   7.741   6.376 -0.3361  0.1115  0.0958
  721POPI   GL111103   4.915   7.724   6.756  0.2288  0.0618  0.1659
  721POPI   GL211104   4.543   7.863   6.755  0.3185  0.2463  0.1394
  721POPI   C1A11105   4.789   7.547   7.093 -0.0407  0.1943  0.2958
  721POPI   D2A11106   4.961   7.477   7.462  0.0004 -0.1203 -0.3171
  721POPI   C3A11107   5.095   7.457   7.856  0.0366  0.2459 -0.0780
  721POPI   C4A11108   5.084   7.481   8.382 -0.2272 -0.1554 -0.0478
  721POPI   C1B11109   4.707   8.075   7.123 -0.0442  0.1287 -0.1885
  721POPI   C2B11110   4.784   7.955   7.546  0.3306  0.0528 -0.0975
  721POPI   C3B11111   4.717   7.788   8.012 -0.0107  0.0054  0.0197
  721POPI   C4B11112   4.701   7.245   8.144 -0.1989 -0.0493  0.0916
  722POPI    C111113   4.725   2.467   6.179  0.0995 -0.0988  0.1062
  722POPI    C211114   4.713   2.408   5.784  0.1372  0.0067  0.0889
  722POPI    C311115   5.058   2.367   5.981  0.1779  0.2278  0.0667
  722POPI   PO411116   4.660   2.675   6.295  0.0724  0.2335 -0.1719
  722POPI   GL111117   4.702   2.820   6.705 -0.3051 -0.3576 -0.3541
  722POPI   GL211118   4.457   2.625   6.805  0.2973  0.0912  0.1958
  722POPI   C1A11119   5.010   2.585   7.055 -0.1335  0.2354  0.1950
  722POPI   D2A11120   5.120   2.398   7.422  0.0820  0.0034 -0.0192
  722POPI   C3A11121   5.091   2.396   7.791  0.2729  0.3020 -0.2689
  722POPI   C4A11122   5.190   2.681   8.097  0.1971 -0.3107  0.1228
  722POPI   C1B11123   4.252   2.818   7.069 -0.0734 -0.1759  0.2275
  722POPI   C2B11124   4.236   2.923   7.497  0.0769 -0.0271  0.1805
  722POPI   C3B11125   4.324   3.008   7.988  0.2212 -0.0638  0.2654
  722POPI   C4B11126   4.418   3.176   8.330 -0.1860 -0.0794 -0.0824
  723POPI    C111127   8.927  12.815   5.641  0.0912  0.3003 -0.0342
  723POPI    C211128   9.293  12.703   5.526 -0.0229  0.0419 -0.1527
  723POPI    C311129   9.138  13.047   5.392  0.0264 -0.0334 -0.4090
  723POPI   PO411130   8.721  12.630   5.789 -0.0728  0.1602 -0.1736
  723POPI   GL111131   8.646  12.628   6.297  0.1256 -0.0329  0.0300
  723POPI   GL211132   8.891  12.674   6.493 -0.0515 -0.0587 -0.1129
  723POPI   C1A11133   8.510  12.370   6.618 -0.3035  0.0020 -0.0181
  723POPI   D2A11134   8.516  12.162   7.072 -0.3221  0.1840 -0.0052
  723POPI   C3A11135   8.741  12.257   7.444  0.0519 -0.1029  0.0156
  723POPI   C4A11136   8.828  12.074   7.874 -0.0539  0.0417  0.1638
  723POPI   C1B11137   8.961  12.387   6.840 -0.0959  0.1517  0.1114
  723POPI   C2B11138   9.099  12.311   7.149 -0.1113 -0.2479  0.0477
  723POPI   C3B11139   9.196  12.169   7.568 -0.0284  0.3041 -0.1320
  723POPI   C4B11140   9.357  11.914   7.813 -0.1646 -0.0681 -0.0001
  724POPI    C111141   2.596   5.257   6.130  0.0457  0.1985  0.0735
  724POPI    C211142   2.877   5.028   6.299  0.0020  0.0713 -0.0242
  724POPI    C311143   2.980   5.305   6.029  0.0393  0.0667 -0.0146
  724POPI   PO411144   2.454   5.262   6.407  0.1863  0.0540  0.2126
  724POPI   GL111145   2.184   5.231   6.751  0.0402 -0.2332 -0.0533
  724POPI   GL211146   1.995   5.632   6.848 -0.0530  0.0116  0.1941
  724POPI   C1A11147   1.954   4.906   7.014  0.1855 -0.1429  0.1701
  724POPI   D2A11148   1.710   4.796   7.411 -0.0572  0.3297 -0.3291
  724POPI   C3A11149   1.323   4.638   7.556 -0.1046 -0.1203  0.1564
  724POPI   C4A11150   0.926   4.883   7.481 -0.3821  0.3313  0.0094
  724POPI   C1B11151   1.835   5.843   7.219  0.1317  0.1069 -0.3018
  724POPI   C2B11152   1.813   5.691   7.635  0.3446 -0.2543  0.1351
  724POPI   C3B11153   1.790   5.646   8.048  0.1100 -0.1089 -0.2464
  724POPI   C4B11154   1.388   5.427   8.190 -0.2177  0.2027 -0.0539
  725POPI    C111155   9.061   3.768   6.006  0.1373  0.0326 -0.0160
  725POPI    C211156   9.253   3.780   6.357 -0.1739  0.0041  0.1597
  725POPI    C311157   9.236   4.107   6.127  0.0943  0.0023  0.1340
  725POPI   PO411158   8.984   3.471   6.042 -0.2765 -0.1188  0.2998
  725POPI   GL111159   9.104   3.232   6.369  0.2517  0.1356 -0.2591
  725POPI   GL211160   8.897   2.964   6.333  0.1957  0.2520  0.2879
  725POPI   C1A11161   9.456   3.374   6.594  0.0303 -0.1406  0.0219
  725POPI   D2A11162   9.643   3.494   7.079  0.0731 -0.1991  0.0569
  725POPI   C3A11163   9.687   3.840   7.342 -0.0721 -0.2430  0.2228
  725POPI   C4A11164   9.905   4.243   7.377 -0.0410 -0.2979 -0.4161
  725POPI   C1B11165   8.831   3.051   6.755  0.0238 -0.0333  0.0322
  725POPI   C2B11166   8.750   3.189   7.155 -0.2202 -0.0343  0.2841
  725POPI   C3B11167   8.705   3.456   7.478  0.2258 -0.1233  0.3135
  725POPI   C4B11168   8.584   3.615   7.869 -0.1702  0.0390  0.0288
  726POPI    C111169  13.058  12.083   5.265 -0.0079  0.0161  0.0524
  726POPI    C211170  12.928  11.828   4.985  0.0252  0.1726 -0.1066
  726POPI    C311171  13.243  12.064   4.911  0.3805 -0.1703  0.2585
  726POPI   PO411172  13.121  11.883   5.490  0.1905  0.1542  0.3525
  726POPI   GL111173  13.036  11.613   5.728 -0.0778 -0.2060  0.3114
  726POPI   GL211174  12.819  11.377   5.713  0.0442 -0.0203  0.0390
  726POPI   C1A11175  12.862  11.625   6.121  0.0401 -0.2757 -0.1169
  726POPI   D2A11176  12.968  11.833   6.487  0.1832  0.0910  0.0835
  726POPI   C3A11177  12.978  12.270   6.737  0.1015  0.0974 -0.1307
  726POPI   C4A11178  12.983  12.495   6.981 -0.0883 -0.1485 -0.1420
  726POPI   C1B11179  12.500  11.271   6.054 -0.1833 -0.0721 -0.2021
  726POPI   C2B11180  12.710  11.136   6.433  0.0892 -0.0014 -0.2847
  726POPI   C3B11181  12.694  10.929   6.961  0.4208 -0.0382  0.2828
  726POPI   C4B11182  12.466  11.010   7.319  0.0005 -0.3972  0.0764
  727POPI    C111183   1.991  13.047   5.513  0.2841  0.1043 -0.0366
  727POPI    C211184   1.949  13.435   5.603  0.3021  0.1322 -0.1474
  727POPI    C311185   1.881  13.307   5.230  0.1153 -0.0008 -0.0691
  727POPI   PO411186   1.935  12.912   5.738 -0.1153 -0.0721  0.1819
  727POPI   GL111187   1.754  13.047   6.117 -0.0042  0.2366  0.0978
  727POPI   GL211188   1.495  13.199   6.393 -0.0624  0.0683 -0.2056
  727POPI   C1A11189   1.808  12.693   6.375 -0.2779 -0.1157 -0.1340
  727POPI   D2A11190   1.910  12.600   6.732  0.2200  0.0288 -0.0977
  727POPI   C3A11191   1.702  12.767   7.034 -0.3108 -0.2747 -0.0725
  727POPI   C4A11192   1.398  12.765   7.453  0.0660  0.0188  0.2588
  727POPI   C1B11193   1.401  13.005   6.759 -0.1985 -0.0525  0.3325
  727POPI   C2B11194   1.071  12.890   7.065 -0.1250 -0.1878 -0.3226
  727POPI   C3B11195   0.727  13.053   7.040  0.4285  0.2364  0.3649
  727POPI   C4B11196   0.317  12.783   7.193  0.1808 -0.2790 -0.1649
  728POPI    C111197   0.873   4.473   5.786 -0.0548  0.1114  0.0576
  728POPI    C211198   1.203   4.700   5.776  0.0267 -0.0105 -0.0511
  728POPI    C311199   1.011   4.610   5.436 -0.0224 -0.0790 -0.0055
  728POPI   PO411200   0.857   4.494   6.070 -0.1488  0.2062 -0.5149
  728POPI   GL111201   0.836   4.297   6.428  0.1705  0.0410  0.0777
  728POPI   GL211202   0.839   4.613   6.590 -0.1109 -0.2906 -0.1045
  728POPI   C1A11203   0.913   4.060   6.739 -0.0256  0.1403  0.0358
  728POPI   D2A11204   0.982   3.883   7.217  0.2756 -0.0626 -0.1208
  728POPI   C3A11205   0.688   3.733   7.498 -0.1914 -0.1732  0.1576
  728POPI   C4A11206   0.571   3.234   7.556 -0.2325  0.1157  0.0780
  728POPI   C1B11207   0.723   4.639   7.021 -0.1718 -0.2877  0.1284
  728POPI   C2B11208   0.471   4.560   7.386 -0.0041 -0.0129  0.1670
  728POPI   C3B11209   0.578   4.501   7.855  0.3288 -0.0197  0.1212
  728POPI   C4B11210   0.861   4.523   8.116  0.1220  0.4205 -0.0365
  729POPI    C111211  12.636   3.995   5.399  0.1073 -0.1565  0.0161
  729POPI    C211212  12.549   3.624   5.278 -0.3286 -0.0614  0.0201
  729POPI    C311213  12.599   3.915   5.008 -0.0171 -0.1121  0.0185
  729POPI   PO411214  12.828   4.051   5.519 -0.1318  0.0859  0.1873
  729POPI   GL111215  12.754   4.136   5.878  0.0174  0.2069 -0.2248
  729POPI   GL211216  12.620   4.328   6.045  0.1079  0.0338  0.0294
  729POPI   C1A11217  12.781   3.763   6.166 -0.1463 -0.1011  0.0405
  729POPI   D2A11218  12.980   3.678   6.553 -0.0577  0.0317  0.0279
  729POPI   C3A11219  12.818   3.270   6.725 -0.0427 -0.1987 -0.2366
  729POPI   C4A11220  12.913   3.165   7.148  0.0184 -0.1757  0.1154
  729POPI   C1B11221  12.702   4.134   6.462 -0.1214  0.2182 -0.0091
  729POPI   C2B11222  12.788   4.210   6.775 -0.2105 -0.0244 -0.0328
  729POPI   C3B11223  12.641   4.104   7.146  0.0021 -0.0203 -0.0840
  729POPI   C4B11224  12.621   4.377   7.551  0.0031  0.0567  0.0026
  730POPI    C111225   5.069   4.458   6.208 -0.3226 -0.2954  0.2622
  730POPI    C211226   4.871   4.571   5.880  0.2044  0.0846  0.0602
  730POPI    C311227   5.066   4.222   5.885 -0.0883 -0.0820  0.0999
  730POPI   PO411228   5.046   4.741   6.373 -0.1715 -0.1033  0.4592
  730POPI   GL111229   5.062   4.830   6.791  0.1215  0.2749  0.1263
  730POPI   GL211230   4.720   4.928   6.889 -0.1077  0.1854 -0.3540
  730POPI   C1A11231   5.497   4.891   7.009 -0.0396 -0.0545 -0.0726
  730POPI   D2A11232   5.587   4.887   7.417 -0.0559  0.1654  0.1252
  730POPI   C3A11233   5.260   4.705   7.808 -0.0648 -0.1727 -0.0870
  730POPI   C4A11234   5.376   4.710   8.261 -0.0934  0.1890 -0.1632
  730POPI   C1B11235   4.408   5.268   7.120 -0.0957 -0.1608  0.1382
  730POPI   C2B11236   4.408   5.461   7.530 -0.1661 -0.0904  0.0715
  730POPI   C3B11237   4.558   5.523   8.010 -0.0406  0.0417  0.4329
  730POPI   C4B11238   4.415   5.575   8.450 -0.0180  0.0039 -0.4573
  731POPI    C111239   5.014   5.794   6.166  0.1900  0.0303 -0.0393
  731POPI    C211240   4.895   5.735   5.789  0.1530  0.0047 -0.0236
  731POPI    C311241   4.986   6.103   5.915 -0.1441  0.0613  0.0323
  731POPI   PO411242   4.920   5.581   6.350 -0.1781 -0.0430 -0.0458
  731POPI   GL111243   4.949   5.531   6.780  0.3749 -0.0341  0.1938
  731POPI   GL211244   5.075   5.370   6.821  0.2750  0.1301 -0.2968
  731POPI   C1A11245   4.808   5.553   7.257 -0.0398  0.3461 -0.1534
  731POPI   D2A11246   5.014   5.427   7.723 -0.0195  0.1727 -0.1907
  731POPI   C3A11247   5.008   5.690   8.064  0.1980  0.1939  0.2490
  731POPI   C4A11248   5.016   5.909   8.392 -0.3991 -0.1549  0.0285
  731POPI   C1B11249   5.270   5.664   7.100 -0.2805  0.1594 -0.4584
  731POPI   C2B11250   5.435   6.013   7.101  0.1297  0.4021 -0.1107
  731POPI   C3B11251   5.591   6.141   7.529 -0.0514 -0.0089  0.1205
  731POPI   C4B11252   5.694   6.376   7.906  0.2549 -0.1185  0.2348
  732POPI    C111253   3.221   5.414   6.472 -0.0785 -0.1662 -0.1394
  732POPI    C211254   3.466   5.534   6.180  0.1413 -0.1444  0.0511
  732POPI    C311255   3.441   5.146   6.273  0.1008 -0.1469  0.0298
  732POPI   PO411256   2.916   5.620   6.422 -0.0480  0.0128 -0.1906
  732POPI   GL111257   2.735   6.014   6.720  0.1019  0.1120 -0.0573
  732POPI   GL211258   2.613   5.610   6.789 -0.1582  0.3528 -0.1701
  732POPI   C1A11259   2.910   6.022   7.057  0.2576  0.0935 -0.3193
  732POPI   D2A11260   2.716   5.993   7.545  0.1581  0.0951  0.5235
  732POPI   C3A11261   2.804   6.364   7.838  0.0058  0.3147 -0.2092
  732POPI   C4A11262   2.892   6.462   8.263 -0.0673  0.1514 -0.0325
  732POPI   C1B11263   2.377   5.865   7.094  0.1986  0.3237  0.0870
  732POPI   C2B11264   2.262   5.911   7.476  0.3475 -0.0702  0.1304
  732POPI   C3B11265   2.350   6.222   7.721 -0.1757 -0.0995  0.1078
  732POPI   C4B11266   2.423   6.267   8.176 -0.1163 -0.2889 -0.1927
  733POPI    C111267   3.688  12.545   6.038 -0.1642 -0.1367  0.1839
  733POPI    C211268   3.313  12.491   6.166 -0.1751 -0.0707  0.1804
  733POPI    C311269   3.386  12.540   5.775 -0.2173  0.3817  0.2237
  733POPI   PO411270   3.765  12.580   6.273  0.1233 -0.4096  0.1910
  733POPI   GL111271   3.762  12.898   6.677  0.0317 -0.3072 -0.3521
  733POPI   GL211272   3.848  13.256   6.599  0.0410  0.1445 -0.0450
  733POPI   C1A11273   3.508  12.839   7.107 -0.0169  0.2064  0.0333
  733POPI   D2A11274   3.224  12.959   7.453 -0.1890  0.1777 -0.0481
  733POPI   C3A11275   3.076  12.472   7.640 -0.3168  0.3465  0.0560
  733POPI   C4A11276   2.851  12.589   7.992 -0.0459 -0.0122  0.2308
  733POPI   C1B11277   4.109  13.161   6.970 -0.0256 -0.1463 -0.1536
  733POPI   C2B11278   3.938  13.136   7.515  0.2291 -0.1320  0.3492
  733POPI   C3B11279   3.596  13.077   7.754 -0.1771 -0.1828  0.1878
  733POPI   C4B11280   3.152  13.105   7.964  0.0115  0.2614  0.0567
  734POPI    C111281  10.193   0.547   5.476 -0.0599 -0.0011  0.0129
  734POPI    C211282   9.844   0.419   5.625  0.0469 -0.0201  0.2512
  734POPI    C311283   9.994   0.251   5.294 -0.2570  0.1111  0.0426
  734POPI   PO411284  10.179   0.805   5.521  0.1363 -0.2680 -0.0754
  734POPI   GL111285  10.136   0.886   5.910  0.0354  0.1670  0.2989
  734POPI   GL211286  10.458   0.736   5.907  0.0135  0.0016  0.4262
  734POPI   C1A11287  10.200   0.836   6.363 -0.0647 -0.1551  0.0620
  734POPI   D2A11288  10.056   0.651   6.679  0.0845 -0.1363 -0.2802
  734POPI   C3A11289   9.915   0.691   7.195 -0.1872  0.5711  0.1988
  734POPI   C4A11290   9.878   1.051   7.404 -0.2398  0.0875  0.1352
  734POPI   C1B11291  10.716   0.908   6.307 -0.0468 -0.1180 -0.2402
  734POPI   C2B11292  10.512   0.834   6.789 -0.0913 -0.3127  0.2707
  734POPI   C3B11293  10.422   1.159   7.183  0.3079  0.3614  0.2514
  734POPI   C4B11294  10.254   1.395   7.526 -0.2447  0.0253 -0.1686
  735POPI    C111295  14.880  16.589   5.197  0.0992 -0.0846  0.1330
  735POPI    C211296  14.724  16.223   5.156  0.2482 -0.1608  0.2348
  735POPI    C311297  14.964  16.371   4.872  0.0225 -0.0578  0.0949
  735POPI   PO411298  14.590  16.770   5.245 -0.0288 -0.0204 -0.0263
  735POPI   GL111299  14.566  17.127   5.612 -0.2393 -0.1624  0.0764
  735POPI   GL211300  14.840  17.396   5.727 -0.0485  0.2031  0.0710
  735POPI   C1A11301  14.604  16.834   6.019 -0.4298 -0.3507 -0.2487
  735POPI   D2A11302  14.667  16.535   6.295 -0.2070 -0.0934 -0.0429
  735POPI   C3A11303  15.091  16.465   6.497 -0.0148 -0.1361 -0.0475
  735POPI   C4A11304  15.336  16.304   6.709 -0.0854 -0.1952  0.1084
  735POPI   C1B11305  14.636  17.296   6.049  0.2075 -0.1103 -0.3576
  735POPI   C2B11306  14.617  17.075   6.462  0.2261 -0.4844 -0.1131
  735POPI   C3B11307  14.837  16.893   6.774  0.0852  0.0837  0.1178
  735POPI   C4B11308  15.014  16.460   7.094  0.1033  0.1982  0.1339
  736POPI    C111309  11.496   4.448   5.895  0.0222 -0.2529 -0.0707
  736POPI    C211310  11.888   4.515   5.939 -0.0303  0.0633 -0.0618
  736POPI    C311311  11.745   4.390   5.587  0.0614  0.0822 -0.1061
  736POPI   PO411312  11.446   4.172   6.080  0.0396  0.1344 -0.0675
  736POPI   GL111313  11.675   4.245   6.371 -0.3298  0.0034  0.0310
  736POPI   GL211314  11.903   4.008   6.396 -0.0522 -0.2233 -0.4095
  736POPI   C1A11315  11.427   4.046   6.643  0.2960 -0.0455 -0.0250
  736POPI   D2A11316  11.237   3.960   7.094  0.0484 -0.1254  0.3307
  736POPI   C3A11317  11.243   3.592   7.256 -0.2558  0.3379  0.0606
  736POPI   C4A11318  11.118   3.128   7.143 -0.0877  0.0331  0.3252
  736POPI   C1B11319  11.909   3.634   6.507  0.0627  0.1749  0.3346
  736POPI   C2B11320  11.969   3.130   6.616 -0.0107 -0.0270  0.0324
  736POPI   C3B11321  12.007   2.900   7.026 -0.0411  0.1802 -0.0017
  736POPI   C4B11322  12.022   2.629   7.386  0.0542 -0.0759  0.3485
  737POPI    C111323   7.475   7.110   5.901 -0.2089  0.2620  0.1327
  737POPI    C211324   7.847   7.166   5.766 -0.1498 -0.0622  0.1520
  737POPI    C311325   7.537   7.324   5.569 -0.0088  0.1543  0.0989
  737POPI   PO411326   7.452   7.151   6.090 -0.1418  0.0133 -0.0017
  737POPI   GL111327   7.190   7.039   6.515 -0.0816 -0.0483 -0.0779
  737POPI   GL211328   7.512   6.985   6.625  0.3956  0.0039  0.0585
  737POPI   C1A11329   7.081   7.292   6.876  0.0140 -0.1264 -0.1875
  737POPI   D2A11330   7.070   7.365   7.362  0.3201 -0.3940  0.0015
  737POPI   C3A11331   6.684   7.678   7.369  0.3283 -0.2635  0.2093
  737POPI   C4A11332   6.502   7.656   7.735  0.0754  0.0535  0.1310
  737POPI   C1B11333   7.447   6.657   6.806  0.1421 -0.1276  0.1380
  737POPI   C2B11334   7.384   6.489   7.237  0.2183  0.1887 -0.1044
  737POPI   C3B11335   7.021   6.564   7.618 -0.3968 -0.0816 -0.0784
  737POPI   C4B11336   6.961   6.702   8.050  0.1804  0.2027  0.1910
  738POPS   CNO11337   6.848  13.891   5.777 -0.0158 -0.0075  0.1334
  738POPS   PO411338   6.494  13.769   5.988  0.1753 -0.1269 -0.3280
  738POPS   GL111339   6.358  14.066   6.300  0.0122 -0.3210 -0.1450
  738POPS   GL211340   6.147  14.097   6.476  0.4106 -0.1039  0.1230
  738POPS   C1A11341   6.583  14.086   6.715 -0.3117 -0.1930 -0.1189
  738POPS   D2A11342   7.001  14.289   6.863  0.0748 -0.1284 -0.1513
  738POPS   C3A11343   7.078  14.462   7.305  0.0363  0.0115 -0.0769
  738POPS   C4A11344   6.984  14.361   7.650  0.1596 -0.0105 -0.0366
  738POPS   C1B11345   6.203  13.770   6.768 -0.2477 -0.0348 -0.1731
  738POPS   C2B11346   6.264  13.698   7.244 -0.1687 -0.0969  0.1040
  738POPS   C3B11347   6.366  13.941   7.671 -0.1371 -0.1487 -0.4302
  738POPS   C4B11348   6.027  13.969   7.953 -0.0736 -0.2809  0.1986
  739POPS   CNO11349   7.831   9.645   5.929  0.0050 -0.1892 -0.0576
  739POPS   PO411350   7.666   9.992   6.200  0.2945  0.1266  0.4142
  739POPS   GL111351   7.798   9.965   6.546  0.1881 -0.0249 -0.0303
  739POPS   GL211352   8.051  10.177   6.671 -0.1090 -0.2673 -0.4459
  739POPS   C1A11353   7.915   9.920   7.052  0.1579  0.1340 -0.1357
  739POPS   D2A11354   8.141  10.186   7.260 -0.1313  0.0819 -0.0666
  739POPS   C3A11355   8.345  10.466   6.979 -0.0732  0.0819  0.1117
  739POPS   C4A11356   8.555  10.920   6.984  0.2244 -0.1095  0.0682
  739POPS   C1B11357   8.459   9.954   6.768  0.2522 -0.0388 -0.0750
  739POPS   C2B11358   8.471   9.787   7.148  0.1785  0.1961  0.0883
  739POPS   C3B11359   8.456   9.761   7.589  0.2876  0.2737 -0.1669
  739POPS   C4B11360   8.728   9.786   7.883 -0.0910 -0.2444  0.2908
  740POPS   CNO11361   2.093   4.447   6.106  0.0957  0.1157  0.1022
  740POPS   PO411362   1.690   4.618   6.184 -0.0806  0.0052 -0.0639
  740POPS   GL111363   1.786   4.588   6.585  0.1727  0.1795  0.1159
  740POPS   GL211364   2.071   4.413   6.597 -0.0398 -0.1639 -0.1561
  740POPS   C1A11365   1.587   4.474   6.991  0.2359  0.0557 -0.1673
  740POPS   D2A11366   1.715   4.215   7.276 -0.1034 -0.2847  0.0804
  740POPS   C3A11367   1.480   4.051   7.495  0.0932 -0.2493 -0.1490
  740POPS   C4A11368   1.209   3.676   7.624 -0.0922  0.1400 -0.0242
  740POPS   C1B11369   2.212   4.481   7.025 -0.1732  0.0948 -0.0439
  740POPS   C2B11370   2.265   4.191   7.303  0.0674  0.3187  0.0327
  740POPS   C3B11371   2.340   3.706   7.291 -0.2280 -0.0897  0.1966
  740POPS   C4B11372   2.170   3.287   7.421  0.1535 -0.1541 -0.0236
  741POPS   CNO11373   1.574  12.023   5.762  0.1270  0.3587  0.2877
  741POPS   PO411374   1.417  11.777   6.044 -0.1417 -0.0325 -0.3896
  741POPS   GL111375   1.197  11.963   6.365  0.1156  0.0839 -0.1174
  741POPS   GL211376   0.906  11.964   6.176 -0.0125  0.2435  0.0379
  741POPS   C1A11377   0.876  12.050   6.771  0.3502 -0.2278 -0.0927
  741POPS   D2A11378   0.449  12.105   6.992  0.0582  0.0375  0.0996
  741POPS   C3A11379   0.316  12.304   7.313  0.2020  0.0137  0.0642
  741POPS   C4A11380   0.480  12.467   7.622 -0.0893  0.0946  0.2066
  741POPS   C1B11381   0.835  11.571   6.487 -0.1369  0.0402 -0.1894
  741POPS   C2B11382   0.650  11.549   6.879  0.0097  0.0733 -0.0970
  741POPS   C3B11383   0.703  11.451   7.236 -0.1250 -0.0831 -0.0150
  741POPS   C4B11384   0.544  11.537   7.566  0.1525 -0.1527 -0.4504
  742POPS   CNO11385  11.607  11.215   6.046 -0.1503 -0.1459 -0.0803
  742POPS   PO411386  11.512  11.474   5.647  0.0052 -0.0279  0.0255
  742POPS   GL111387  11.373  11.646   6.094  0.1585  0.3069 -0.0428
  742POPS   GL211388  11.142  11.639   6.342  0.3333  0.0471 -0.3870
  742POPS   C1A11389  11.618  11.690   6.431 -0.2335  0.0472 -0.3445
  742POPS   D2A11390  11.555  11.887   6.859 -0.1553  0.2082  0.1745
  742POPS   C3A11391  11.469  11.791   7.313 -0.1717  0.0452 -0.1781
  742POPS   C4A11392  11.542  11.554   7.697 -0.3771 -0.2593 -0.1431
  742POPS   C1B11393  11.109  11.500   6.679  0.2862 -0.0336 -0.3983
  742POPS   C2B11394  11.093  11.560   7.157 -0.5294 -0.1623 -0.1586
  742POPS   C3B11395  11.058  11.527   7.632 -0.0159 -0.1729 -0.0590
  742POPS   C4B11396  10.875  11.232   7.802 -0.1361 -0.0638 -0.0517
  743POPS   CNO11397  17.604  17.827   5.279  0.1366 -0.0936 -0.0277
  743POPS   PO411398  17.367  18.240   5.440 -0.1128 -0.1951  0.0781
  743POPS   GL111399  17.569  18.133   5.817  0.2337 -0.0662  0.2511
  743POPS   GL211400  17.754  18.449   5.937  0.0031  0.2336 -0.1956
  743POPS   C1A11401  17.793  17.931   6.111  0.1922 -0.0842 -0.2648
  743POPS   D2A11402  18.063  17.652   6.374  0.0793 -0.2926  0.0366
  743POPS   C3A11403  18.470  17.475   6.327  0.0270  0.2879  0.0120
  743POPS   C4A11404  18.666  17.152   6.419  0.2618  0.2287  0.0764
  743POPS   C1B11405  18.057  18.411   6.280  0.0497  0.1341  0.0340
  743POPS   C2B11406  18.110  18.496   6.714  0.0087 -0.1738 -0.2281
  743POPS   C3B11407  18.016  18.215   7.014 -0.2737  0.0178 -0.1502
  743POPS   C4B11408  18.277  18.053   7.387 -0.1317 -0.3080 -0.2629
  744POPS   CNO11409  12.321  14.198   5.613 -0.2366  0.0538  0.2050
  744POPS   PO411410  12.610  14.014   5.395  0.0020 -0.0427 -0.2377
  744POPS   GL111411  12.752  13.981   5.846 -0.1256  0.0706 -0.0427
  744POPS   GL211412  12.722  13.645   5.868 -0.0255 -0.1058 -0.1416
  744POPS   C1A11413  12.863  14.391   6.081 -0.0123 -0.0024  0.3017
  744POPS   D2A11414  12.855  14.640   6.470  0.0364 -0.0578 -0.0391
  744POPS   C3A11415  13.066  14.925   6.580 -0.1909 -0.1287  0.2241
  744POPS   C4A11416  13.261  15.259   6.717 -0.3789  0.0030 -0.1924
  744POPS   C1B11417  12.554  13.664   6.215 -0.2053 -0.4202  0.0397
  744POPS   C2B11418  12.420  13.695   6.628  0.0744  0.1946 -0.5363
  744POPS   C3B11419  12.352  13.649   7.127  0.0362  0.3366  0.0135
  744POPS   C4B11420  12.300  13.918   7.489  0.0716 -0.1789 -0.0572
  745POPS   CNO11421  13.124  13.672   5.554  0.1176  0.0742  0.0323
  745POPS   PO411422  13.421  13.340   5.444 -0.3436 -0.0552 -0.2834
  745POPS   GL111423  13.640  13.540   5.779  0.2559 -0.3225 -0.0761
  745POPS   GL211424  13.976  13.484   5.912  0.1037  0.2335  0.1889
  745POPS   C1A11425  13.474  13.719   6.048 -0.0696 -0.2829 -0.0105
  745POPS   D2A11426  13.052  13.783   6.199 -0.1493  0.1742  0.1679
  745POPS   C3A11427  13.003  13.764   6.573  0.0139 -0.1901 -0.1215
  745POPS   C4A11428  13.140  13.832   7.009 -0.1106  0.1067 -0.2383
  745POPS   C1B11429  13.867  13.435   6.263 -0.1360  0.1662 -0.2527
  745POPS   C2B11430  13.458  13.506   6.514  0.1543  0.2631 -0.0885
  745POPS   C3B11431  13.252  13.409   6.830  0.3536  0.0403  0.2007
  745POPS   C4B11432  13.048  13.285   7.315 -0.0457  0.1004 -0.1080
  746POPS   CNO11433   5.870  12.909   5.657  0.1579 -0.2066 -0.1050
  746POPS   PO411434   5.867  13.131   6.133 -0.1618  0.0033  0.1058
  746POPS   GL111435   6.022  13.115   6.481  0.0142  0.2632 -0.0515
  746POPS   GL211436   6.027  12.815   6.560 -0.0263  0.1234  0.4308
  746POPS   C1A11437   6.194  13.246   6.922 -0.3015 -0.0082  0.4104
  746POPS   D2A11438   6.346  13.065   7.350  0.0874 -0.2788 -0.1499
  746POPS   C3A11439   6.337  13.400   7.675 -0.0026 -0.0317  0.1701
  746POPS   C4A11440   5.980  13.433   7.936  0.2292 -0.0160  0.3488
  746POPS   C1B11441   6.189  12.695   6.863 -0.3153  0.1497  0.0442
  746POPS   C2B11442   6.081  12.646   7.306  0.0824  0.3715  0.1257
  746POPS   C3B11443   5.873  12.766   7.634  0.2141  0.1069  0.1900
  746POPS   C4B11444   5.574  13.195   7.691 -0.0190  0.0439 -0.4258
  747POPS   CNO11445  15.765  14.658   4.749 -0.2757  0.0824  0.0442
  747POPS   PO411446  16.020  14.565   5.149 -0.0409  0.0667 -0.0246
  747POPS   GL111447  15.848  14.591   5.554  0.1668 -0.1259  0.2103
  747POPS   GL211448  15.550  14.488   5.595  0.2720  0.0608 -0.1879
  747POPS   C1A11449  15.625  14.874   5.895  0.0691  0.1946  0.0239
  747POPS   D2A11450  15.612  14.868   6.272  0.1448 -0.2426  0.0074
  747POPS   C3A11451  15.234  14.692   6.576  0.0591 -0.1272  0.0204
  747POPS   C4A11452  15.008  14.411   6.891  0.1278  0.1676  0.0095
  747POPS   C1B11453  15.561  14.276   5.897  0.0457 -0.0317 -0.0289
  747POPS   C2B11454  15.434  14.316   6.252  0.1527  0.1258  0.2549
  747POPS   C3B11455  15.035  14.379   6.281 -0.0382 -0.2985  0.5574
  747POPS   C4B11456  14.620  14.093   6.168 -0.1111  0.0240  0.2452
  748POPS   CNO11457  17.058  17.542   5.450 -0.1417  0.2783 -0.3170
  748POPS   PO411458  16.795  17.506   5.117 -0.0008  0.0981 -0.0250
  748POPS   GL111459  16.597  17.719   5.436  0.1681 -0.0880 -0.0136
  748POPS   GL211460  16.390  17.812   5.497  0.0683 -0.0006  0.1455
  748POPS   C1A11461  16.730  17.678   5.815  0.2420  0.1172 -0.0854
  748POPS   D2A11462  16.742  17.749   6.283 -0.0614  0.0618  0.0144
  748POPS   C3A11463  16.497  17.593   6.603 -0.1933  0.1412 -0.1348
  748POPS   C4A11464  16.330  17.522   7.080 -0.1104 -0.4161 -0.0207
  748POPS   C1B11465  16.275  17.911   5.917 -0.0684  0.0831 -0.1019
  748POPS   C2B11466  16.131  17.686   6.171  0.2104 -0.3858 -0.2752
  748POPS   C3B11467  16.027  17.806   6.672  0.2089  0.0584  0.0865
  748POPS   C4B11468  15.773  17.772   6.990 -0.6590  0.0876 -0.0430
  749POPS   CNO11469  12.751   2.704   5.828 -0.0352 -0.0106  0.4292
  749POPS   PO411470  12.998   3.012   5.879 -0.0987 -0.2697  0.2671
  749POPS   GL111471  12.798   3.170   6.245 -0.1010 -0.2232  0.1376
  749POPS   GL211472  12.461   2.976   6.439  0.2195 -0.1336 -0.0050
  749POPS   C1A11473  12.469   3.456   6.430 -0.1670  0.1167  0.0840
  749POPS   D2A11474  12.571   3.696   6.791 -0.1023 -0.2850 -0.3075
  749POPS   C3A11475  12.815   3.647   7.138  0.1671 -0.1454  0.1807
  749POPS   C4A11476  13.119   3.454   7.447  0.0697  0.0389  0.1563
  749POPS   C1B11477  12.307   2.677   6.618  0.3281  0.0357  0.3042
  749POPS   C2B11478  12.235   2.466   6.969 -0.3275 -0.1022  0.1097
  749POPS   C3B11479  12.151   2.030   7.135 -0.0605  0.0681 -0.0362
  749POPS   C4B11480  12.400   1.710   7.218  0.1149 -0.5823 -0.3010
  750POPS   CNO11481   0.090   1.592   5.778  0.2600  0.1676  0.0914
  750POPS   PO411482  -0.237   1.726   5.904 -0.0975  0.0624  0.2287
  750POPS   GL111483  -0.157   1.920   6.239  0.4057  0.0120 -0.0479
  750POPS   GL211484  -0.253   2.222   6.240 -0.1888  0.0159 -0.1884
  750POPS   C1A11485  -0.052   1.740   6.683  0.3758  0.2158  0.2514
  750POPS   D2A11486   0.097   1.411   6.917 -0.1765  0.3433 -0.1338
  750POPS   C3A11487   0.492   1.173   6.678  0.0901 -0.0361  0.2750
  750POPS   C4A11488   0.929   1.165   6.571  0.0533  0.2141 -0.0612
  750POPS   C1B11489  -0.516   2.145   6.501 -0.1049 -0.0795  0.2009
  750POPS   C2B11490  -0.916   2.096   6.866  0.0585 -0.0973  0.2919
  750POPS   C3B11491  -1.111   2.387   7.229  0.1546 -0.1055  0.0630
  750POPS   C4B11492  -0.995   2.443   7.651 -0.1382  0.0559  0.1668
  751POPS   CNO11493   9.032  15.125   5.746  0.1956  0.1315 -0.0161
  751POPS   PO411494   8.918  15.285   6.068 -0.0243 -0.0303  0.0813
  751POPS   GL111495   8.640  15.387   6.298  0.1697 -0.2382 -0.4325
  751POPS   GL211496   8.218  15.361   6.313 -0.0562 -0.0467  0.2125
  751POPS   C1A11497   8.656  15.397   6.854  0.1211  0.0337 -0.1375
  751POPS   D2A11498   8.498  15.629   7.149  0.0113  0.1924  0.0334
  751POPS   C3A11499   8.369  15.506   7.538  0.0613  0.1782  0.2787
  751POPS   C4A11500   7.953  15.526   7.606 -0.1606 -0.0545  0.0134
  751POPS   C1B11501   8.215  15.271   6.714  0.1074  0.3169  0.1524
  751POPS   C2B11502   8.269  15.113   7.106 -0.1997 -0.0258 -0.2015
  751POPS   C3B11503   8.104  15.014   7.533 -0.1508 -0.0178  0.2774
  751POPS   C4B11504   8.164  15.233   7.978 -0.0510 -0.0106 -0.0535
  752POPS   CNO11505   7.103   6.096   5.892  0.3319  0.2009  0.0735
  752POPS   PO411506   7.337   5.839   6.026 -0.0816 -0.1119  0.1068
  752POPS   GL111507   7.055   5.840   6.332 -0.0465 -0.0859  0.0849
  752POPS   GL211508   7.138   6.195   6.452 -0.0500 -0.2886  0.2477
  752POPS   C1A11509   6.999   5.756   6.857 -0.0909  0.0911  0.1996
  752POPS   D2A11510   7.036   5.727   7.282  0.2067 -0.1662 -0.0501
  752POPS   C3A11511   7.131   5.475   7.658 -0.1004 -0.1047  0.3767
  752POPS   C4A11512   7.407   5.301   7.903  0.1587  0.2629  0.2381
  752POPS   C1B11513   7.201   6.222   6.725 -0.1161 -0.0373 -0.0892
  752POPS   C2B11514   6.960   6.292   7.171 -0.1291  0.1672 -0.1733
  752POPS   C3B11515   6.587   6.494   7.293 -0.1702 -0.1107 -0.1277
  752POPS   C4B11516   6.279   6.219   7.140  0.0255 -0.1307  0.0158
  753POPS   CNO11517   7.959   2.630   5.668 -0.0970 -0.1330 -0.1437
  753POPS   PO411518   7.815   2.260   5.777  0.1755  0.1178  0.0788
  753POPS   GL111519   7.694   2.174   6.176 -0.0943 -0.0434  0.2981
  753POPS   GL211520   7.389   2.263   6.324  0.0016  0.3391  0.2213
  753POPS   C1A11521   7.743   2.050   6.603  0.1816  0.1770  0.0981
  753POPS   D2A11522   7.554   1.763   6.893 -0.1531 -0.0271  0.0395
  753POPS   C3A11523   7.405   1.349   6.703 -0.3142 -0.2473 -0.0072
  753POPS   C4A11524   7.462   0.933   6.984 -0.0814 -0.0750 -0.0193
  753POPS   C1B11525   7.179   2.063   6.653 -0.1175 -0.0803  0.3801
  753POPS   C2B11526   6.751   2.098   6.780 -0.0749 -0.2022  0.5135
  753POPS   C3B11527   6.395   2.312   6.629  0.1092 -0.1403 -0.2559
  753POPS   C4B11528   6.407   2.763   6.534 -0.0848  0.1790 -0.0518
  754POPS   CNO11529  16.544  16.954   5.117  0.0459  0.1794  0.1825
  754POPS   PO411530  16.229  16.957   5.359  0.2237 -0.0568 -0.3165
  754POPS   GL111531  16.565  17.233   5.516 -0.2300 -0.1426  0.1515
  754POPS   GL211532  16.394  17.375   5.794 -0.1530 -0.0602 -0.1706
  754POPS   C1A11533  16.906  17.215   5.799  0.0876 -0.0851  0.0726
  754POPS   D2A11534  16.710  17.246   6.188 -0.0776 -0.0840  0.0136
  754POPS   C3A11535  16.649  17.082   6.549 -0.1501  0.1686  0.0238
  754POPS   C4A11536  16.663  17.189   6.927  0.1620 -0.2898  0.1259
  754POPS   C1B11537  16.233  17.173   6.149  0.3145  0.0642 -0.1274
  754POPS   C2B11538  16.202  17.160   6.543  0.1943  0.1374 -0.0621
  754POPS   C3B11539  16.116  17.056   6.951  0.1259 -0.1932  0.0434
  754POPS   C4B11540  15.893  16.848   7.208  0.3358 -0.1196  0.3276
  755POPS   CNO11541  14.948   2.298   5.192  0.1226 -0.1242 -0.0018
  755POPS   PO411542  15.054   2.243   5.642 -0.1075 -0.0423 -0.1073
  755POPS   GL111543  15.099   2.410   6.053 -0.1937  0.0338 -0.3175
  755POPS   GL211544  15.118   2.767   6.080  0.1157 -0.2206  0.0750
  755POPS   C1A11545  15.117   2.462   6.495 -0.0655 -0.1378  0.3164
  755POPS   D2A11546  14.928   2.529   6.915 -0.0514  0.1067 -0.2196
  755POPS   C3A11547  15.196   2.263   7.122 -0.0855  0.0580 -0.0441
  755POPS   C4A11548  15.131   1.907   7.370 -0.1939  0.0599 -0.0913
  755POPS   C1B11549  15.210   3.011   6.516 -0.0237  0.2665 -0.3215
  755POPS   C2B11550  15.280   2.935   6.891 -0.0473  0.1025 -0.2549
  755POPS   C3B11551  15.245   2.775   7.294 -0.4302 -0.3017  0.3408
  755POPS   C4B11552  15.413   2.732   7.738 -0.0018  0.0097 -0.1920
  756POPS   CNO11553  12.175   8.267   5.518  0.1212 -0.2005 -0.1011
  756POPS   PO411554  12.493   8.286   5.855 -0.2598  0.0685  0.1440
  756POPS   GL111555  12.643   8.435   6.304  0.2734 -0.1258  0.0030
  756POPS   GL211556  12.533   8.741   6.372 -0.2904  0.1552  0.0512
  756POPS   C1A11557  12.655   8.425   6.748  0.0035 -0.1645 -0.2319
  756POPS   D2A11558  12.682   8.367   7.117 -0.0195 -0.0384 -0.2295
  756POPS   C3A11559  12.382   8.098   7.159 -0.1585  0.1513 -0.2050
  756POPS   C4A11560  12.287   7.801   7.401  0.1366 -0.0017  0.0854
  756POPS   C1B11561  12.654   9.040   6.655  0.1828 -0.0108  0.4774
  756POPS   C2B11562  12.779   8.879   7.051  0.2215 -0.1684  0.1766
  756POPS   C3B11563  12.830   8.774   7.413 -0.2292  0.0715 -0.1961
  756POPS   C4B11564  13.009   8.518   7.681  0.0817 -0.0638  0.0314
  757POPS   CNO11565  18.035   5.930   5.638 -0.0157  0.0412  0.1236
  757POPS   PO411566  17.670   5.619   5.587 -0.0975  0.2624  0.2577
  757POPS   GL111567  17.419   5.863   5.891  0.3003  0.0709  0.0106
  757POPS   GL211568  17.111   5.874   5.865 -0.1605  0.3681 -0.1865
  757POPS   C1A11569  17.576   6.063   6.222 -0.1462 -0.1904  0.1930
  757POPS   D2A11570  17.692   6.443   6.410  0.0639 -0.1016 -0.2988
  757POPS   C3A11571  17.579   6.362   6.876  0.0599  0.1919 -0.2534
  757POPS   C4A11572  17.593   6.465   7.278 -0.0909 -0.1881 -0.1746
  757POPS   C1B11573  17.111   5.814   6.306  0.3939  0.1672  0.2180
  757POPS   C2B11574  17.251   5.985   6.697 -0.4304 -0.4172  0.2071
  757POPS   C3B11575  17.360   5.903   7.032 -0.2562 -0.3148 -0.0533
  757POPS   C4B11576  17.857   6.071   7.233  0.3004 -0.1277  0.1516
  758POPS   CNO11577  15.511  17.833   5.235  0.0031 -0.0647  0.0852
  758POPS   PO411578  15.936  17.761   5.156 -0.2038  0.0175 -0.0889
  758POPS   GL111579  15.791  17.825   5.624  0.2123 -0.0385  0.0190
  758POPS   GL211580  15.947  18.138   5.660  0.0702 -0.1389 -0.0378
  758POPS   C1A11581  15.360  17.782   5.822 -0.2020  0.1963 -0.1478
  758POPS   D2A11582  15.084  17.713   5.932 -0.0531 -0.0823  0.3200
  758POPS   C3A11583  15.090  18.003   6.382  0.2039  0.0784 -0.0410
  758POPS   C4A11584  15.275  17.789   6.713  0.4914  0.2434  0.1900
  758POPS   C1B11585  15.777  18.038   6.058 -0.1686  0.0967 -0.1754
  758POPS   C2B11586  15.547  17.777   6.287 -0.0715  0.2486  0.3362
  758POPS   C3B11587  15.323  17.454   6.257  0.1628  0.0467  0.0359
  758POPS   C4B11588  14.939  17.491   6.389 -0.0533  0.2154  0.0438
  759POPS   CNO11589   0.657  13.384   5.796  0.1533  0.0545 -0.1101
  759POPS   PO411590   0.723  13.745   5.896 -0.2769 -0.0776 -0.1628
  759POPS   GL111591   0.714  13.560   6.304  0.1614 -0.0428  0.0223
  759POPS   GL211592   0.501  13.323   6.270 -0.2000 -0.1797  0.0510
  759POPS   C1A11593   0.629  13.477   6.774  0.0182 -0.0668  0.0792
  759POPS   D2A11594   0.289  13.619   6.987 -0.0012 -0.0553  0.0845
  759POPS   C3A11595   0.072  13.283   7.282 -0.1058 -0.3793  0.2854
  759POPS   C4A11596   0.269  13.141   7.610 -0.0487 -0.0010  0.3302
  759POPS   C1B11597   0.163  13.602   6.480 -0.0970  0.0346  0.0365
  759POPS   C2B11598  -0.166  13.620   6.809 -0.0307 -0.2714 -0.0026
  759POPS   C3B11599  -0.422  13.623   7.027 -0.1025 -0.1456  0.3890
  759POPS   C4B11600  -0.588  13.663   7.448  0.0206  0.2360  0.1023
  760POPS   CNO11601  15.302   1.159   5.392 -0.0186  0.0733 -0.0086
  760POPS   PO411602  15.706   1.279   5.609  0.1583 -0.0680 -0.0434
  760POPS   GL111603  15.789   1.133   6.013  0.0282 -0.1629  0.0532
  760POPS   GL211604  16.098   1.239   6.112 -0.0325  0.1717  0.2051
  760POPS   C1A11605  15.544   0.939   6.282  0.1009  0.0250  0.0615
  760POPS   D2A11606  15.246   1.184   6.446  0.0360  0.0317  0.0658
  760POPS   C3A11607  15.110   1.020   6.688 -0.0208 -0.2821  0.3466
  760POPS   C4A11608  15.284   0.749   6.879  0.3322 -0.1520  0.4949
  760POPS   C1B11609  15.962   1.258   6.497  0.0998 -0.0120 -0.1451
  760POPS   C2B11610  16.137   1.307   6.927  0.1628 -0.0896  0.1324
  760POPS   C3B11611  16.485   1.396   7.156  0.0840 -0.2138 -0.1210
  760POPS   C4B11612  16.709   1.643   7.483 -0.1692 -0.0704  0.1462
  761POPS   CNO11613  12.597   1.385   5.104 -0.3105  0.2849 -0.0791
  761POPS   PO411614  13.029   1.466   5.354 -0.1057 -0.2886 -0.0356
  761POPS   GL111615  13.304   1.183   5.686  0.1872  0.0653 -0.0241
  761POPS   GL211616  13.658   1.192   5.674 -0.0566 -0.1550 -0.1181
  761POPS   C1A11617  13.487   1.033   6.113 -0.1296 -0.3413  0.1486
  761POPS   D2A11618  13.423   1.068   6.428  0.2855 -0.0470  0.0118
  761POPS   C3A11619  13.435   1.456   6.642 -0.2664  0.0773  0.0884
  761POPS   C4A11620  13.677   1.673   6.500  0.0949 -0.3246  0.0130
  761POPS   C1B11621  13.944   0.923   5.984 -0.0605 -0.0336 -0.1315
  761POPS   C2B11622  14.144   0.946   6.402 -0.0471 -0.0832 -0.0708
  761POPS   C3B11623  14.308   1.016   6.761  0.2282 -0.1477  0.0066
  761POPS   C4B11624  14.650   1.144   6.968 -0.1279  0.0915 -0.2724
  762POPS   CNO11625   7.354  15.751   5.880 -0.1111 -0.0111 -0.0476
  762POPS   PO411626   7.345  15.303   5.832  0.2314 -0.0495  0.1968
  762POPS   GL111627   7.120  15.469   6.188 -0.4698  0.1998  0.1102
  762POPS   GL211628   6.993  15.267   6.381 -0.0836  0.0796  0.0742
  762POPS   C1A11629   7.285  15.702   6.502  0.0146  0.1629 -0.2050
  762POPS   D2A11630   7.166  16.146   6.654  0.0770  0.1744 -0.3241
  762POPS   C3A11631   7.038  16.237   7.101 -0.2228 -0.3034 -0.0892
  762POPS   C4A11632   7.228  16.293   7.529 -0.2065 -0.0242  0.1498
  762POPS   C1B11633   7.244  15.251   6.804 -0.1318 -0.0100 -0.0532
  762POPS   C2B11634   7.324  15.464   7.120 -0.0502  0.1308 -0.0022
  762POPS   C3B11635   7.474  15.941   7.158  0.1823  0.0931  0.0628
  762POPS   C4B11636   7.793  16.140   7.513  0.0002  0.0181  0.0910
  763POPS   CNO11637  17.521  10.564   5.970 -0.2925  0.1042  0.0865
  763POPS   PO411638  17.295  10.838   5.637 -0.1075  0.2100  0.0770
  763POPS   GL111639  17.080  10.952   5.995  0.1079 -0.0666  0.0613
  763POPS   GL211640  16.999  10.670   6.013  0.2980  0.0868 -0.0349
  763POPS   C1A11641  17.000  11.104   6.484 -0.0269 -0.0187  0.4273
  763POPS   D2A11642  16.889  11.099   6.864  0.1128 -0.0809 -0.2864
  763POPS   C3A11643  17.075  10.984   7.238 -0.3061 -0.1552 -0.0045
  763POPS   C4A11644  16.931  10.937   7.685  0.1544 -0.3440 -0.1128
  763POPS   C1B11645  16.657  10.758   6.247  0.1614 -0.0097  0.0545
  763POPS   C2B11646  16.702  10.513   6.575  0.1349  0.0875  0.2603
  763POPS   C3B11647  16.753  10.505   6.962 -0.1032 -0.0046 -0.1032
  763POPS   C4B11648  16.953  10.541   7.357  0.0083 -0.0468 -0.1265
  764POPS   CNO11649   8.058  16.953   5.454  0.0028 -0.2035  0.1280
  764POPS   PO411650   8.082  17.106   5.883  0.2795  0.2490 -0.2113
  764POPS   GL111651   8.338  17.079   6.250 -0.2033 -0.1034  0.0874
  764POPS   GL211652   8.468  17.435   6.303 -0.1207  0.1352 -0.1285
  764POPS   C1A11653   8.288  16.981   6.788  0.0471 -0.1708  0.2556
  764POPS   D2A11654   8.351  16.724   7.110 -0.2452  0.1101 -0.3076
  764POPS   C3A11655   8.603  16.667   7.478  0.0903  0.1102  0.2332
  764POPS   C4A11656   8.900  16.492   7.854 -0.2983 -0.2555  0.1836
  764POPS   C1B11657   8.517  17.418   6.722 -0.2537  0.0370 -0.2054
  764POPS   C2B11658   8.436  17.342   7.131  0.0848 -0.3835  0.1802
  764POPS   C3B11659   8.340  17.104   7.399 -0.0210 -0.0407  0.0935
  764POPS   C4B11660   8.431  16.867   7.856  0.1798 -0.0060  0.1510
  765POPS   CNO11661  16.334   1.278   5.181 -0.0632  0.1181 -0.0601
  765POPS   PO411662  16.608   1.093   5.544  0.1461 -0.0041 -0.1194
  765POPS   GL111663  16.638   0.948   5.935  0.1254 -0.3834 -0.0898
  765POPS   GL211664  16.439   0.834   6.140 -0.1096 -0.0494  0.3897
  765POPS   C1A11665  16.674   1.256   6.281 -0.3207 -0.0264 -0.2502
  765POPS   D2A11666  16.395   1.529   6.545 -0.3929 -0.1533 -0.3318
  765POPS   C3A11667  16.109   1.804   6.393 -0.1106 -0.1486 -0.1173
  765POPS   C4A11668  16.025   2.111   6.154  0.0338  0.3865  0.0893
  765POPS   C1B11669  16.815   0.810   6.417 -0.1509 -0.1427 -0.1483
  765POPS   C2B11670  16.917   0.655   6.769 -0.0330  0.0839 -0.3220
  765POPS   C3B11671  17.032   0.275   6.885  0.1454  0.3411 -0.1831
  765POPS   C4B11672  17.147   0.195   7.204 -0.1353 -0.0661 -0.0164
  766POPS   CNO11673  10.987  12.461   5.663 -0.1452 -0.0730  0.0318
  766POPS   PO411674  10.728  12.538   6.012  0.0417 -0.0274 -0.1817
  766POPS   GL111675  10.901  12.434   6.335  0.2179  0.0180  0.2165
  766POPS   GL211676  10.604  12.679   6.527 -0.2446  0.1914 -0.1047
  766POPS   C1A11677  10.955  12.460   6.782 -0.2088  0.1504  0.0499
  766POPS   D2A11678  10.878  12.496   7.230  0.1038 -0.0524  0.2378
  766POPS   C3A11679  11.355  12.430   7.380 -0.1142  0.0485 -0.1640
  766POPS   C4A11680  11.562  12.088   7.716  0.1568 -0.0880  0.1049
  766POPS   C1B11681  10.389  12.458   6.886 -0.3834 -0.0590 -0.0474
  766POPS   C2B11682  10.256  12.706   7.196  0.1330 -0.0942 -0.1566
  766POPS   C3B11683   9.911  12.857   7.054 -0.1624  0.1770  0.4279
  766POPS   C4B11684   9.860  13.044   6.564 -0.0763 -0.2192  0.0941
  767POPS   CNO11685   8.408  11.064   6.232  0.1645 -0.0926  0.1885
  767POPS   PO411686   8.695  10.728   6.231 -0.1636 -0.2045 -0.1228
  767POPS   GL111687   9.074  10.492   6.442  0.1061 -0.3694  0.0658
  767POPS   GL211688   9.222  10.785   6.560  0.2168 -0.0193 -0.1056
  767POPS   C1A11689   8.996  10.215   6.803  0.1880  0.2127 -0.2716
  767POPS   D2A11690   8.764  10.141   7.215 -0.0781 -0.1017  0.0200
  767POPS   C3A11691   9.074   9.841   7.397  0.1768  0.0537 -0.0049
  767POPS   C4A11692   8.892   9.468   7.525  0.1781 -0.1577 -0.1152
  767POPS   C1B11693   9.048  10.925   6.899  0.0919 -0.0865 -0.2005
  767POPS   C2B11694   8.998  10.737   7.170  0.0513  0.0175 -0.0742
  767POPS   C3B11695   8.994  10.731   7.590  0.0491 -0.3279  0.1771
  767POPS   C4B11696   9.311  10.680   7.948 -0.0226 -0.0571  0.2101
  768POPS   CNO11697   1.936   1.472   5.956 -0.1125  0.0932  0.1006
  768POPS   PO411698   1.869   1.098   5.923  0.1179 -0.0091  0.4898
  768POPS   GL111699   1.906   0.952   6.312 -0.0485 -0.3271 -0.1546
  768POPS   GL211700   2.233   0.669   6.353 -0.1363  0.2421 -0.0550
  768POPS   C1A11701   2.017   0.987   6.687  0.0854  0.1816  0.0123
  768POPS   D2A11702   1.901   1.144   7.136 -0.0714 -0.2210  0.1085
  768POPS   C3A11703   2.028   1.495   7.241 -0.3000 -0.0686 -0.0965
  768POPS   C4A11704   2.297   1.743   7.653 -0.0966 -0.3111 -0.1381
  768POPS   C1B11705   2.214   0.452   6.663 -0.0358 -0.1785 -0.3319
  768POPS   C2B11706   2.278   0.191   7.017  0.2771  0.0255 -0.0203
  768POPS   C3B11707   2.129  -0.155   7.231  0.0225 -0.0772  0.0196
  768POPS   C4B11708   1.845  -0.206   7.492 -0.0292  0.1170  0.0939
  769POPS   CNO11709  15.360   8.456   5.322  0.0139 -0.2420 -0.0063
  769POPS   PO411710  15.130   8.740   5.486 -0.0061 -0.0531  0.2171
  769POPS   GL111711  15.018   8.938   5.872 -0.0225  0.1106  0.3463
  769POPS   GL211712  14.927   9.268   5.943 -0.1085  0.0771 -0.3165
  769POPS   C1A11713  14.910   8.697   6.278 -0.1690 -0.1298  0.1637
  769POPS   D2A11714  14.830   8.881   6.590 -0.0144 -0.0442 -0.1662
  769POPS   C3A11715  14.732   9.307   6.706 -0.3866  0.0546 -0.1275
  769POPS   C4A11716  14.622   9.797   6.765  0.2917 -0.3228 -0.1997
  769POPS   C1B11717  14.717   9.419   6.244 -0.0588 -0.1957 -0.1362
  769POPS   C2B11718  14.622   9.840   6.281  0.1073  0.0336 -0.0323
  769POPS   C3B11719  14.444  10.215   6.143 -0.0418 -0.1448 -0.1046
  769POPS   C4B11720  14.101  10.537   6.157 -0.0392  0.4310 -0.1494
  770POPS   CNO11721   9.838  13.277   5.602  0.2321  0.3157 -0.0159
  770POPS   PO411722  10.114  13.653   5.546  0.1105 -0.2071 -0.1690
  770POPS   GL111723  10.103  13.805   5.949  0.0823 -0.1107  0.0049
  770POPS   GL211724  10.051  13.818   6.279  0.0623 -0.1793  0.2994
  770POPS   C1A11725  10.536  13.833   6.243  0.1955  0.0303  0.3924
  770POPS   D2A11726  10.575  13.754   6.718 -0.0535  0.0605 -0.0792
  770POPS   C3A11727  10.603  14.126   6.926 -0.1133 -0.2310  0.1045
  770POPS   C4A11728  10.882  14.299   7.117 -0.0846 -0.2465  0.3375
  770POPS   C1B11729  10.102  13.476   6.703  0.1209 -0.1466  0.1688
  770POPS   C2B11730  10.327  13.264   7.098 -0.1002 -0.0479 -0.1826
  770POPS   C3B11731  10.262  13.075   7.535  0.1885  0.0840 -0.0931
  770POPS   C4B11732  10.497  13.209   7.944 -0.0544  0.0928 -0.1886
  771POPS   CNO11733   5.869   4.836   5.981 -0.1734 -0.2929  0.2532
  771POPS   PO411734   6.178   5.101   5.875  0.1173  0.1590  0.2408
  771POPS   GL111735   6.553   5.250   6.211  0.2089  0.1766  0.2008
  771POPS   GL211736   6.745   4.978   6.441 -0.1710  0.0196  0.2133
  771POPS   C1A11737   6.645   5.572   6.499 -0.0318  0.1784  0.1058
  771POPS   D2A11738   6.513   5.930   6.854 -0.1376  0.2172  0.3121
  771POPS   C3A11739   6.614   5.899   7.287  0.0882 -0.1024 -0.0227
  771POPS   C4A11740   6.864   6.051   7.616 -0.2445  0.3554 -0.1141
  771POPS   C1B11741   6.670   4.987   6.879  0.3196 -0.0178 -0.1437
  771POPS   C2B11742   6.637   5.011   7.232 -0.2475 -0.0939 -0.4578
  771POPS   C3B11743   6.510   4.845   7.473  0.0044 -0.1075 -0.1110
  771POPS   C4B11744   6.347   5.123   7.755  0.1184 -0.0232 -0.1081
  772POPS   CNO11745  17.412   8.663   5.237  0.0631 -0.2107  0.1280
  772POPS   PO411746  17.531   8.810   5.684  0.1078  0.2971 -0.0081
  772POPS   GL111747  17.534   8.728   6.065 -0.1195  0.0064  0.0143
  772POPS   GL211748  17.522   8.250   6.051 -0.1624 -0.3906  0.0205
  772POPS   C1A11749  17.460   8.894   6.549 -0.0300  0.1071 -0.1043
  772POPS   D2A11750  17.243   8.972   6.943 -0.0475 -0.2829  0.0008
  772POPS   C3A11751  17.422   9.161   7.241 -0.0730  0.2484  0.4360
  772POPS   C4A11752  17.452   9.429   7.620  0.1700  0.0927 -0.2236
  772POPS   C1B11753  17.531   8.197   6.592  0.1537 -0.2387  0.2534
  772POPS   C2B11754  17.545   7.976   6.945  0.1873 -0.1147 -0.0165
  772POPS   C3B11755  17.598   7.805   7.338 -0.0056  0.2388  0.1593
  772POPS   C4B11756  18.072   7.681   7.569 -0.2430  0.1653 -0.1854
  773POPS   CNO11757  11.395   2.888   5.978 -0.0833  0.2074  0.1925
  773POPS   PO411758  11.006   2.896   5.896  0.0064  0.0379 -0.2985
  773POPS   GL111759  10.778   2.877   6.330 -0.0486  0.1420 -0.1177
  773POPS   GL211760  10.567   2.675   6.246  0.0539  0.1037 -0.0467
  773POPS   C1A11761  10.814   3.082   6.753 -0.2878  0.2749 -0.1991
  773POPS   D2A11762  10.651   2.891   7.098  0.2789  0.1084  0.0496
  773POPS   C3A11763  10.549   3.058   7.489 -0.1210 -0.1021  0.0044
  773POPS   C4A11764  10.594   3.053   7.891 -0.2757  0.3559 -0.0175
  773POPS   C1B11765  10.606   2.581   6.684  0.2474  0.1097 -0.1560
  773POPS   C2B11766  10.574   2.389   6.992 -0.0528  0.2250  0.1073
  773POPS   C3B11767  10.645   2.123   7.371 -0.2634 -0.0723  0.0713
  773POPS   C4B11768  10.377   1.847   7.738 -0.2435 -0.1154 -0.4525
  774POPS   CNO11769   1.270  13.798   5.814 -0.0055  0.1190 -0.4262
  774POPS   PO411770   1.620  13.569   5.911 -0.2936  0.1614  0.2488
  774POPS   GL111771   1.521  13.686   6.347 -0.0270 -0.0643 -0.0418
  774POPS   GL211772   1.215  13.619   6.321 -0.3175 -0.3828 -0.1255
  774POPS   C1A11773   1.375  14.047   6.572 -0.0403 -0.2767 -0.3807
  774POPS   D2A11774   1.347  14.345   6.992 -0.0756  0.3560 -0.1610
  774POPS   C3A11775   1.557  14.717   7.115  0.2752 -0.0090  0.0206
  774POPS   C4A11776   1.197  14.989   7.244  0.0052  0.0230 -0.1428
  774POPS   C1B11777   1.086  13.566   6.756 -0.3675  0.2153  0.3173
  774POPS   C2B11778   1.059  13.460   7.171  0.0267  0.1924 -0.2758
  774POPS   C3B11779   1.505  13.277   7.309 -0.0404  0.0610  0.0862
  774POPS   C4B11780   1.822  13.209   7.382  0.2299  0.1171  0.1129
  775POPS   CNO11781   2.727  10.568   6.088 -0.1296 -0.0501  0.1944
  775POPS   PO411782   3.011  10.416   5.940 -0.0411 -0.0486  0.3866
  775POPS   GL111783   3.040  10.275   6.327 -0.0456  0.2885 -0.2269
  775POPS   GL211784   2.772  10.260   6.540 -0.1048  0.1012  0.1188
  775POPS   C1A11785   3.251  10.091   6.731  0.1927  0.1769 -0.0260
  775POPS   D2A11786   3.215  10.097   7.178 -0.0590 -0.0696  0.3665
  775POPS   C3A11787   2.800   9.931   7.338 -0.1840  0.2949 -0.0601
  775POPS   C4A11788   2.426  10.050   7.701  0.1410  0.1076 -0.2453
  775POPS   C1B11789   2.846  10.338   6.945 -0.2222  0.0582  0.1850
  775POPS   C2B11790   2.791  10.539   7.286  0.1696  0.0445 -0.1134
  775POPS   C3B11791   2.681  10.565   7.649 -0.1559 -0.0858 -0.1006
  775POPS   C4B11792   2.902  10.751   7.968  0.5091 -0.1553  0.0323
  776POPS   CNO11793   3.107  18.118   6.297  0.2350 -0.2237  0.1446
  776POPS   PO411794   3.427  18.357   6.189 -0.4804  0.2740  0.2593
  776POPS   GL111795   3.327  18.430   6.694 -0.0287 -0.2502  0.4563
  776POPS   GL211796   3.196  18.742   6.659  0.0009 -0.0985 -0.1595
  776POPS   C1A11797   3.184  18.411   7.139 -0.1015  0.2064 -0.0988
  776POPS   D2A11798   3.141  18.117   7.414  0.1707 -0.1694 -0.0603
  776POPS   C3A11799   3.461  17.967   7.813 -0.0357  0.2396 -0.2008
  776POPS   C4A11800   3.617  17.766   8.242  0.1744  0.3990 -0.0802
  776POPS   C1B11801   3.275  18.912   7.070 -0.0309 -0.1073  0.3262
  776POPS   C2B11802   3.116  18.826   7.479  0.6448  0.2967  0.2050
  776POPS   C3B11803   3.052  18.960   7.823  0.0175 -0.2009 -0.0953
  776POPS   C4B11804   2.759  19.101   8.091  0.2155 -0.1768  0.2936
  777POPS   CNO11805   3.416  16.200   5.948 -0.0972  0.2905  0.0803
  777POPS   PO411806   2.960  16.316   5.681  0.0767  0.1295  0.2759
  777POPS   GL111807   2.894  16.413   6.125 -0.0230  0.0270  0.0548
  777POPS   GL211808   2.906  16.088   6.264 -0.1171  0.1164  0.3818
  777POPS   C1A11809   3.161  16.608   6.485  0.0320  0.1440 -0.0886
  777POPS   D2A11810   3.357  16.701   6.814 -0.4644  0.1742 -0.2605
  777POPS   C3A11811   3.283  16.433   7.054 -0.0241  0.1835  0.2426
  777POPS   C4A11812   3.275  16.575   7.493 -0.1565 -0.3548 -0.1874
  777POPS   C1B11813   2.703  15.886   6.622  0.0620  0.3301 -0.1576
  777POPS   C2B11814   2.696  15.724   7.046  0.1953  0.2099 -0.2142
  777POPS   C3B11815   2.541  15.744   7.497  0.0985  0.0989  0.0908
  777POPS   C4B11816   2.473  16.026   7.753 -0.1503  0.0704 -0.2694
  778POPS   CNO11817  10.532  13.528   5.799 -0.1584 -0.1621 -0.0325
  778POPS   PO411818  10.267  13.103   5.840 -0.0308  0.1211  0.0442
  778POPS   GL111819  10.066  13.333   6.149 -0.0301  0.3401  0.0156
  778POPS   GL211820  10.367  13.390   6.279  0.1156 -0.3348 -0.0290
  778POPS   C1A11821   9.683  13.471   6.398 -0.1302  0.1786 -0.1717
  778POPS   D2A11822   9.451  13.473   6.677  0.2172 -0.3220 -0.1344
  778POPS   C3A11823   9.623  13.280   6.970 -0.2113  0.0414 -0.0478
  778POPS   C4A11824   9.618  13.116   7.333  0.3383 -0.2496  0.3270
  778POPS   C1B11825  10.411  13.120   6.628  0.0070 -0.0247  0.0123
  778POPS   C2B11826  10.634  12.892   7.036  0.0353  0.2147  0.0323
  778POPS   C3B11827  10.767  13.081   7.378  0.1120 -0.2247  0.0282
  778POPS   C4B11828  10.973  12.954   7.808 -0.1120 -0.0156  0.1051
  779POPS   CNO11829  13.482  12.050   5.833  0.2966 -0.1112 -0.1318
  779POPS   PO411830  13.785  11.889   5.393  0.0943  0.0385 -0.1736
  779POPS   GL111831  14.021  11.896   5.849 -0.1723  0.1136 -0.0011
  779POPS   GL211832  14.374  12.017   5.811 -0.2701 -0.0407 -0.0275
  779POPS   C1A11833  13.860  12.170   6.076  0.1916  0.2349 -0.0490
  779POPS   D2A11834  13.853  12.330   6.513 -0.0936 -0.2235 -0.0738
  779POPS   C3A11835  13.490  12.270   6.790  0.0476 -0.0534  0.0466
  779POPS   C4A11836  13.295  12.102   7.087  0.1121 -0.2429  0.2114
  779POPS   C1B11837  14.296  12.000   6.280 -0.0809  0.3458  0.2140
  779POPS   C2B11838  14.267  12.112   6.635  0.1219 -0.0612 -0.1365
  779POPS   C3B11839  14.419  12.136   7.069  0.1406 -0.1912  0.0253
  779POPS   C4B11840  14.534  12.032   7.480  0.0426 -0.1756 -0.0365
  780POPS   CNO11841   3.675   5.960   6.148  0.3294  0.0563 -0.1713
  780POPS   PO411842   3.973   6.101   6.502 -0.0422  0.0738 -0.1833
  780POPS   GL111843   4.113   5.900   6.931  0.2385 -0.1724 -0.1396
  780POPS   GL211844   3.961   5.595   7.026  0.3164 -0.0166  0.1201
  780POPS   C1A11845   4.353   5.790   7.192 -0.1986 -0.2315  0.1921
  780POPS   D2A11846   4.587   5.886   7.703  0.0558 -0.0514  0.2905
  780POPS   C3A11847   4.571   6.037   8.026 -0.1616  0.0377  0.1149
  780POPS   C4A11848   4.797   6.316   8.240 -0.0959 -0.0219 -0.1775
  780POPS   C1B11849   3.914   5.409   7.390  0.3747  0.0929 -0.0275
  780POPS   C2B11850   4.110   5.070   7.493  0.2594  0.1340 -0.0255
  780POPS   C3B11851   4.302   5.136   7.896  0.0927 -0.1133  0.1521
  780POPS   C4B11852   4.627   5.093   8.244 -0.0559  0.0548  0.0178
  781POPS   CNO11853  15.890  12.235   4.816  0.0243 -0.3659 -0.0150
  781POPS   PO411854  16.083  12.174   5.240 -0.1005 -0.3577  0.0469
  781POPS   GL111855  16.066  12.396   5.647 -0.1575 -0.2267  0.1299
  781POPS   GL211856  15.845  12.223   5.848 -0.1037 -0.0709 -0.4320
  781POPS   C1A11857  15.945  12.738   5.741 -0.2118 -0.0086 -0.0927
  781POPS   D2A11858  15.820  13.083   5.894  0.0093 -0.0001  0.0963
  781POPS   C3A11859  15.493  13.141   5.937  0.0823 -0.1042 -0.0118
  781POPS   C4A11860  15.196  13.007   6.280  0.1942 -0.0608  0.0863
  781POPS   C1B11861  16.323  12.123   6.143  0.1663 -0.2322 -0.4840
  781POPS   C2B11862  16.412  12.219   6.556  0.0296 -0.1050  0.0326
  781POPS   C3B11863  16.738  12.277   6.776  0.0594 -0.4012  0.0376
  781POPS   C4B11864  17.125  12.386   7.024 -0.1100 -0.0367  0.1710
  782POPS   CNO11865   4.157  11.467   5.807 -0.4027 -0.1203  0.0709
  782POPS   PO411866   3.792  11.605   6.010 -0.1352  0.0365 -0.5332
  782POPS   GL111867   3.723  11.573   6.410 -0.4410 -0.2225  0.2062
  782POPS   GL211868   3.545  11.774   6.398  0.0845 -0.4889 -0.3332
  782POPS   C1A11869   3.895  11.346   6.632  0.1165 -0.0859  0.1063
  782POPS   D2A11870   3.949  10.882   6.775 -0.2547 -0.0858 -0.1248
  782POPS   C3A11871   4.290  10.540   6.695 -0.3628 -0.2214 -0.0004
  782POPS   C4A11872   4.658  10.366   6.731 -0.1690  0.3608  0.1126
  782POPS   C1B11873   3.599  11.710   6.953 -0.0632  0.1006  0.0478
  782POPS   C2B11874   3.812  11.521   7.311  0.2875  0.3322 -0.1077
  782POPS   C3B11875   4.136  11.710   7.468 -0.1030 -0.0387  0.3064
  782POPS   C4B11876   4.142  12.128   7.594 -0.0923 -0.0246  0.1681
  783POPS   CNO11877   9.170  16.147   6.008  0.0131 -0.1663  0.2467
  783POPS   PO411878   9.356  15.891   5.864  0.0896 -0.0285 -0.1966
  783POPS   GL111879   9.668  15.856   6.243  0.3751  0.0889  0.0423
  783POPS   GL211880   9.612  15.700   6.574 -0.2093  0.3207  0.2967
  783POPS   C1A11881   9.612  16.209   6.525  0.0423  0.0079  0.1097
  783POPS   D2A11882   9.843  16.259   6.941 -0.0634 -0.2287 -0.1050
  783POPS   C3A11883  10.161  16.548   6.788  0.1024 -0.0763  0.4157
  783POPS   C4A11884  10.477  16.552   6.453 -0.0384 -0.2198  0.6622
  783POPS   C1B11885   9.683  15.319   6.738 -0.1666 -0.1987 -0.1142
  783POPS   C2B11886  10.067  15.070   6.764 -0.1219  0.1561  0.0923
  783POPS   C3B11887  10.288  14.753   6.719 -0.0718 -0.2099 -0.0552
  783POPS   C4B11888  10.672  14.772   6.949 -0.2406 -0.3301  0.3857
  784POPS   CNO11889   8.245  13.537   5.495 -0.0114  0.1194 -0.0809
  784POPS   PO411890   8.224  13.583   5.796 -0.1939  0.0374 -0.1914
  784POPS   GL111891   7.985  13.480   6.236 -0.1300 -0.1044 -0.0985
  784POPS   GL211892   8.189  13.781   6.369 -0.0017 -0.0694 -0.1281
  784POPS   C1A11893   7.869  13.504   6.609 -0.0895  0.1201 -0.4346
  784POPS   D2A11894   7.586  13.516   6.876  0.3119 -0.4731 -0.1606
  784POPS   C3A11895   7.723  13.605   7.303  0.1427 -0.1183 -0.3109
  784POPS   C4A11896   7.875  13.949   7.451 -0.0583  0.0742  0.2702
  784POPS   C1B11897   8.533  13.847   6.711 -0.2327 -0.1510  0.2252
  784POPS   C2B11898   8.743  13.865   7.124 -0.0291 -0.0289 -0.0840
  784POPS   C3B11899   8.806  13.729   7.596 -0.0295  0.1266 -0.1819
  784POPS   C4B11900   9.006  13.863   7.885 -0.1883 -0.3114 -0.0224
  785POPS   CNO11901   2.488   4.788   6.003 -0.0347  0.0798  0.0522
  785POPS   PO411902   2.535   4.510   6.373  0.1068 -0.1011 -0.0590
  785POPS   GL111903   2.714   4.400   6.747 -0.0490 -0.2208 -0.2092
  785POPS   GL211904   2.960   4.151   6.738 -0.3103  0.1810  0.1614
  785POPS   C1A11905   2.705   4.558   7.072 -0.3118 -0.0556  0.1819
  785POPS   D2A11906   2.658   4.485   7.450 -0.0740 -0.2868 -0.0614
  785POPS   C3A11907   2.288   4.748   7.532  0.0521 -0.1396  0.2574
  785POPS   C4A11908   1.950   4.804   7.856  0.0512  0.2168  0.0586
  785POPS   C1B11909   2.716   4.040   7.072  0.1528  0.0667  0.0761
  785POPS   C2B11910   2.705   3.968   7.558 -0.1356 -0.0277 -0.1258
  785POPS   C3B11911   2.360   4.207   7.920 -0.2533  0.1583 -0.1226
  785POPS   C4B11912   1.972   4.328   7.683  0.1101 -0.0077  0.1553
  786POPS   CNO11913  13.504   5.668   5.889  0.0855 -0.3789 -0.0474
  786POPS   PO411914  13.565   5.308   6.221  0.1932  0.2951  0.2207
  786POPS   GL111915  13.566   5.116   6.555 -0.0023 -0.0714  0.1815
  786POPS   GL211916  13.584   4.873   6.476  0.1945  0.0310  0.0493
  786POPS   C1A11917  13.745   5.264   6.905  0.3732  0.0417  0.0411
  786POPS   D2A11918  13.873   5.508   7.201  0.0713 -0.1866  0.0985
  786POPS   C3A11919  13.758   5.475   7.630 -0.0764 -0.0412  0.2122
  786POPS   C4A11920  13.829   5.640   7.994 -0.1180 -0.2985  0.2830
  786POPS   C1B11921  13.608   4.747   6.957 -0.0987  0.0685 -0.0246
  786POPS   C2B11922  13.836   4.723   7.276 -0.0468 -0.1204  0.1954
  786POPS   C3B11923  14.063   5.110   7.412 -0.1579 -0.2221  0.4180
  786POPS   C4B11924  14.149   5.070   7.801  0.1228 -0.1173 -0.3907
  787POPS   CNO11925   1.007   7.226   6.283 -0.0442  0.1980 -0.1617
  787POPS   PO411926   1.346   7.055   6.141 -0.2650 -0.1345 -0.0089
  787POPS   GL111927   1.640   6.956   6.525 -0.1205  0.1130 -0.1261
  787POPS   GL211928   1.937   7.177   6.677 -0.1510 -0.0262  0.1260
  787POPS   C1A11929   1.660   6.788   7.001  0.0764 -0.3081 -0.1929
  787POPS   D2A11930   1.612   6.795   7.487 -0.1707  0.2006 -0.0839
  787POPS   C3A11931   1.961   6.643   7.750  0.0730 -0.1305  0.0183
  787POPS   C4A11932   2.011   6.645   8.185  0.1904 -0.0937  0.0670
  787POPS   C1B11933   2.021   7.441   6.918  0.0730 -0.1458  0.0018
  787POPS   C2B11934   1.911   7.323   7.348 -0.0410  0.2400  0.0989
  787POPS   C3B11935   2.272   7.060   7.590  0.1607 -0.0129  0.0567
  787POPS   C4B11936   2.487   6.752   7.816 -0.0169 -0.2072 -0.2459
  788POPS   CNO11937  16.926  12.279   4.927  0.0256  0.2992  0.2546
  788POPS   PO411938  17.103  12.648   5.090 -0.2679  0.0597  0.1995
  788POPS   GL111939  16.941  12.875   5.458  0.0005  0.0756 -0.1364
  788POPS   GL211940  16.877  13.282   5.540  0.1556  0.4861  0.0815
  788POPS   C1A11941  16.847  12.838   5.842 -0.2653  0.0718  0.5062
  788POPS   D2A11942  16.954  12.996   6.310 -0.2276  0.1287 -0.2112
  788POPS   C3A11943  17.318  13.254   6.373 -0.2550  0.2757 -0.2494
  788POPS   C4A11944  17.335  13.650   6.541 -0.0189  0.1340  0.3113
  788POPS   C1B11945  16.906  13.314   5.962  0.2740 -0.2997  0.0910
  788POPS   C2B11946  16.844  13.456   6.377 -0.0359 -0.0197  0.4302
  788POPS   C3B11947  17.008  13.409   6.843 -0.1287  0.1599  0.1283
  788POPS   C4B11948  17.026  13.724   7.203 -0.4274 -0.2348  0.2241
  789POPS   CNO11949  16.865  14.402   4.727 -0.0741  0.1812 -0.1156
  789POPS   PO411950  17.008  14.392   5.148  0.0343  0.1468 -0.1391
  789POPS   GL111951  16.968  14.736   5.445  0.1380 -0.3286 -0.0279
  789POPS   GL211952  17.178  14.807   5.494  0.0486 -0.1279  0.1017
  789POPS   C1A11953  16.763  14.717   5.883 -0.1251 -0.1270 -0.0310
  789POPS   D2A11954  16.500  14.555   6.208  0.1568 -0.0001 -0.1956
  789POPS   C3A11955  16.169  14.835   6.399 -0.3721 -0.1377  0.1367
  789POPS   C4A11956  15.786  14.956   6.761 -0.1430  0.2369  0.0343
  789POPS   C1B11957  17.073  15.161   5.822  0.0177  0.1348  0.0448
  789POPS   C2B11958  16.971  15.351   6.253  0.0263  0.1074  0.1566
  789POPS   C3B11959  17.095  15.309   6.623  0.2344 -0.1575 -0.2980
  789POPS   C4B11960  17.435  15.262   6.918 -0.3045 -0.2268 -0.2665
  790POPS   CNO11961   7.284   0.095   5.825  0.0121 -0.0355 -0.0105
  790POPS   PO411962   7.180   0.038   6.222 -0.0753 -0.2253 -0.0517
  790POPS   GL111963   7.129   0.191   6.726  0.4420 -0.6024  0.0138
  790POPS   GL211964   6.869  -0.020   6.746 -0.1046 -0.1285  0.0456
  790POPS   C1A11965   7.229   0.294   7.220 -0.1407  0.3415  0.2134
  790POPS   D2A11966   7.477   0.486   7.413 -0.0356  0.1871  0.2319
  790POPS   C3A11967   7.483   0.448   7.838 -0.2332 -0.0404 -0.1655
  790POPS   C4A11968   7.464   0.777   8.191 -0.2525 -0.1773 -0.3505
  790POPS   C1B11969   6.833  -0.064   7.215 -0.3784 -0.0731  0.0644
  790POPS   C2B11970   6.848   0.184   7.552 -0.2443  0.5168 -0.3184
  790POPS   C3B11971   6.590   0.345   7.717  0.2969  0.1286 -0.3225
  790POPS   C4B11972   6.623   0.551   8.162 -0.0269 -0.1258  0.2019
  791POPS   CNO11973  17.080   5.234   5.433  0.1902 -0.1099  0.0139
  791POPS   PO411974  16.814   5.017   5.683  0.0322 -0.2372 -0.1556
  791POPS   GL111975  16.697   5.048   6.048 -0.0145 -0.0315  0.1151
  791POPS   GL211976  16.813   4.752   6.171  0.2041 -0.0689  0.2496
  791POPS   C1A11977  16.679   5.093   6.540  0.1003 -0.1096  0.2438
  791POPS   D2A11978  16.735   5.229   6.988 -0.0594 -0.0790 -0.3929
  791POPS   C3A11979  16.464   4.950   7.274  0.0834  0.1036 -0.2847
  791POPS   C4A11980  16.080   4.635   7.284 -0.0999 -0.1738 -0.0749
  791POPS   C1B11981  16.739   4.349   6.288 -0.0628 -0.1365 -0.0794
  791POPS   C2B11982  16.828   4.210   6.721 -0.1972  0.2460 -0.4198
  791POPS   C3B11983  17.032   4.222   7.085  0.1475 -0.0695 -0.1200
  791POPS   C4B11984  17.207   4.331   7.419  0.0210  0.0681 -0.0035
  792POPS   CNO11985   6.064   9.838   5.873 -0.0126 -0.2858 -0.0440
  792POPS   PO411986   5.967   9.998   6.278 -0.0591  0.0507  0.0265
  792POPS   GL111987   5.646   9.932   6.512 -0.1606 -0.1581 -0.0388
  792POPS   GL211988   5.575  10.344   6.550 -0.1479 -0.2377 -0.0280
  792POPS   C1A11989   5.581   9.843   6.926 -0.3559  0.3994  0.0125
  792POPS   D2A11990   5.481   9.898   7.360  0.0830 -0.0555  0.0589
  792POPS   C3A11991   5.347  10.283   7.416  0.1922  0.1436 -0.0457
  792POPS   C4A11992   5.137  10.707   7.627  0.0101 -0.0979  0.0526
  792POPS   C1B11993   5.564  10.458   6.886  0.0916 -0.0408  0.2115
  792POPS   C2B11994   5.639  10.703   7.355  0.0147 -0.2182  0.1245
  792POPS   C3B11995   5.708  10.592   7.651 -0.0423 -0.0951 -0.0922
  792POPS   C4B11996   5.475  10.372   7.989 -0.0768 -0.0632 -0.0809
  793POPS   CNO11997   4.848  14.096   5.316  0.0945  0.1852  0.0198
  793POPS   PO411998   4.978  14.060   5.755  0.1965  0.1807  0.1922
  793POPS   GL111999   5.083  14.119   6.224 -0.1087 -0.0410  0.3233
  793POPS   GL212000   5.023  13.867   6.357  0.1149  0.1757 -0.1819
  793POPS   C1A12001   4.961  14.317   6.657 -0.0375  0.2751  0.1013
  793POPS   D2A12002   4.954  14.447   6.999 -0.0778 -0.1490  0.1065
  793POPS   C3A12003   4.540  14.262   7.151 -0.0092 -0.1864 -0.0777
  793POPS   C4A12004   4.134  14.030   7.084  0.3597 -0.2137  0.0859
  793POPS   C1B12005   4.850  13.825   6.847 -0.4787 -0.0048 -0.3538
  793POPS   C2B12006   5.051  13.968   7.140  0.0743 -0.3215 -0.0428
  793POPS   C3B12007   4.988  14.173   7.509  0.1223 -0.0117  0.0398
  793POPS   C4B12008   5.096  14.407   7.870 -0.0927  0.0169  0.2269
  794POPS   CNO12009  16.455   7.617   5.493  0.2636 -0.1444 -0.1379
  794POPS   PO412010  16.209   7.606   5.872 -0.2844  0.0122 -0.0284
  794POPS   GL112011  16.091   7.296   6.184 -0.0812  0.0017  0.0839
  794POPS   GL212012  16.274   7.013   6.235 -0.2801 -0.0360  0.2018
  794POPS   C1A12013  15.775   7.139   6.450  0.0023 -0.0180 -0.1206
  794POPS   D2A12014  15.467   6.970   6.583  0.0089 -0.1940  0.2526
  794POPS   C3A12015  15.273   7.078   6.895 -0.0244  0.4036  0.2011
  794POPS   C4A12016  15.210   7.094   7.344  0.2275 -0.1490 -0.3207
  794POPS   C1B12017  16.244   7.247   6.636 -0.1286  0.1753 -0.3359
  794POPS   C2B12018  16.272   7.063   7.022  0.0254  0.0177  0.1056
  794POPS   C3B12019  16.492   6.701   7.159 -0.0796 -0.0720  0.0360
  794POPS   C4B12020  16.608   6.439   7.503  0.1274 -0.1529  0.0588
  795POPS   CNO12021   9.933   2.079   5.998 -0.2485  0.2854 -0.0772
  795POPS   PO412022  10.229   1.805   6.085 -0.0508 -0.4980 -0.0597
  795POPS   GL112023   9.990   1.487   6.371  0.2303 -0.2271  0.0592
  795POPS   GL212024   9.745   1.115   6.331 -0.0506 -0.1851  0.2736
  795POPS   C1A12025   9.543   1.527   6.565 -0.0070 -0.2043  0.1325
  795POPS   D2A12026   9.524   1.524   6.965  0.0498 -0.0438 -0.2221
  795POPS   C3A12027   9.870   1.541   7.213  0.2980 -0.2134 -0.3638
  795POPS   C4A12028  10.076   1.848   7.328 -0.0454 -0.3722 -0.1026
  795POPS   C1B12029   9.404   1.101   6.704 -0.0859  0.2266  0.2557
  795POPS   C2B12030   9.421   1.071   7.207  0.3665 -0.0168 -0.0297
  795POPS   C3B12031   9.040   0.829   7.353  0.1023  0.2642 -0.0236
  795POPS   C4B12032   8.905   0.499   7.076 -0.0482 -0.1801  0.0456
  796POPS   CNO12033   4.159   8.086   5.864  0.4539 -0.0767 -0.0997
  796POPS   PO412034   3.684   8.053   5.881  0.1778  0.1237 -0.0742
  796POPS   GL112035   3.689   7.961   6.312 -0.0342 -0.1161  0.0663
  796POPS   GL212036   3.566   8.259   6.371 -0.0313 -0.0160 -0.0133
  796POPS   C1A12037   3.321   7.796   6.575  0.2844 -0.1397  0.1644
  796POPS   D2A12038   3.309   7.641   6.843 -0.0130 -0.2657  0.2135
  796POPS   C3A12039   3.265   7.953   7.045  0.2807  0.1240 -0.0330
  796POPS   C4A12040   3.381   7.935   7.413 -0.1197 -0.1782  0.0670
  796POPS   C1B12041   3.656   8.120   6.770 -0.1928  0.2595  0.3394
  796POPS   C2B12042   3.815   7.867   7.123 -0.2261  0.1039  0.3086
  796POPS   C3B12043   4.212   7.987   7.469  0.3002 -0.0370  0.3851
  796POPS   C4B12044   4.100   7.776   7.919 -0.0822 -0.0677 -0.0148
  797POPS   CNO12045   6.613  17.508   5.842  0.1705  0.1840  0.0900
  797POPS   PO412046   6.693  17.870   6.135  0.0814  0.1150 -0.2044
  797POPS   GL112047   6.559  17.814   6.592  0.4073  0.0362  0.3810
  797POPS   GL212048   6.792  17.576   6.666  0.0352  0.0320  0.0046
  797POPS   C1A12049   6.299  17.651   6.947 -0.1846  0.2120  0.4635
  797POPS   D2A12050   6.081  17.779   7.298 -0.0256 -0.5039 -0.2850
  797POPS   C3A12051   6.018  17.670   7.654 -0.1619  0.0367  0.0770
  797POPS   C4A12052   6.012  17.859   8.185  0.0873 -0.1855  0.6432
  797POPS   C1B12053   6.922  18.018   6.942 -0.1076  0.1693 -0.0381
  797POPS   C2B12054   7.300  18.298   7.271  0.3820 -0.0794  0.2533
  797POPS   C3B12055   7.356  18.500   7.660 -0.0423  0.3799  0.1098
  797POPS   C4B12056   7.125  18.570   7.981 -0.1580  0.1810  0.2040
  798POPS   CNO12057   1.263   9.563   5.493  0.0289  0.0728  0.2555
  798POPS   PO412058   1.247   9.380   5.849 -0.1885  0.3498 -0.1393
  798POPS   GL112059   1.424   9.376   6.296  0.0333 -0.0543  0.6111
  798POPS   GL212060   1.786   9.190   6.504 -0.2970  0.2090  0.1554
  798POPS   C1A12061   1.378   9.500   6.669 -0.0434 -0.0518  0.0437
  798POPS   D2A12062   1.571   9.725   7.024  0.2279 -0.0122 -0.1738
  798POPS   C3A12063   1.416   9.546   7.387  0.2390  0.1100 -0.3370
  798POPS   C4A12064   1.115   9.244   7.491 -0.1246  0.0189  0.2998
  798POPS   C1B12065   1.585   9.167   7.006 -0.0020 -0.2167 -0.0979
  798POPS   C2B12066   1.615   9.080   7.425 -0.0388 -0.4537  0.0060
  798POPS   C3B12067   1.834   9.308   7.719  0.0196  0.1271  0.1403
  798POPS   C4B12068   1.668   9.583   7.995 -0.2109  0.3174 -0.2203
  799POPS   CNO12069   4.759   9.725   6.163  0.0651 -0.0085  0.1555
  799POPS   PO412070   4.734   9.303   6.028  0.2791 -0.0453 -0.0491
  799POPS   GL112071   4.912   9.119   6.391  0.0026  0.3628 -0.0741
  799POPS   GL212072   4.648   9.245   6.620 -0.3272 -0.0744  0.2940
  799POPS   C1A12073   5.271   9.162   6.758  0.0504 -0.0162 -0.0905
  799POPS   D2A12074   5.348   9.088   7.172 -0.0748 -0.2712  0.2940
  799POPS   C3A12075   5.661   8.976   7.462  0.1084  0.3100 -0.2159
  799POPS   C4A12076   5.829   8.834   7.748  0.0147  0.3084  0.0581
  799POPS   C1B12077   4.769   9.264   7.063 -0.1839  0.1495 -0.1478
  799POPS   C2B12078   4.635   9.345   7.485 -0.1434  0.0235 -0.1069
  799POPS   C3B12079   4.862   9.277   7.875  0.3154  0.0721  0.0573
  799POPS   C4B12080   4.900   9.244   8.344  0.0773 -0.1575 -0.1133
  800POPS   CNO12081  12.655   8.749   5.444  0.0628  0.2236 -0.2283
  800POPS   PO412082  12.821   9.055   5.862 -0.1819 -0.2540  0.0229
  800POPS   GL112083  12.888   9.305   6.295 -0.0332  0.0897  0.0532
  800POPS   GL212084  12.782   9.609   6.363  0.0001  0.2029 -0.3751
  800POPS   C1A12085  13.119   9.300   6.698 -0.0753  0.2552 -0.0082
  800POPS   D2A12086  13.244   9.090   7.063 -0.3819 -0.0181 -0.3903
  800POPS   C3A12087  13.303   9.405   7.381  0.1760  0.2371 -0.2318
  800POPS   C4A12088  13.000   9.654   7.600  0.0547  0.4175  0.0335
  800POPS   C1B12089  12.663   9.602   6.715  0.2056  0.0960  0.2435
  800POPS   C2B12090  12.463   9.952   7.008 -0.3512  0.1481 -0.2404
  800POPS   C3B12091  12.424  10.203   7.274 -0.4757  0.0661  0.1892
  800POPS   C4B12092  12.664  10.555   7.305  0.2510 -0.1298 -0.1072
  801POPS   CNO12093  18.285  15.974   4.891 -0.1091 -0.2640  0.0097
  801POPS   PO412094  18.153  15.880   5.278 -0.2790  0.2344  0.0791
  801POPS   GL112095  18.267  15.858   5.671 -0.1594  0.1507  0.1889
  801POPS   GL212096  18.139  15.667   5.880  0.0183  0.0496 -0.1189
  801POPS   C1A12097  18.315  16.109   6.097 -0.0477 -0.2151 -0.0201
  801POPS   D2A12098  18.345  16.186   6.526 -0.1187  0.1673  0.1298
  801POPS   C3A12099  18.617  16.255   6.934 -0.1398  0.0632  0.0462
  801POPS   C4A12100  18.788  16.389   7.349 -0.2160 -0.1743 -0.2137
  801POPS   C1B12101  17.794  15.657   6.182 -0.1819 -0.1203  0.2722
  801POPS   C2B12102  17.592  15.631   6.571 -0.2071 -0.0645 -0.1738
  801POPS   C3B12103  17.664  15.797   7.049  0.1140 -0.0168  0.0748
  801POPS   C4B12104  17.414  15.901   7.449 -0.3231  0.0101  0.2673
  802POPS   CNO12105  14.019  10.976   4.985  0.2124 -0.1603  0.0327
  802POPS   PO412106  14.235  10.772   5.352 -0.0573  0.2163 -0.2374
  802POPS   GL112107  14.181  11.019   5.876  0.1405  0.1326  0.2948
  802POPS   GL212108  14.342  11.204   5.784  0.0175 -0.0949 -0.0700
  802POPS   C1A12109  14.292  11.198   6.353 -0.0245  0.2800  0.0880
  802POPS   D2A12110  14.612  11.248   6.699  0.3479 -0.0102  0.0897
  802POPS   C3A12111  14.953  11.090   6.717 -0.2209 -0.0926 -0.1775
  802POPS   C4A12112  15.265  11.335   6.598  0.1386 -0.2811  0.1286
  802POPS   C1B12113  14.433  11.545   5.993 -0.2147 -0.0779  0.0211
  802POPS   C2B12114  14.634  11.623   6.274  0.2871  0.2167  0.0638
  802POPS   C3B12115  14.870  11.632   6.513  0.2761 -0.0609  0.2109
  802POPS   C4B12116  14.685  11.745   6.898 -0.1238 -0.2325 -0.0863
  803POPS   CNO12117  16.698   3.188   5.788  0.1331 -0.2493  0.1460
  803POPS   PO412118  17.042   3.354   5.664  0.3759 -0.5062  0.0520
  803POPS   GL112119  17.038   3.370   6.154  0.1567 -0.2116  0.1670
  803POPS   GL212120  17.355   3.366   6.280  0.0740 -0.0373 -0.0586
  803POPS   C1A12121  16.733   3.247   6.406 -0.0487  0.0928 -0.0976
  803POPS   D2A12122  16.729   3.308   6.908  0.0891  0.5214 -0.0648
  803POPS   C3A12123  16.496   3.542   7.100 -0.0947 -0.1156 -0.4047
  803POPS   C4A12124  16.346   3.678   7.474 -0.2266 -0.1185  0.0760
  803POPS   C1B12125  17.299   3.352   6.753  0.0914 -0.4612 -0.1905
  803POPS   C2B12126  17.233   3.378   7.103  0.0591 -0.1129 -0.1017
  803POPS   C3B12127  17.438   3.721   7.340 -0.1515 -0.0326  0.0609
  803POPS   C4B12128  17.492   4.020   7.686 -0.0999 -0.1050  0.3068
  804POPS   CNO12129   9.078  17.337   5.539  0.1614 -0.1329  0.3153
  804POPS   PO412130   9.334  17.044   5.840  0.0127 -0.4047  0.3021
  804POPS   GL112131   9.403  16.846   6.258  0.1295  0.4949  0.0066
  804POPS   GL212132   9.530  16.556   6.210 -0.2455  0.1561 -0.1086
  804POPS   C1A12133   9.362  17.078   6.665 -0.0186  0.0533 -0.0315
  804POPS   D2A12134   9.455  16.789   7.031  0.2742 -0.0416 -0.3509
  804POPS   C3A12135   9.789  16.662   7.228  0.1876  0.0876 -0.0737
  804POPS   C4A12136  10.122  16.432   7.303 -0.1057  0.2083  0.2676
  804POPS   C1B12137   9.770  16.800   6.611 -0.0403 -0.0487  0.0101
  804POPS   C2B12138   9.809  17.121   6.938 -0.1854 -0.2820  0.4498
  804POPS   C3B12139  10.022  17.269   7.325  0.0734  0.0671  0.3964
  804POPS   C4B12140  10.490  17.191   7.483 -0.2924  0.0868 -0.2479
  805POPS   CNO12141  11.453   8.464   6.300 -0.2909  0.0323 -0.1691
  805POPS   PO412142  11.792   8.380   5.977 -0.1792  0.1349  0.3333
  805POPS   GL112143  12.037   8.569   6.324  0.0349  0.1959  0.0247
  805POPS   GL212144  12.075   8.934   6.221 -0.1198  0.4372  0.4805
  805POPS   C1A12145  12.244   8.729   6.788 -0.0628 -0.3089 -0.1626
  805POPS   D2A12146  12.266   8.678   7.268  0.1460 -0.0188 -0.1016
  805POPS   C3A12147  12.010   8.456   7.684  0.3462  0.0500  0.1516
  805POPS   C4A12148  12.131   8.433   7.952  0.1733 -0.1039  0.2555
  805POPS   C1B12149  11.746   8.921   6.530 -0.2468  0.1182  0.0207
  805POPS   C2B12150  11.776   9.263   6.906  0.0382 -0.0853  0.0176
  805POPS   C3B12151  11.687   9.437   7.308 -0.0047  0.2689 -0.0329
  805POPS   C4B12152  11.442   9.301   7.677  0.0180 -0.1193 -0.1094
  806YOPS   CNO12153   4.272   4.008   6.509  0.0497  0.0258  0.0588
  806YOPS   PO412154   4.152   3.609   6.424  0.0938 -0.0467  0.2458
  806YOPS   GL112155   4.076   3.536   6.851 -0.2169  0.4945  0.1878
  806YOPS   GL212156   4.355   3.772   6.945  0.0520  0.0655  0.0834
  806YOPS   C1A12157   4.002   3.736   7.247  0.0337  0.0165  0.3256
  806YOPS   D2A12158   4.023   4.110   7.444  0.1954 -0.0849  0.2337
  806YOPS   C3A12159   4.075   4.549   7.571 -0.1612  0.0843  0.1658
  806YOPS   C4A12160   3.716   4.796   7.808  0.4331 -0.1046  0.2122
  806YOPS   C1B12161   4.528   3.706   7.267 -0.1368  0.0197  0.2971
  806YOPS   C2B12162   4.697   3.929   7.549  0.0670  0.1126 -0.0028
  806YOPS   D3B12163   4.986   4.194   7.651  0.1130 -0.2425  0.0480
  806YOPS   C4B12164   5.322   3.955   7.449 -0.1889 -0.2291 -0.1390
  807YOPS   CNO12165   7.625  18.386   6.122 -0.3677 -0.0895 -0.1633
  807YOPS   PO412166   7.937  18.288   6.427 -0.1505  0.0498 -0.1048
  807YOPS   GL112167   8.052  18.333   6.787 -0.3673 -0.2449  0.3118
  807YOPS   GL212168   7.800  18.218   6.952  0.0498  0.1196 -0.1879
  807YOPS   C1A12169   8.439  18.116   7.069  0.0574  0.0600  0.1588
  807YOPS   D2A12170   8.433  17.772   7.448  0.0377 -0.0444  0.1108
  807YOPS   C3A12171   8.200  17.402   7.758  0.3226 -0.1247  0.1350
  807YOPS   C4A12172   7.642  17.459   7.713  0.0395  0.1502 -0.1722
  807YOPS   C1B12173   7.817  18.323   7.336  0.1334 -0.0618  0.2785
  807YOPS   C2B12174   7.722  18.314   7.847 -0.2418 -0.0310  0.0073
  807YOPS   D3B12175   7.545  18.145   8.245  0.0162 -0.0044 -0.2471
  807YOPS   C4B12176   7.890  18.011   8.575  0.0198  0.0965 -0.0426
  808YOPS   CNO12177   7.458   0.875   5.924  0.1375  0.0962  0.0636
  808YOPS   PO412178   7.164   0.615   6.101  0.2845  0.3721 -0.2138
  808YOPS   GL112179   7.275   0.552   6.393  0.1736  0.1182  0.0567
  808YOPS   GL212180   7.145   0.771   6.606  0.0588 -0.2354 -0.3379
  808YOPS   C1A12181   7.463   0.517   6.847 -0.0734  0.0419 -0.0747
  808YOPS   D2A12182   7.675   0.239   7.022 -0.0822  0.3143  0.1244
  808YOPS   C3A12183   7.938   0.363   7.428 -0.3568  0.1157 -0.1458
  808YOPS   C4A12184   8.060   0.181   7.840 -0.1794 -0.0180 -0.0424
  808YOPS   C1B12185   6.967   1.116   6.937  0.1762 -0.0696  0.1396
  808YOPS   C2B12186   7.126   1.252   7.285  0.3004  0.0496 -0.1369
  808YOPS   D3B12187   7.376   1.717   7.451 -0.1254 -0.0496 -0.0189
  808YOPS   C4B12188   7.193   2.130   7.646  0.0809  0.2658  0.1684
  809YOPS   CNO12189   9.329   7.054   6.192  0.2559  0.2685 -0.1857
  809YOPS   PO412190   8.936   7.247   6.041 -0.0516 -0.1871 -0.2428
  809YOPS   GL112191   9.181   7.480   6.511 -0.3398 -0.0497 -0.2090
  809YOPS   GL212192   9.382   7.299   6.670  0.2389  0.1300 -0.1541
  809YOPS   C1A12193   9.238   7.778   6.893  0.0300  0.1219 -0.0775
  809YOPS   D2A12194   9.312   7.793   7.405  0.1850  0.1198  0.1351
  809YOPS   C3A12195   9.573   7.858   7.779  0.0319  0.2001 -0.0449
  809YOPS   C4A12196   9.664   7.628   8.133 -0.1700  0.1260 -0.0071
  809YOPS   C1B12197   9.084   7.160   6.971 -0.0540 -0.0899 -0.1181
  809YOPS   C2B12198   8.724   7.102   7.261  0.1048  0.1760 -0.0674
  809YOPS   D3B12199   8.510   7.204   7.697  0.0776 -0.2681  0.1847
  809YOPS   C4B12200   8.629   7.027   8.089  0.0361 -0.1313 -0.0023
  810YOPS   CNO12201   5.685  15.385   5.704 -0.0894 -0.1733 -0.2297
  810YOPS   PO412202   5.907  15.853   5.765 -0.0760 -0.2513 -0.1534
  810YOPS   GL112203   5.926  15.595   6.202 -0.1999  0.2170 -0.0331
  810YOPS   GL212204   6.041  15.286   6.128 -0.0842 -0.0119  0.3866
  810YOPS   C1A12205   5.924  15.414   6.593 -0.1757 -0.3024 -0.0729
  810YOPS   D2A12206   5.845  15.450   6.998 -0.1938  0.0589 -0.2033
  810YOPS   C3A12207   5.840  15.668   7.531  0.1996  0.0703  0.0317
  810YOPS   C4A12208   6.080  15.599   7.854  0.0369  0.5420 -0.1635
  810YOPS   C1B12209   5.846  14.921   6.358  0.3069 -0.0166 -0.3091
  810YOPS   C2B12210   5.707  14.489   6.399  0.0285 -0.1081  0.0830
  810YOPS   D3B12211   5.506  14.070   6.403  0.1583 -0.0806  0.3189
  810YOPS   C4B12212   5.379  13.985   6.761 -0.0209  0.0659  0.1876
  811YOPS   CNO12213   8.624   7.477   5.754  0.1143  0.4715 -0.0331
  811YOPS   PO412214   8.217   7.538   5.894 -0.1944 -0.2715  0.0205
  811YOPS   GL112215   8.277   7.786   6.298  0.1590 -0.1252  0.2660
  811YOPS   GL212216   8.650   7.738   6.303  0.0436 -0.4458  0.2569
  811YOPS   C1A12217   8.015   7.742   6.621 -0.0004  0.0051 -0.0841
  811YOPS   D2A12218   8.070   7.811   7.030  0.1494  0.0553  0.0198
  811YOPS   C3A12219   7.970   7.596   7.428 -0.0479  0.0251  0.3298
  811YOPS   C4A12220   8.002   7.129   7.566  0.1327 -0.1158  0.3390
  811YOPS   C1B12221   8.603   7.886   6.685 -0.0787 -0.0448  0.3744
  811YOPS   C2B12222   8.505   7.962   7.119  0.0009 -0.1830 -0.0814
  811YOPS   D3B12223   8.418   7.828   7.635 -0.4539 -0.0325 -0.1427
  811YOPS   C4B12224   8.597   7.946   8.080  0.1404  0.2751  0.0121
  812YOPS   CNO12225   9.884   6.108   6.127 -0.4913  0.0248  0.0964
  812YOPS   PO412226   9.496   6.440   6.181  0.0111 -0.1445  0.2796
  812YOPS   GL112227   9.478   6.744   6.643  0.1585  0.1088 -0.1373
  812YOPS   GL212228   9.197   6.623   6.796  0.6204 -0.1199 -0.2131
  812YOPS   C1A12229   9.553   6.968   7.105 -0.0493 -0.1181  0.1711
  812YOPS   D2A12230   9.398   7.121   7.407  0.3156  0.1129  0.1992
  812YOPS   C3A12231   9.457   7.251   7.773  0.0135 -0.0599  0.3381
  812YOPS   C4A12232   9.720   7.083   8.048 -0.0975 -0.0330 -0.0892
  812YOPS   C1B12233   9.447   6.450   7.096 -0.2425 -0.2056  0.1841
  812YOPS   C2B12234   9.448   6.579   7.489  0.1460 -0.0629 -0.0927
  812YOPS   D3B12235   9.300   6.711   7.820  0.0033  0.3508 -0.1365
  812YOPS   C4B12236   8.859   6.644   7.927 -0.3563  0.3158 -0.0644
  813YOPS   CNO12237   0.943  12.136   5.207  0.1904  0.2170 -0.1931
  813YOPS   PO412238   0.829  12.393   5.651  0.0757  0.1032  0.4103
  813YOPS   GL112239   0.555  12.329   6.101 -0.0391  0.0009  0.1147
  813YOPS   GL212240   0.262  12.386   5.873 -0.1601  0.0136  0.1098
  813YOPS   C1A12241   0.372  12.259   6.444  0.0732  0.0003 -0.1683
  813YOPS   D2A12242   0.276  12.536   6.754 -0.0218 -0.0600  0.1827
  813YOPS   C3A12243  -0.174  12.439   6.945 -0.0444 -0.0311 -0.1048
  813YOPS   C4A12244  -0.427  12.686   7.190 -0.2658  0.0922 -0.1546
  813YOPS   C1B12245  -0.166  12.646   5.847 -0.0809  0.1493 -0.0440
  813YOPS   C2B12246  -0.489  12.836   6.040 -0.1790  0.1877 -0.3347
  813YOPS   D3B12247  -0.733  13.146   6.015 -0.0945  0.0158  0.0208
  813YOPS   C4B12248  -1.163  13.038   5.845 -0.2734 -0.1082 -0.2399
  814YOPS   CNO12249  16.498  11.040   5.883  0.0672 -0.0401  0.0464
  814YOPS   PO412250  16.327  11.268   5.617  0.0646  0.4253 -0.2139
  814YOPS   GL112251  16.119  11.396   5.935 -0.0181 -0.3890 -0.1880
  814YOPS   GL212252  16.319  11.565   6.077  0.2036 -0.0634 -0.0725
  814YOPS   C1A12253  15.897  11.834   6.155 -0.1850 -0.0746 -0.0856
  814YOPS   D2A12254  15.886  12.157   6.452 -0.3953 -0.1203  0.1886
  814YOPS   C3A12255  15.921  12.266   6.851 -0.1287 -0.2541 -0.0420
  814YOPS   C4A12256  15.839  12.635   7.046 -0.0693  0.0329 -0.1002
  814YOPS   C1B12257  16.275  11.648   6.427 -0.0587 -0.2655 -0.0159
  814YOPS   C2B12258  16.221  11.845   6.780  0.1166  0.4182 -0.2400
  814YOPS   D3B12259  16.549  11.958   7.173 -0.1751  0.2179  0.2352
  814YOPS   C4B12260  17.028  11.932   7.041 -0.0007 -0.0911  0.1836
  815YOPS   CNO12261   9.892   4.943   6.079 -0.1591 -0.0907  0.2194
  815YOPS   PO412262   9.817   4.875   6.475 -0.0213 -0.0353 -0.4166
  815YOPS   GL112263   9.923   4.861   6.816  0.1522  0.0061 -0.1801
  815YOPS   GL212264  10.098   5.107   6.880  0.3558 -0.0481 -0.1938
  815YOPS   C1A12265   9.854   4.781   7.176  0.0125 -0.0042 -0.1523
  815YOPS   D2A12266   9.958   4.766   7.587 -0.1371  0.0016 -0.0649
  815YOPS   C3A12267  10.181   4.920   7.950  0.1371 -0.1300  0.3875
  815YOPS   C4A12268  10.523   5.151   7.879  0.1973  0.3250  0.0468
  815YOPS   C1B12269  10.353   4.832   7.142  0.0823  0.0383  0.0686
  815YOPS   C2B12270  10.458   4.811   7.581  0.0705 -0.0206 -0.0792
  815YOPS   D3B12271  10.598   4.633   7.932 -0.2025  0.1630 -0.1443
  815YOPS   C4B12272  10.755   4.520   8.182  0.2202 -0.2599  0.0020
  816YOPS   CNO12273  15.189  12.733   4.677  0.0166 -0.0309 -0.3286
  816YOPS   PO412274  15.158  12.740   5.177 -0.0354 -0.3597  0.0113
  816YOPS   GL112275  15.237  12.679   5.589 -0.2830 -0.0212 -0.1407
  816YOPS   GL212276  14.976  12.842   5.789 -0.0813 -0.1154  0.0576
  816YOPS   C1A12277  15.460  12.666   5.824  0.1679  0.0439 -0.0907
  816YOPS   D2A12278  15.455  12.600   6.190 -0.1016  0.3244  0.1586
  816YOPS   C3A12279  15.676  12.765   6.523 -0.2827 -0.0317 -0.2464
  816YOPS   C4A12280  15.776  13.219   6.387 -0.0082  0.0606  0.1852
  816YOPS   C1B12281  14.896  12.602   6.079 -0.2291  0.3690  0.0391
  816YOPS   C2B12282  15.067  12.543   6.495 -0.1468  0.0913 -0.0967
  816YOPS   D3B12283  15.298  12.505   6.913 -0.1310  0.2926  0.1509
  816YOPS   C4B12284  15.222  12.638   7.364 -0.1076 -0.1746 -0.2021
  817YOPS   CNO12285   0.397   4.544   6.280  0.0746  0.2664  0.0184
  817YOPS   PO412286   0.363   4.966   6.096  0.0860 -0.3885 -0.1700
  817YOPS   GL112287  -0.016   4.941   6.294  0.1225  0.0143  0.1193
  817YOPS   GL212288   0.028   4.852   6.515  0.1390 -0.4089  0.0945
  817YOPS   C1A12289  -0.486   4.888   6.522 -0.3819  0.2924 -0.0168
  817YOPS   D2A12290  -0.472   4.831   6.991  0.1168  0.2528 -0.0707
  817YOPS   C3A12291  -0.710   5.189   7.308 -0.0946  0.2305 -0.0375
  817YOPS   C4A12292  -0.923   5.530   7.199 -0.5546  0.3360  0.3234
  817YOPS   C1B12293  -0.019   5.207   6.759 -0.1243 -0.1316 -0.0273
  817YOPS   C2B12294  -0.210   5.154   7.254  0.3522  0.0098  0.0770
  817YOPS   D3B12295  -0.327   5.117   7.681  0.4187 -0.1360  0.2817
  817YOPS   C4B12296  -0.754   5.391   7.807 -0.3588  0.3417 -0.0208
  818YOPS   CNO12297   2.202   0.234   5.520 -0.4342 -0.1462  0.1215
  818YOPS   PO412298   1.755   0.162   5.695  0.3120 -0.1433 -0.0042
  818YOPS   GL112299   1.501   0.359   5.986  0.0996 -0.0345  0.3067
  818YOPS   GL212300   1.675   0.581   6.130  0.0739  0.0158  0.1388
  818YOPS   C1A12301   1.251   0.398   6.432  0.3696 -0.1373  0.0121
  818YOPS   D2A12302   1.293   0.355   6.898  0.2395 -0.4105  0.0566
  818YOPS   C3A12303   1.245   0.264   7.387  0.2515 -0.1688  0.1151
  818YOPS   C4A12304   1.461   0.174   7.698 -0.0304  0.2237 -0.1419
  818YOPS   C1B12305   1.723   0.534   6.602 -0.1501 -0.2332  0.1449
  818YOPS   C2B12306   1.802   0.578   7.069  0.1924 -0.2279 -0.1624
  818YOPS   D3B12307   1.624   0.604   7.486  0.3489 -0.0365 -0.1627
  818YOPS   C4B12308   1.745   0.574   7.946 -0.1590 -0.1336 -0.1004
  819YOPS   CNO12309  10.096   3.178   5.155 -0.0241  0.4110  0.0028
  819YOPS   PO412310  10.292   3.218   5.611  0.2403  0.1323  0.1011
  819YOPS   GL112311   9.998   3.339   5.978  0.2407 -0.0379  0.1298
  819YOPS   GL212312   9.896   3.622   6.215  0.0707  0.0627  0.0072
  819YOPS   C1A12313   9.787   3.165   6.330 -0.1433 -0.0627 -0.0727
  819YOPS   D2A12314   9.798   3.015   6.852  0.1770  0.0665  0.0337
  819YOPS   C3A12315   9.907   3.059   7.302 -0.1716  0.0546  0.3636
  819YOPS   C4A12316   9.720   2.938   7.733  0.1715  0.0594  0.0861
  819YOPS   C1B12317  10.005   3.580   6.628 -0.1183  0.1560 -0.0196
  819YOPS   C2B12318  10.103   3.387   6.876  0.1156  0.0943 -0.5763
  819YOPS   D3B12319  10.252   3.429   7.317 -0.0240  0.0879 -0.0575
  819YOPS   C4B12320  10.185   3.238   7.755  0.0866 -0.3956  0.1354
  820YOPS   CNO12321  12.225   0.425   5.525 -0.3064  0.1166  0.2533
  820YOPS   PO412322  11.752   0.424   5.356  0.1517 -0.2245 -0.2501
  820YOPS   GL112323  11.402   0.612   5.696  0.0207  0.2903  0.3095
  820YOPS   GL212324  11.605   0.849   5.835  0.2488 -0.2622  0.1546
  820YOPS   C1A12325  11.167   0.637   6.066 -0.1333  0.0023  0.1091
  820YOPS   D2A12326  11.044   0.296   6.478  0.3462 -0.2175  0.1836
  820YOPS   C3A12327  11.183   0.004   6.805 -0.1973 -0.1868  0.2022
  820YOPS   C4A12328  11.216   0.138   7.201  0.2114 -0.2548  0.0821
  820YOPS   C1B12329  11.613   1.089   6.244  0.1368  0.1786 -0.2520
  820YOPS   C2B12330  11.612   1.141   6.724 -0.0848 -0.0924  0.1932
  820YOPS   D3B12331  11.842   1.261   7.153  0.0209  0.0680  0.0322
  820YOPS   C4B12332  12.330   1.192   7.083  0.3177  0.0407  0.1858
  821YOPS   CNO12333   6.712  10.054   6.303  0.0524 -0.1332 -0.2707
  821YOPS   PO412334   6.878  10.434   6.327  0.6925 -0.1202  0.1929
  821YOPS   GL112335   6.723  10.332   6.728 -0.0992  0.1303  0.4160
  821YOPS   GL212336   6.473  10.067   6.802 -0.1378  0.0170 -0.0304
  821YOPS   C1A12337   6.534  10.565   7.055 -0.3193 -0.2965 -0.1379
  821YOPS   D2A12338   6.684  10.812   7.414 -0.1176 -0.2601 -0.4959
  821YOPS   C3A12339   6.556  10.962   7.799 -0.1048  0.0764 -0.0113
  821YOPS   C4A12340   6.153  10.799   7.789  0.0242  0.1489 -0.1504
  821YOPS   C1B12341   6.482  10.069   7.245 -0.0195 -0.0123 -0.0695
  821YOPS   C2B12342   6.471  10.045   7.727 -0.0355 -0.1302  0.3227
  821YOPS   D3B12343   6.411  10.041   8.161  0.1099 -0.2781  0.0392
  821YOPS   C4B12344   6.502   9.875   8.477 -0.0706  0.1376  0.0456
  822YOPS   CNO12345  12.000   0.834   5.386 -0.1651  0.3856  0.1834
  822YOPS   PO412346  12.392   0.906   5.396  0.1449 -0.0125 -0.3248
  822YOPS   GL112347  12.399   0.824   5.861  0.1251  0.2933  0.1944
  822YOPS   GL212348  12.078   0.755   5.997  0.0589 -0.1689  0.0969
  822YOPS   C1A12349  12.605   0.774   6.159  0.2235 -0.1165  0.0834
  822YOPS   D2A12350  12.572   0.475   6.429  0.1649 -0.2946 -0.1777
  822YOPS   C3A12351  12.604   0.330   6.843 -0.1907 -0.0213  0.0491
  822YOPS   C4A12352  12.195   0.250   7.106  0.0730 -0.0246 -0.0129
  822YOPS   C1B12353  12.320   0.378   6.037 -0.0046 -0.1830  0.1099
  822YOPS   C2B12354  12.657   0.111   6.107 -0.1867 -0.1226  0.2776
  822YOPS   D3B12355  12.750   0.007   6.490  0.0412 -0.3333 -0.2674
  822YOPS   C4B12356  12.942  -0.334   6.666 -0.0014  0.0373  0.1085
  823YOPS   CNO12357   4.593  11.524   5.989  0.1261  0.2784  0.1285
  823YOPS   PO412358   4.517  11.939   6.036 -0.0674 -0.4408  0.0063
  823YOPS   GL112359   4.736  11.915   6.412 -0.1103 -0.1755 -0.2033
  823YOPS   GL212360   4.486  11.930   6.637  0.2149  0.2762  0.0174
  823YOPS   C1A12361   4.854  12.175   6.885 -0.2505 -0.1993  0.1607
  823YOPS   D2A12362   4.995  12.385   7.311  0.0606  0.1133  0.0718
  823YOPS   C3A12363   5.139  12.314   7.722  0.1507  0.1188 -0.1447
  823YOPS   C4A12364   5.446  12.591   7.867  0.1489 -0.0814 -0.1599
  823YOPS   C1B12365   4.532  11.793   7.143 -0.1484  0.2500  0.1040
  823YOPS   C2B12366   4.616  11.712   7.586 -0.1653  0.0924  0.0829
  823YOPS   D3B12367   4.746  11.717   7.983 -0.1875 -0.1443 -0.0146
  823YOPS   C4B12368   5.038  12.028   8.183  0.2034  0.1396  0.1031
  824YOPS   CNO12369  10.175  10.917   5.470 -0.1349  0.1658 -0.2188
  824YOPS   PO412370  10.340  10.725   5.903 -0.0037  0.2385  0.5823
  824YOPS   GL112371  10.471  10.654   6.275 -0.0330 -0.1755 -0.2283
  824YOPS   GL212372  10.715  10.590   6.480 -0.0396  0.1917  0.1132
  824YOPS   C1A12373  10.523  10.984   6.678  0.1256  0.1912 -0.0618
  824YOPS   D2A12374  10.533  10.872   7.062  0.0374 -0.0051  0.0580
  824YOPS   C3A12375  10.379  10.640   7.418 -0.0353  0.2104 -0.1030
  824YOPS   C4A12376  10.370  10.215   7.527 -0.1198 -0.1819  0.0327
  824YOPS   C1B12377  10.782  10.455   6.938 -0.0170  0.2287  0.1993
  824YOPS   C2B12378  11.015  10.451   7.340 -0.2211 -0.0254  0.1027
  824YOPS   D3B12379  11.280  10.186   7.597  0.0066  0.1496 -0.2140
  824YOPS   C4B12380  11.627   9.820   7.593  0.6155  0.0982 -0.1234
  825YOPS   CNO12381  16.706  15.271   5.454  0.0125  0.1194  0.0814
  825YOPS   PO412382  16.326  15.244   5.175  0.0488  0.2655  0.0415
  825YOPS   GL112383  16.186  15.413   5.636 -0.2373  0.2392 -0.0549
  825YOPS   GL212384  15.976  15.570   5.657 -0.0517 -0.1175  0.0978
  825YOPS   C1A12385  15.984  15.260   6.130 -0.0341 -0.2088  0.2585
  825YOPS   D2A12386  16.054  15.303   6.512 -0.0982 -0.0354  0.0781
  825YOPS   C3A12387  15.981  15.423   6.985  0.2092 -0.0249 -0.1330
  825YOPS   C4A12388  16.274  15.485   7.312 -0.0458  0.3105 -0.2222
  825YOPS   C1B12389  16.203  15.719   6.066 -0.2005  0.0080 -0.0492
  825YOPS   C2B12390  16.575  15.636   6.323  0.2312  0.1551  0.1865
  825YOPS   D3B12391  16.768  15.662   6.629  0.0772  0.0035  0.1346
  825YOPS   C4B12392  16.657  15.657   6.921 -0.3441 -0.0329 -0.0730
  826YOPS   CNO12393  10.249   8.851   6.289  0.0901  0.0539 -0.1947
  826YOPS   PO412394  10.116   8.532   6.044  0.0299 -0.3014  0.1067
  826YOPS   GL112395  10.250   8.180   6.251  0.0752  0.1440  0.0634
  826YOPS   GL212396  10.455   8.358   6.495 -0.1434 -0.2135 -0.0520
  826YOPS   C1A12397  10.134   8.073   6.700 -0.0292  0.1691  0.0655
  826YOPS   D2A12398  10.074   8.156   7.152  0.2221  0.0766 -0.1281
  826YOPS   C3A12399   9.783   8.220   7.486 -0.2758 -0.0409  0.1820
  826YOPS   C4A12400   9.467   8.579   7.460 -0.1532  0.0207 -0.1476
  826YOPS   C1B12401  10.430   8.678   6.751  0.0970  0.1748 -0.0549
  826YOPS   C2B12402  10.175   8.729   7.093 -0.0618  0.0410  0.3232
  826YOPS   D3B12403  10.098   8.686   7.470  0.2953 -0.3445  0.0680
  826YOPS   C4B12404   9.898   9.033   7.664  0.3308 -0.0339  0.1313
  827YOPS   CNO12405  11.641   6.211   5.800 -0.2101 -0.1199 -0.1506
  827YOPS   PO412406  11.220   6.439   5.870  0.3008 -0.2643  0.0248
  827YOPS   GL112407  10.943   6.593   6.117  0.2147 -0.0772  0.1692
  827YOPS   GL212408  10.584   6.736   6.253  0.1326 -0.1842  0.0938
  827YOPS   C1A12409  11.008   6.932   6.447 -0.2571  0.0565  0.1459
  827YOPS   D2A12410  10.955   7.110   6.898 -0.3304  0.1474 -0.0403
  827YOPS   C3A12411  10.841   7.014   7.313 -0.0838  0.3561  0.1878
  827YOPS   C4A12412  10.446   7.030   7.621  0.1908 -0.1066 -0.0390
  827YOPS   C1B12413  10.718   6.543   6.654 -0.2326 -0.0529 -0.1134
  827YOPS   C2B12414  11.004   6.664   6.942 -0.0362  0.1418 -0.1189
  827YOPS   D3B12415  11.245   6.744   7.207 -0.0782  0.2145 -0.1517
  827YOPS   C4B12416  11.641   6.542   7.122  0.1991 -0.2957 -0.2070
  828YOPS   CNO12417   1.432  15.773   5.509  0.1076 -0.0769  0.2039
  828YOPS   PO412418   1.680  15.443   5.840 -0.0225 -0.0347  0.0441
  828YOPS   GL112419   1.452  15.109   6.220  0.1368  0.1211  0.0186
  828YOPS   GL212420   1.207  14.894   6.143  0.1191  0.3292  0.1346
  828YOPS   C1A12421   1.551  14.727   6.473 -0.1993 -0.0014 -0.4279
  828YOPS   D2A12422   1.734  14.358   6.586 -0.0775 -0.3574  0.0777
  828YOPS   C3A12423   1.873  13.942   6.540  0.0316 -0.1826  0.2591
  828YOPS   C4A12424   2.291  13.844   6.523  0.2008  0.0980 -0.1477
  828YOPS   C1B12425   0.941  15.213   6.260  0.0648  0.4592 -0.4264
  828YOPS   C2B12426   0.806  15.463   6.590 -0.0304 -0.0894  0.0400
  828YOPS   D3B12427   0.554  15.592   7.060 -0.1026  0.0853  0.1169
  828YOPS   C4B12428   0.648  16.049   7.306  0.0982  0.2927  0.1543
  829YOPS   CNO12429   6.472  12.958   5.623 -0.3085 -0.0261 -0.0642
  829YOPS   PO412430   6.492  13.157   6.012  0.0833 -0.2177 -0.0421
  829YOPS   GL112431   6.821  13.056   6.330  0.0795  0.3182 -0.1506
  829YOPS   GL212432   6.549  12.971   6.536  0.0252 -0.1376  0.1775
  829YOPS   C1A12433   7.121  13.211   6.782  0.3172  0.1839  0.1717
  829YOPS   D2A12434   7.214  13.345   7.172  0.4026  0.1738  0.4479
  829YOPS   C3A12435   7.299  13.362   7.525  0.1317  0.0330 -0.2635
  829YOPS   C4A12436   7.573  13.263   7.875 -0.3725  0.0473 -0.0761
  829YOPS   C1B12437   6.694  12.879   6.956 -0.0922  0.1682 -0.0685
  829YOPS   C2B12438   6.593  12.652   7.277  0.0745 -0.2325  0.1647
  829YOPS   D3B12439   6.316  12.746   7.750 -0.1225 -0.0692  0.0845
  829YOPS   C4B12440   6.483  13.173   8.082 -0.1742 -0.2439  0.2366
  830YOPS   CNO12441   0.042  11.947   5.597  0.1327 -0.0288 -0.1049
  830YOPS   PO412442   0.321  11.564   5.881  0.4382  0.1219  0.0024
  830YOPS   GL112443   0.162  11.731   6.306  0.2342 -0.1288  0.0322
  830YOPS   GL212444  -0.164  11.723   6.157  0.2144 -0.0717  0.0845
  830YOPS   C1A12445  -0.050  11.941   6.623  0.0712 -0.2742 -0.0430
  830YOPS   D2A12446  -0.141  11.940   7.046 -0.0487  0.2107 -0.2296
  830YOPS   C3A12447  -0.225  12.212   7.363 -0.2324  0.2017 -0.2320
  830YOPS   C4A12448   0.122  12.087   7.736 -0.1175 -0.1451 -0.2021
  830YOPS   C1B12449  -0.522  11.939   6.457  0.0054 -0.0048  0.0784
  830YOPS   C2B12450  -0.541  12.073   6.789 -0.0181 -0.2877 -0.0330
  830YOPS   D3B12451  -0.716  12.256   7.112  0.0498  0.2287 -0.4650
  830YOPS   C4B12452  -0.662  12.400   7.560  0.0631 -0.3906  0.1542
  831YOPS   CNO12453  15.453  18.277   4.854  0.0501  0.0081 -0.2604
  831YOPS   PO412454  15.499  18.673   5.168  0.3432  0.2288  0.1153
  831YOPS   GL112455  15.775  18.557   5.492  0.1190 -0.0358  0.0564
  831YOPS   GL212456  15.513  18.343   5.663 -0.3546 -0.0284  0.0932
  831YOPS   C1A12457  15.854  18.617   5.917 -0.0876 -0.0332  0.1835
  831YOPS   D2A12458  15.872  18.464   6.278  0.1960 -0.1804 -0.1665
  831YOPS   C3A12459  15.657  18.147   6.532 -0.2358  0.0882  0.2346
  831YOPS   C4A12460  15.502  18.291   6.869 -0.1812  0.2336  0.1270
  831YOPS   C1B12461  15.359  18.304   6.076  0.3400  0.2920 -0.2407
  831YOPS   C2B12462  15.228  18.449   6.503 -0.0947 -0.3121 -0.0603
  831YOPS   D3B12463  15.053  18.742   6.740 -0.2354 -0.1050  0.2478
  831YOPS   C4B12464  15.145  18.673   7.141  0.0635  0.0125  0.1927
  832YOPS   CNO12465   3.169  17.454   6.212  0.0754  0.0512  0.1914
  832YOPS   PO412466   2.904  17.676   5.963  0.2513 -0.1101  0.1714
  832YOPS   GL112467   2.806  17.691   6.419 -0.4062  0.2185 -0.1373
  832YOPS   GL212468   2.634  17.404   6.499 -0.0576 -0.2613 -0.2098
  832YOPS   C1A12469   2.792  17.671   6.866 -0.2266  0.0471 -0.0855
  832YOPS   D2A12470   2.585  17.650   7.341  0.2016 -0.1532 -0.3121
  832YOPS   C3A12471   2.422  17.624   7.718 -0.2876 -0.3416 -0.1803
  832YOPS   C4A12472   2.250  17.640   8.068 -0.0435  0.0753 -0.1570
  832YOPS   C1B12473   2.383  17.373   6.915  0.0522 -0.1310  0.1619
  832YOPS   C2B12474   2.239  17.332   7.340 -0.0359  0.0016  0.0499
  832YOPS   D3B12475   2.158  16.990   7.602  0.0899 -0.0253  0.0999
  832YOPS   C4B12476   2.314  17.062   7.927 -0.3367  0.0746 -0.3371
  833YOPS   CNO12477   5.429   4.138   6.226 -0.0795 -0.2347  0.4449
  833YOPS   PO412478   5.383   4.325   6.647 -0.0288  0.4025 -0.2171
  833YOPS   GL112479   5.632   4.293   7.022 -0.2350 -0.0666 -0.1504
  833YOPS   GL212480   5.908   4.314   6.985  0.0141  0.0538  0.1436
  833YOPS   C1A12481   5.556   4.379   7.540  0.0316  0.0414  0.0500
  833YOPS   D2A12482   5.435   4.287   7.955  0.2067  0.0104  0.0858
  833YOPS   C3A12483   5.597   4.234   8.476  0.0978 -0.1434  0.1701
  833YOPS   C4A12484   5.316   4.144   8.836  0.1505  0.0985  0.0953
  833YOPS   C1B12485   6.015   4.660   7.328  0.0073  0.1010 -0.2868
  833YOPS   C2B12486   6.085   4.713   7.721 -0.0204 -0.5674  0.1910
  833YOPS   D3B12487   5.777   4.708   7.913 -0.0079  0.1724  0.0983
  833YOPS   C4B12488   5.665   5.071   8.165  0.2463  0.2314  0.0895
  834YOPS   CNO12489   6.514   0.935   5.581 -0.2420 -0.1393 -0.0678
  834YOPS   PO412490   6.498   1.223   5.981 -0.0534  0.3616  0.2169
  834YOPS   GL112491   6.587   1.273   6.418  0.0341  0.0069 -0.0933
  834YOPS   GL212492   6.649   0.969   6.545  0.3039  0.0079 -0.1024
  834YOPS   C1A12493   6.886   1.475   6.616  0.0141  0.2731 -0.1291
  834YOPS   D2A12494   6.985   1.644   6.950 -0.1692  0.0193  0.0511
  834YOPS   C3A12495   6.673   1.886   7.285 -0.1192  0.1688  0.1534
  834YOPS   C4A12496   6.691   1.917   7.709  0.3094  0.2219 -0.0219
  834YOPS   C1B12497   6.488   0.981   6.845 -0.0183  0.1229 -0.2227
  834YOPS   C2B12498   6.245   0.793   7.151  0.2635  0.1662 -0.0615
  834YOPS   D3B12499   6.229   0.642   7.496  0.2076  0.5310  0.1839
  834YOPS   C4B12500   6.035   0.623   7.854 -0.1409  0.0645  0.2243
  835POPE   NH312501   9.131  10.950   6.108 -0.4954 -0.3509 -0.0151
  835POPE   PO412502   8.917  11.380   5.912 -0.0510 -0.0496 -0.2279
  835POPE   GL112503   9.040  11.354   6.352 -0.0669  0.1333  0.1012
  835POPE   GL212504   8.831  11.104   6.513  0.0600 -0.1082  0.1492
  835POPE   C1A12505   9.273  11.362   6.707 -0.2064 -0.0174  0.0557
  835POPE   D2A12506   9.308  11.408   7.164  0.0732  0.3291 -0.0097
  835POPE   C3A12507   9.007  11.201   7.287  0.1869  0.3079 -0.2989
  835POPE   C4A12508   8.711  11.127   7.530  0.2076 -0.0584 -0.2346
  835POPE   C1B12509   8.682  11.394   6.938  0.3022  0.0666 -0.3330
  835POPE   C2B12510   8.527  11.545   7.208 -0.0580  0.2973  0.0332
  835POPE   C3B12511   8.460  11.877   7.549 -0.3211 -0.0769  0.1485
  835POPE   C4B12512   8.419  11.888   8.006 -0.4052 -0.0808 -0.1186
  836POPE   NH312513   2.123   2.434   6.060  0.4659 -0.0384  0.2076
  836POPE   PO412514   1.924   2.688   6.342  0.3154 -0.1427  0.1587
  836POPE   GL112515   2.019   2.395   6.667  0.1240 -0.0360 -0.0302
  836POPE   GL212516   2.090   2.101   6.535  0.2234  0.1775  0.5147
  836POPE   C1A12517   2.112   2.327   7.148  0.0356 -0.1083  0.0255
  836POPE   D2A12518   2.411   2.153   7.369 -0.0021  0.1143 -0.0267
  836POPE   C3A12519   2.531   1.686   7.247 -0.1149  0.1016 -0.0457
  836POPE   C4A12520   2.493   1.242   7.189  0.2025  0.2380  0.0598
  836POPE   C1B12521   1.879   1.949   6.956 -0.2761 -0.3363  0.0935
  836POPE   C2B12522   1.847   1.934   7.359  0.0884  0.1953 -0.2518
  836POPE   C3B12523   1.721   1.593   7.653  0.0883  0.1062  0.2859
  836POPE   C4B12524   1.659   1.069   7.573  0.0429 -0.3447 -0.0626
  837POPE   NH312525  15.852   5.407   5.597 -0.5073 -0.0970 -0.2591
  837POPE   PO412526  15.688   5.014   5.607  0.1553  0.0626  0.0976
  837POPE   GL112527  15.705   4.815   6.000 -0.1746 -0.0005 -0.1637
  837POPE   GL212528  15.939   5.061   6.095  0.2701 -0.0001 -0.0888
  837POPE   C1A12529  15.829   4.466   6.334 -0.1500  0.1727 -0.0073
  837POPE   D2A12530  15.916   4.196   6.658  0.1915 -0.0229 -0.0582
  837POPE   C3A12531  15.707   4.283   7.028  0.1168 -0.0223  0.0636
  837POPE   C4A12532  15.778   4.323   7.497  0.1936  0.1084  0.2002
  837POPE   C1B12533  15.923   5.178   6.553  0.1529  0.1620 -0.0878
  837POPE   C2B12534  16.074   5.012   6.901 -0.0170 -0.3901  0.1016
  837POPE   C3B12535  16.071   5.274   7.458  0.0700  0.0315  0.2752
  837POPE   C4B12536  16.073   5.432   7.881 -0.5311 -0.0747 -0.0744
  838POPE   NH312537   2.417  17.548   6.040 -0.1575  0.1466 -0.1447
  838POPE   PO412538   2.181  17.771   5.940 -0.1386 -0.0441 -0.0022
  838POPE   GL112539   2.008  17.949   6.125 -0.0419  0.0815  0.1433
  838POPE   GL212540   1.733  17.866   6.358 -0.1442 -0.3600 -0.2833
  838POPE   C1A12541   2.101  18.215   6.488 -0.0681 -0.1733  0.2003
  838POPE   D2A12542   2.459  18.262   6.687 -0.1084  0.0892  0.0335
  838POPE   C3A12543   2.552  18.092   7.010 -0.3077 -0.2482 -0.0082
  838POPE   C4A12544   2.497  18.121   7.524 -0.2183  0.2388 -0.1630
  838POPE   C1B12545   1.642  18.085   6.645  0.3983  0.2424 -0.0142
  838POPE   C2B12546   1.578  18.151   7.033  0.2849 -0.3387 -0.4391
  838POPE   C3B12547   1.328  18.263   7.393 -0.0457 -0.1656  0.2830
  838POPE   C4B12548   1.120  18.308   7.812  0.3038  0.2224  0.2112
  839POPE   NH312549   2.555  16.630   5.781  0.3580  0.3615  0.1667
  839POPE   PO412550   2.885  16.827   5.852  0.3647  0.1427 -0.4311
  839POPE   GL112551   2.928  17.024   6.245  0.1273  0.1551 -0.1681
  839POPE   GL212552   2.681  16.813   6.294  0.1906  0.1523  0.0643
  839POPE   C1A12553   2.848  16.982   6.774  0.0273 -0.2778 -0.1495
  839POPE   D2A12554   2.904  16.783   7.169  0.0753 -0.1470 -0.0729
  839POPE   C3A12555   2.620  16.566   7.337  0.4383  0.3249  0.0936
  839POPE   C4A12556   2.483  16.189   7.120 -0.1869  0.0047  0.0262
  839POPE   C1B12557   2.440  16.301   6.429  0.0825 -0.2174  0.0774
  839POPE   C2B12558   2.070  16.144   6.670  0.0775  0.3452  0.1286
  839POPE   C3B12559   2.046  16.340   6.998 -0.3152  0.0179  0.0878
  839POPE   C4B12560   1.918  16.670   7.233  0.1140 -0.1537  0.1553
  840POPE   NH312561   8.395  14.462   5.669 -0.3700 -0.0094  0.1626
  840POPE   PO412562   8.156  14.066   5.720 -0.1620 -0.1500  0.0154
  840POPE   GL112563   7.922  14.201   6.090  0.3049  0.1984  0.0121
  840POPE   GL212564   7.686  14.076   6.264 -0.0425 -0.1772  0.1984
  840POPE   C1A12565   8.071  14.221   6.521  0.2337  0.1473  0.1461
  840POPE   D2A12566   7.993  14.208   6.997 -0.0370 -0.0447 -0.0198
  840POPE   C3A12567   8.298  14.098   7.159 -0.0640 -0.0794 -0.2125
  840POPE   C4A12568   8.336  13.635   7.355 -0.0977  0.1699 -0.1873
  840POPE   C1B12569   7.447  14.107   6.653  0.0093  0.1583  0.0429
  840POPE   C2B12570   7.280  13.929   7.115 -0.1679 -0.0102  0.1138
  840POPE   C3B12571   7.027  13.813   7.313 -0.0136 -0.0989  0.0229
  840POPE   C4B12572   6.894  13.791   7.669 -0.1751  0.0221  0.2796
  841POPE   NH312573   1.610  17.614   5.876  0.0195  0.0633 -0.0098
  841POPE   PO412574   1.616  18.113   5.836  0.1560 -0.1311  0.1929
  841POPE   GL112575   1.510  18.383   6.115 -0.0068 -0.4211  0.0432
  841POPE   GL212576   1.237  18.369   6.203  0.2984 -0.1780  0.0868
  841POPE   C1A12577   1.672  18.454   6.366 -0.1140 -0.0416 -0.0791
  841POPE   D2A12578   1.829  18.567   6.756  0.0670 -0.1423 -0.0136
  841POPE   C3A12579   1.682  18.614   7.186  0.0441 -0.0975 -0.0262
  841POPE   C4A12580   1.990  18.810   7.515 -0.0352  0.3978 -0.0519
  841POPE   C1B12581   1.244  18.393   6.593  0.1446  0.0129 -0.0455
  841POPE   C2B12582   1.172  18.064   6.827  0.1470  0.1176  0.0507
  841POPE   C3B12583   1.035  17.948   7.138  0.0200 -0.1407  0.2704
  841POPE   C4B12584   0.973  17.852   7.562  0.0405 -0.3140  0.0303
  842POPE   NH312585   3.074   2.306   6.335 -0.2126  0.2274 -0.3226
  842POPE   PO412586   3.399   2.049   6.481  0.1359 -0.0829 -0.0724
  842POPE   GL112587   3.426   1.794   6.776  0.1209  0.4304 -0.2756
  842POPE   GL212588   3.426   1.470   6.720 -0.2894 -0.0802 -0.1653
  842POPE   C1A12589   3.449   1.876   7.151 -0.1342  0.1281 -0.1486
  842POPE   D2A12590   3.449   2.076   7.620  0.0081 -0.0681  0.0360
  842POPE   C3A12591   3.667   2.200   8.049  0.1139 -0.0042 -0.0248
  842POPE   C4A12592   3.737   2.262   8.372  0.2917  0.4007  0.0408
  842POPE   C1B12593   3.551   1.397   7.138  0.0695  0.0344 -0.1991
  842POPE   C2B12594   3.578   1.244   7.502  0.2043  0.2432  0.0046
  842POPE   C3B12595   3.942   0.904   7.678 -0.1041  0.2554 -0.1496
  842POPE   C4B12596   4.230   0.697   7.318 -0.4748 -0.1051  0.5889
  843POPE   NH312597   8.652  16.275   5.653 -0.2907  0.0701 -0.1156
  843POPE   PO412598   8.819  16.480   5.933 -0.4832 -0.0722 -0.0477
  843POPE   GL112599   8.760  16.283   6.342  0.1811 -0.4085  0.2104
  843POPE   GL212600   9.074  16.431   6.444  0.0391 -0.0969 -0.0325
  843POPE   C1A12601   8.663  16.216   6.731 -0.1382 -0.0983 -0.0420
  843POPE   D2A12602   8.672  16.287   7.143  0.0418  0.0886  0.0439
  843POPE   C3A12603   9.035  16.213   7.367  0.1251  0.0029  0.0570
  843POPE   C4A12604   9.442  16.079   7.471 -0.0721  0.0876  0.1070
  843POPE   C1B12605   9.323  16.272   6.902  0.1617  0.0360  0.0328
  843POPE   C2B12606   9.365  15.952   6.953 -0.0447  0.3466 -0.0355
  843POPE   C3B12607   9.602  15.642   7.176 -0.0848  0.1647  0.0355
  843POPE   C4B12608   9.575  15.602   7.620  0.0394  0.3599 -0.1776
  844POPE   NH312609   6.569   8.881   6.559  0.0377 -0.0385 -0.3181
  844POPE   PO412610   6.830   8.632   6.271 -0.1451  0.0382  0.1383
  844POPE   GL112611   7.115   8.566   6.609 -0.0054 -0.2362 -0.2754
  844POPE   GL212612   6.931   8.818   6.863  0.0617  0.0584  0.0692
  844POPE   C1A12613   7.520   8.541   6.752 -0.0684  0.1086  0.0985
  844POPE   D2A12614   7.576   8.239   7.163 -0.0462  0.1434  0.3592
  844POPE   C3A12615   7.403   8.285   7.610  0.1428 -0.2688 -0.0119
  844POPE   C4A12616   7.486   8.282   7.913  0.0616 -0.4829  0.0670
  844POPE   C1B12617   7.134   8.617   7.197 -0.1303 -0.2622 -0.1011
  844POPE   C2B12618   7.339   8.776   7.512  0.1630  0.0063  0.0467
  844POPE   C3B12619   7.532   8.873   7.915 -0.1877 -0.1095 -0.1338
  844POPE   C4B12620   7.872   9.057   8.150 -0.1387 -0.0664  0.1509
  845POPE   NH312621  13.363   0.327   5.308 -0.1058 -0.0232 -0.1872
  845POPE   PO412622  13.808   0.229   5.388 -0.3595  0.0988  0.0723
  845POPE   GL112623  13.937  -0.015   5.693 -0.0493  0.1274  0.1892
  845POPE   GL212624  14.237  -0.044   5.707 -0.2384 -0.1230 -0.1439
  845POPE   C1A12625  13.693  -0.098   6.092  0.3361  0.1629 -0.3314
  845POPE   D2A12626  13.756  -0.005   6.377 -0.0660  0.0751 -0.0562
  845POPE   C3A12627  13.863  -0.332   6.552 -0.0507 -0.3142  0.2539
  845POPE   C4A12628  13.831  -0.506   6.933 -0.0879  0.2157 -0.1239
  845POPE   C1B12629  14.151  -0.318   6.027  0.2388  0.1418 -0.1411
  845POPE   C2B12630  14.278  -0.257   6.385  0.0628  0.2290  0.3472
  845POPE   C3B12631  14.333  -0.222   6.872 -0.0292 -0.2135  0.1202
  845POPE   C4B12632  14.543  -0.357   7.178 -0.1593  0.1201  0.2570
  846POPE   NH312633   4.806   8.141   6.407  0.0469 -0.1508 -0.2009
  846POPE   PO412634   4.489   8.384   6.088  0.1189  0.3600  0.1076
  846POPE   GL112635   4.420   8.589   6.436 -0.0454 -0.1706  0.3421
  846POPE   GL212636   4.673   8.623   6.521 -0.2059 -0.0912 -0.1465
  846POPE   C1A12637   4.366   8.775   6.847 -0.0801 -0.1269  0.1395
  846POPE   D2A12638   4.493   8.844   7.279  0.1119 -0.3627 -0.1589
  846POPE   C3A12639   4.910   8.867   7.399  0.1441 -0.2554 -0.2485
  846POPE   C4A12640   5.237   8.823   7.699  0.1318  0.2674  0.0852
  846POPE   C1B12641   4.846   8.754   6.913 -0.2644  0.3154 -0.5310
  846POPE   C2B12642   5.164   8.496   7.234  0.2582 -0.1424 -0.0350
  846POPE   C3B12643   5.570   8.500   7.428 -0.1608 -0.0894 -0.0505
  846POPE   C4B12644   5.966   8.273   7.688 -0.0480 -0.2630  0.1037
  847POPE   NH312645   8.584   5.579   6.391  0.0572 -0.0363 -0.1768
  847POPE   PO412646   9.028   5.707   6.540 -0.2544  0.3528 -0.0387
  847POPE   GL112647   8.673   5.867   6.775 -0.0428  0.1358 -0.0612
  847POPE   GL212648   8.720   6.116   6.696  0.0763 -0.2402 -0.4516
  847POPE   C1A12649   8.578   5.815   7.171  0.0792 -0.0191  0.0389
  847POPE   D2A12650   8.343   5.560   7.511 -0.1611  0.2599 -0.1513
  847POPE   C3A12651   8.436   5.169   7.634 -0.1631  0.0261  0.1164
  847POPE   C4A12652   8.745   4.798   7.887 -0.0337 -0.1442 -0.2291
  847POPE   C1B12653   8.952   6.288   7.100  0.0994  0.2185  0.0178
  847POPE   C2B12654   9.044   6.770   7.287 -0.0130  0.4641 -0.1398
  847POPE   C3B12655   8.992   7.088   7.678  0.0556 -0.1097 -0.2162
  847POPE   C4B12656   8.996   7.309   8.063 -0.1394 -0.3870 -0.1062
  848POPE   NH312657  16.021   0.221   5.111 -0.1353 -0.3541  0.0970
  848POPE   PO412658  16.476   0.244   5.167 -0.1700  0.0182 -0.2592
  848POPE   GL112659  16.371   0.122   5.579 -0.0789 -0.3640  0.1799
  848POPE   GL212660  16.136   0.445   5.613 -0.0991  0.0692  0.0754
  848POPE   C1A12661  16.289  -0.086   6.000 -0.1686 -0.0612  0.1541
  848POPE   D2A12662  16.256  -0.353   6.411 -0.1029 -0.0518  0.1651
  848POPE   C3A12663  16.044  -0.125   6.858  0.0730 -0.1230 -0.1626
  848POPE   C4A12664  16.186   0.060   7.125 -0.0720  0.0530  0.2328
  848POPE   C1B12665  15.925   0.678   6.073  0.0208  0.1532  0.1399
  848POPE   C2B12666  16.082   0.746   6.444 -0.0810  0.0734 -0.0656
  848POPE   C3B12667  15.729   0.822   6.717  0.0992 -0.0233  0.1961
  848POPE   C4B12668  15.661   0.908   7.141  0.1595 -0.1421  0.0329
  849POPE   NH312669  10.814  10.605   5.891 -0.0420  0.1128  0.0555
  849POPE   PO412670  11.271  10.520   5.896  0.1035  0.4336 -0.0713
  849POPE   GL112671  11.134  10.348   6.202 -0.0126 -0.4366  0.1353
  849POPE   GL212672  10.785  10.146   6.182  0.1119  0.2670 -0.3092
  849POPE   C1A12673  11.299  10.436   6.654 -0.1714 -0.1316  0.0461
  849POPE   D2A12674  11.389  10.463   7.079 -0.0353  0.3267  0.4302
  849POPE   C3A12675  11.462  10.662   7.402  0.0580  0.5234  0.0059
  849POPE   C4A12676  11.345  10.633   7.784  0.0810 -0.5202  0.2802
  849POPE   C1B12677  10.834  10.125   6.590  0.2557 -0.0719  0.0385
  849POPE   C2B12678  11.183   9.951   6.958  0.1066 -0.1005 -0.1822
  849POPE   C3B12679  11.583   9.883   6.999 -0.0126 -0.0464  0.0430
  849POPE   C4B12680  12.031   9.685   6.987 -0.1345 -0.0252 -0.2652
  850POPE   NH312681   3.121  10.862   6.139  0.1227 -0.0708 -0.3295
  850POPE   PO412682   2.613  11.159   6.147 -0.2128 -0.1098  0.0137
  850POPE   GL112683   2.473  10.812   6.418  0.1944  0.0978  0.2203
  850POPE   GL212684   2.683  10.729   6.621 -0.3858 -0.2923 -0.0876
  850POPE   C1A12685   2.085  10.686   6.531 -0.0043 -0.0864  0.2216
  850POPE   D2A12686   1.711  10.367   6.490 -0.0523  0.0520 -0.0464
  850POPE   C3A12687   1.440  10.212   6.875  0.0473  0.0244  0.1186
  850POPE   C4A12688   1.517  10.283   7.282  0.1056 -0.0717 -0.1630
  850POPE   C1B12689   2.493  10.731   6.970  0.3838  0.3126  0.0717
  850POPE   C2B12690   2.386  11.024   7.375 -0.0724  0.1446  0.0960
  850POPE   C3B12691   2.546  11.115   7.780  0.1753  0.1687 -0.0063
  850POPE   C4B12692   2.453  11.337   8.161  0.1619 -0.2113 -0.0738
  851POPE   NH312693  10.431  14.017   5.618 -0.0965  0.2007 -0.1331
  851POPE   PO412694  10.308  14.406   5.686 -0.0443 -0.2136 -0.2726
  851POPE   GL112695  10.530  14.443   6.076  0.1689 -0.0825 -0.0123
  851POPE   GL212696  10.452  14.716   6.203 -0.0897  0.0828 -0.2022
  851POPE   C1A12697  10.721  14.244   6.441  0.0769 -0.3244 -0.2485
  851POPE   D2A12698  11.001  14.000   6.637  0.2558 -0.4289  0.0809
  851POPE   C3A12699  11.131  13.822   6.390 -0.2477 -0.3322  0.0534
  851POPE   C4A12700  11.425  13.439   6.442 -0.2004  0.1977 -0.0256
  851POPE   C1B12701  10.581  15.011   6.441  0.1593 -0.0506  0.2936
  851POPE   C2B12702  10.901  15.233   6.619 -0.0559  0.3276 -0.5501
  851POPE   C3B12703  11.239  15.312   6.940 -0.0666  0.0781  0.1733
  851POPE   C4B12704  11.312  15.479   7.437 -0.0855  0.0112  0.3196
  852POPE   NH312705  11.378  17.999   4.866 -0.0221 -0.1928 -0.1252
  852POPE   PO412706  11.629  18.264   4.989  0.3268  0.2567 -0.4412
  852POPE   GL112707  11.806  18.072   5.323  0.0640  0.1117 -0.1208
  852POPE   GL212708  11.893  18.294   5.568  0.0630  0.0392  0.1497
  852POPE   C1A12709  11.641  17.801   5.627 -0.0994 -0.0066 -0.0112
  852POPE   D2A12710  11.563  17.549   6.032 -0.0884  0.0574 -0.0150
  852POPE   C3A12711  11.324  17.150   6.024 -0.0644  0.0358 -0.3173
  852POPE   C4A12712  10.872  17.148   5.927  0.0127  0.2993  0.2241
  852POPE   C1B12713  12.107  18.305   5.935 -0.2513  0.1363 -0.3256
  852POPE   C2B12714  12.201  18.505   6.330 -0.2142  0.0680  0.0208
  852POPE   C3B12715  12.083  18.837   6.603 -0.1530  0.3058  0.1471
  852POPE   C4B12716  11.983  19.201   6.992  0.0634  0.0312  0.0782
  853POPE   NH312717   9.406  11.444   5.911 -0.0902  0.4089  0.1346
  853POPE   PO412718   9.757  11.194   5.745 -0.2486 -0.0702  0.0316
  853POPE   GL112719   9.736  11.111   6.110 -0.0444 -0.0994 -0.2676
  853POPE   GL212720   9.996  10.937   6.180  0.2661  0.0296  0.0193
  853POPE   C1A12721   9.655  11.143   6.547 -0.0721  0.2526 -0.1086
  853POPE   D2A12722   9.742  11.506   6.795  0.0821  0.0433  0.0902
  853POPE   C3A12723   9.805  11.452   7.254  0.0025  0.0124 -0.0461
  853POPE   C4A12724   9.961  11.291   7.561 -0.0208  0.3082 -0.0834
  853POPE   C1B12725  10.091  10.737   6.574 -0.1605 -0.2127 -0.0406
  853POPE   C2B12726  10.150  10.579   6.946 -0.0560  0.1541 -0.1572
  853POPE   C3B12727   9.925  10.253   7.194  0.1561 -0.2408  0.0264
  853POPE   C4B12728   9.547   9.949   7.339 -0.1376  0.1708  0.3956
  854POPE   NH312729   9.164  14.653   5.716  0.0348 -0.0315 -0.0620
  854POPE   PO412730   9.430  14.244   5.712 -0.0333 -0.3433  0.3065
  854POPE   GL112731   9.641  14.044   6.126 -0.0667 -0.3277 -0.1189
  854POPE   GL212732   9.929  14.322   6.079  0.2711 -0.2359  0.0735
  854POPE   C1A12733   9.714  13.979   6.630 -0.0433 -0.1006 -0.0641
  854POPE   D2A12734   9.750  13.764   7.021  0.0854  0.0658 -0.0400
  854POPE   C3A12735   9.919  14.009   7.341 -0.2172 -0.2099 -0.0557
  854POPE   C4A12736   9.830  14.159   7.754 -0.0571 -0.4805 -0.1953
  854POPE   C1B12737  10.132  14.333   6.437  0.0767 -0.1516 -0.1388
  854POPE   C2B12738  10.114  14.020   6.874 -0.1674  0.1293  0.1580
  854POPE   C3B12739  10.281  13.734   7.147  0.3173 -0.1837  0.0241
  854POPE   C4B12740  10.519  13.488   7.481  0.0001 -0.2706 -0.0657
  855POPE   NH312741   3.784   4.800   6.522 -0.3474  0.6184 -0.1648
  855POPE   PO412742   3.367   4.635   6.325 -0.3939 -0.2213 -0.1109
  855POPE   GL112743   3.349   4.403   6.704  0.0390  0.1647 -0.2220
  855POPE   GL212744   3.429   4.081   6.785  0.3224  0.0015 -0.0670
  855POPE   C1A12745   3.182   4.425   7.152  0.0001  0.5494 -0.0776
  855POPE   D2A12746   3.159   4.151   7.522 -0.1107 -0.0244  0.2516
  855POPE   C3A12747   3.410   4.165   7.887  0.2737  0.0308 -0.1243
  855POPE   C4A12748   3.846   4.219   7.932 -0.3485 -0.1496  0.1539
  855POPE   C1B12749   3.540   3.990   7.153 -0.2966  0.1943 -0.0698
  855POPE   C2B12750   3.580   3.847   7.548  0.2706  0.1886  0.1759
  855POPE   C3B12751   3.705   3.661   7.848  0.1802  0.1568 -0.1507
  855POPE   C4B12752   3.948   3.437   8.130 -0.0722 -0.0763 -0.0014
  856POPE   NH312753  12.672  12.276   5.499 -0.0652  0.1818 -0.1413
  856POPE   PO412754  12.561  12.713   5.504  0.0464 -0.0209 -0.0484
  856POPE   GL112755  12.555  12.470   5.932  0.0538 -0.2816 -0.0711
  856POPE   GL212756  12.346  12.126   5.863 -0.3921 -0.0123  0.1621
  856POPE   C1A12757  12.614  12.274   6.266  0.1452 -0.0828  0.1921
  856POPE   D2A12758  12.466  12.397   6.659  0.3211 -0.1465 -0.3578
  856POPE   C3A12759  12.368  12.732   6.879  0.0594 -0.1919 -0.0363
  856POPE   C4A12760  12.351  13.165   6.784  0.0284 -0.0088  0.2491
  856POPE   C1B12761  12.085  12.104   6.152  0.2354 -0.5376 -0.0346
  856POPE   C2B12762  12.083  12.079   6.608 -0.0411  0.2495 -0.0991
  856POPE   C3B12763  12.056  11.705   6.954 -0.2152  0.0940 -0.0360
  856POPE   C4B12764  12.147  11.192   6.969  0.0319 -0.1232  0.3753
  857POPE   NH312765   8.001   3.016   6.149  0.0548 -0.1378 -0.0288
  857POPE   PO412766   8.387   2.913   6.289  0.0237 -0.3557 -0.4548
  857POPE   GL112767   8.118   2.980   6.659 -0.0590 -0.0225 -0.1066
  857POPE   GL212768   8.045   3.311   6.699 -0.0338  0.1769 -0.2604
  857POPE   C1A12769   8.004   2.956   7.049  0.3026 -0.0370  0.3600
  857POPE   D2A12770   8.347   2.990   7.289  0.0850  0.0665  0.0110
  857POPE   C3A12771   8.544   2.644   7.274  0.2245 -0.0691  0.1631
  857POPE   C4A12772   8.742   2.351   6.978 -0.1998 -0.0303  0.3558
  857POPE   C1B12773   7.843   3.506   6.997 -0.0296 -0.0514 -0.1862
  857POPE   C2B12774   7.735   3.283   7.384 -0.0548 -0.3465  0.0693
  857POPE   C3B12775   7.619   3.386   7.791  0.3631 -0.0005  0.1285
  857POPE   C4B12776   7.850   3.256   8.193  0.0826 -0.0727 -0.2686
  858POPE   NH312777   7.232   8.374   6.092  0.1101 -0.1842  0.0351
  858POPE   PO412778   7.472   8.004   6.085 -0.3215 -0.2751 -0.1153
  858POPE   GL112779   7.821   8.150   6.244 -0.1157 -0.1606 -0.0582
  858POPE   GL212780   8.004   8.317   6.280 -0.0811 -0.2361  0.1225
  858POPE   C1A12781   7.899   8.235   6.749 -0.0464  0.2773  0.0790
  858POPE   D2A12782   8.006   8.574   6.968  0.1050 -0.0513 -0.4857
  858POPE   C3A12783   7.813   8.794   7.267  0.0012  0.2250 -0.0872
  858POPE   C4A12784   7.676   9.169   7.376 -0.1568 -0.1563 -0.2132
  858POPE   C1B12785   7.907   8.721   6.501 -0.1090  0.2649 -0.0651
  858POPE   C2B12786   7.734   9.045   6.845 -0.2095  0.2329 -0.1773
  858POPE   C3B12787   7.369   9.036   6.950  0.2286 -0.0993  0.0572
  858POPE   C4B12788   7.128   9.136   7.274  0.1298  0.2299  0.3531
  859POPE   NH312789  13.487   6.592   5.874  0.2401 -0.2687  0.0448
  859POPE   PO412790  13.705   6.187   5.985  0.1811  0.0278 -0.3612
  859POPE   GL112791  13.511   6.047   6.405  0.1846  0.0380  0.1071
  859POPE   GL212792  13.718   5.869   6.526 -0.1042  0.0201 -0.0260
  859POPE   C1A12793  13.239   6.071   6.801 -0.3730  0.1968 -0.1400
  859POPE   D2A12794  12.874   6.059   7.074  0.1287  0.2514  0.3791
  859POPE   C3A12795  12.483   5.825   7.008  0.1440  0.0501 -0.0866
  859POPE   C4A12796  12.508   5.437   6.846  0.0340 -0.1505 -0.1589
  859POPE   C1B12797  13.714   5.919   6.958 -0.1888  0.0896  0.0411
  859POPE   C2B12798  13.755   5.944   7.435  0.0011  0.0419 -0.0226
  859POPE   C3B12799  14.069   6.041   7.710 -0.0392 -0.1002 -0.1074
  859POPE   C4B12800  14.201   6.482   7.822 -0.0898 -0.1873  0.0781
  860POPE   NH312801   3.392  10.064   6.017 -0.1395  0.0825 -0.1031
  860POPE   PO412802   3.787   9.754   6.125 -0.3769  0.0442  0.1943
  860POPE   GL112803   3.861   9.988   6.464 -0.0131  0.0191  0.1092
  860POPE   GL212804   3.614  10.185   6.457 -0.0708  0.0617  0.0838
  860POPE   C1A12805   4.170  10.025   6.882  0.0526  0.0649 -0.0041
  860POPE   D2A12806   4.214   9.705   7.202 -0.0028 -0.0672  0.5102
  860POPE   C3A12807   4.305   9.803   7.537 -0.3482  0.3546 -0.0932
  860POPE   C4A12808   4.298   9.867   7.904  0.1532 -0.1700  0.1865
  860POPE   C1B12809   3.831  10.410   6.664  0.2181  0.0596 -0.3787
  860POPE   C2B12810   3.953  10.456   7.154 -0.1608  0.2426  0.2395
  860POPE   C3B12811   4.223  10.775   7.341 -0.4421 -0.0850  0.0236
  860POPE   C4B12812   4.299  11.286   7.251 -0.0431  0.4336  0.2909
  861POPE   NH312813   8.455   7.294   6.235  0.0963  0.1041 -0.1945
  861POPE   PO412814   8.349   6.949   6.500 -0.0815 -0.0144 -0.2217
  861POPE   GL112815   7.996   7.051   6.781 -0.1985 -0.2745  0.3088
  861POPE   GL212816   8.127   7.038   7.106  0.2471  0.1373  0.1966
  861POPE   C1A12817   7.675   7.476   6.879 -0.0128  0.1531  0.2789
  861POPE   D2A12818   7.515   7.743   7.235  0.2945  0.0673 -0.1123
  861POPE   C3A12819   7.525   7.536   7.601 -0.0139  0.1146 -0.2319
  861POPE   C4A12820   7.727   7.711   7.902  0.0982  0.2900  0.0809
  861POPE   C1B12821   8.402   7.418   7.084  0.1111  0.0429  0.0215
  861POPE   C2B12822   8.816   7.585   7.254 -0.0285 -0.1111 -0.1164
  861POPE   C3B12823   8.915   7.650   7.741  0.2741 -0.2421 -0.1493
  861POPE   C4B12824   9.162   7.846   8.109 -0.0200  0.3236  0.2606
  862POPE   NH312825  13.499   2.976   5.787  0.0569  0.2224  0.0460
  862POPE   PO412826  13.986   3.009   5.748  0.0848  0.3367  0.0163
  862POPE   GL112827  14.029   2.950   6.038 -0.3376 -0.2546  0.0221
  862POPE   GL212828  13.733   3.048   6.215 -0.2728  0.1554  0.3720
  862POPE   C1A12829  14.213   2.995   6.460 -0.0120 -0.1270 -0.1027
  862POPE   D2A12830  14.261   2.931   6.915 -0.1330 -0.1033 -0.0770
  862POPE   C3A12831  14.283   2.853   7.322 -0.2958  0.0254  0.1773
  862POPE   C4A12832  13.947   2.854   7.608  0.0722 -0.2612  0.1634
  862POPE   C1B12833  13.773   2.916   6.674 -0.1504 -0.0103  0.2995
  862POPE   C2B12834  13.840   2.880   7.088  0.2304 -0.2563  0.4714
  862POPE   C3B12835  13.632   2.625   7.360 -0.0236 -0.1273 -0.0541
  862POPE   C4B12836  13.431   2.542   7.697 -0.2641 -0.0076  0.2330
  863POPE   NH312837  10.611  15.671   5.719  0.0966 -0.3614  0.0919
  863POPE   PO412838  10.943  15.904   5.465  0.2007 -0.3408 -0.0233
  863POPE   GL112839  11.051  15.761   5.918  0.2993  0.0084 -0.3599
  863POPE   GL212840  11.366  15.604   5.841  0.0769  0.1478  0.0789
  863POPE   C1A12841  11.222  16.032   6.136  0.1843  0.1562 -0.0163
  863POPE   D2A12842  11.317  16.221   6.561 -0.1509  0.0410  0.0012
  863POPE   C3A12843  11.436  16.577   6.798 -0.2468  0.2132  0.1914
  863POPE   C4A12844  11.532  16.932   6.919 -0.1075 -0.0890  0.2824
  863POPE   C1B12845  11.576  15.653   6.171  0.2322  0.0972  0.0580
  863POPE   C2B12846  11.678  15.874   6.484  0.1289 -0.3127  0.3072
  863POPE   C3B12847  11.855  15.840   6.867 -0.1285 -0.3477 -0.1674
  863POPE   C4B12848  12.192  15.974   7.113  0.0117 -0.0861  0.1029
  864YOPE   NH312849   2.729   7.892   5.978 -0.0003  0.2224  0.2199
  864YOPE   PO412850   2.816   7.506   6.016  0.0819 -0.1110 -0.0499
  864YOPE   GL112851   2.872   7.608   6.428 -0.0771 -0.1113 -0.1069
  864YOPE   GL212852   2.793   7.340   6.536 -0.0771  0.1071  0.3475
  864YOPE   C1A12853   2.826   7.828   6.877  0.0296  0.1256  0.0164
  864YOPE   D2A12854   2.715   8.205   7.065 -0.0317  0.0055 -0.0183
  864YOPE   C3A12855   2.653   8.092   7.348  0.1786  0.0585  0.3494
  864YOPE   C4A12856   2.509   8.166   7.615 -0.0942 -0.1135 -0.0737
  864YOPE   C1B12857   2.520   7.348   6.786  0.0965  0.0092  0.0518
  864YOPE   C2B12858   2.396   7.369   7.206  0.2760 -0.0648  0.2702
  864YOPE   D3B12859   2.405   7.528   7.660 -0.1138 -0.0254  0.2090
  864YOPE   C4B12860   2.618   7.810   7.985 -0.2217  0.0579  0.1343
  865YOPE   NH312861   1.310   7.541   6.033 -0.3074 -0.4587 -0.2245
  865YOPE   PO412862   1.706   7.797   5.877  0.0988  0.2758 -0.4427
  865YOPE   GL112863   1.438   7.976   6.271 -0.1483  0.1753 -0.4163
  865YOPE   GL212864   1.366   8.262   6.351 -0.1296  0.2326  0.1043
  865YOPE   C1A12865   1.318   7.936   6.712  0.1993  0.1238 -0.3452
  865YOPE   D2A12866   1.107   7.828   7.104  0.0716 -0.0329 -0.1976
  865YOPE   C3A12867   1.223   7.729   7.526  0.2594  0.0228 -0.1025
  865YOPE   C4A12868   1.293   7.596   7.945  0.3630  0.2455 -0.1232
  865YOPE   C1B12869   0.903   8.013   6.370  0.2597  0.2506 -0.2209
  865YOPE   C2B12870   0.686   7.978   6.766  0.1809 -0.1876 -0.1260
  865YOPE   D3B12871   0.615   7.910   7.236 -0.1917  0.0537 -0.1758
  865YOPE   C4B12872   0.665   7.905   7.591  0.2247 -0.2301 -0.1538
  866YOPE   NH312873   5.477  15.809   6.035  0.1141  0.3143 -0.2480
  866YOPE   PO412874   5.180  16.070   5.877  0.1505 -0.0868 -0.0593
  866YOPE   GL112875   4.993  16.203   6.319  0.1253  0.2599  0.2766
  866YOPE   GL212876   5.270  16.293   6.465 -0.1473  0.0971 -0.1024
  866YOPE   C1A12877   4.834  16.333   6.691  0.1706 -0.2557  0.2354
  866YOPE   D2A12878   4.672  16.579   6.903  0.2786  0.1156 -0.1025
  866YOPE   C3A12879   4.501  16.399   7.206  0.0055 -0.1657 -0.0632
  866YOPE   C4A12880   4.402  16.121   7.477  0.1603  0.1144  0.0166
  866YOPE   C1B12881   5.202  16.163   6.980 -0.1531  0.1097  0.2939
  866YOPE   C2B12882   4.901  16.056   7.274 -0.0665  0.0370  0.3878
  866YOPE   D3B12883   4.744  15.801   7.528  0.1179  0.2429  0.1406
  866YOPE   C4B12884   4.828  15.915   7.809  0.2056  0.1005 -0.0888
  867YOPE   NH312885  12.040  12.568   5.748 -0.3490 -0.0668  0.0400
  867YOPE   PO412886  11.616  12.379   5.720 -0.1150  0.0160  0.2211
  867YOPE   GL112887  11.533  12.212   6.038 -0.1144  0.1757 -0.0743
  867YOPE   GL212888  11.244  12.127   6.079 -0.1484  0.1755 -0.0986
  867YOPE   C1A12889  11.702  12.324   6.409  0.2295 -0.1799  0.1250
  867YOPE   D2A12890  11.951  12.550   6.760  0.1359 -0.0673  0.2395
  867YOPE   C3A12891  11.704  12.824   7.110  0.2987 -0.1733  0.0933
  867YOPE   C4A12892  11.442  12.870   7.513  0.0585  0.0331 -0.0367
  867YOPE   C1B12893  11.271  12.070   6.531 -0.0999  0.1200 -0.0444
  867YOPE   C2B12894  11.112  12.012   6.991  0.4460 -0.3111  0.6227
  867YOPE   D3B12895  10.981  12.022   7.438 -0.1617 -0.1173 -0.2497
  867YOPE   C4B12896  10.687  11.890   7.669 -0.3877  0.1248  0.2148
  868YOPE   NH312897   8.623   4.087   5.439  0.2828 -0.3108  0.2466
  868YOPE   PO412898   8.725   4.115   5.828 -0.1737 -0.2356 -0.3816
  868YOPE   GL112899   8.595   3.912   6.274  0.0371  0.1014 -0.0164
  868YOPE   GL212900   8.606   4.108   6.632  0.3014 -0.1531  0.3771
  868YOPE   C1A12901   8.874   3.718   6.633  0.0682  0.0281 -0.0208
  868YOPE   D2A12902   9.135   3.503   6.963  0.4246  0.0449 -0.2056
  868YOPE   C3A12903   9.229   3.603   7.369 -0.5567  0.2190  0.3461
  868YOPE   C4A12904   9.115   3.615   7.756  0.1081  0.0071 -0.0903
  868YOPE   C1B12905   8.228   4.341   6.882 -0.0314  0.2177 -0.2039
  868YOPE   C2B12906   8.080   4.449   7.223 -0.0518  0.1224 -0.3516
  868YOPE   D3B12907   7.743   4.449   7.597  0.0771 -0.0253  0.0895
  868YOPE   C4B12908   7.415   4.238   7.569  0.2353  0.1181 -0.1942
  869YOPE   NH312909   5.435  12.367   5.884  0.0433  0.4337 -0.1697
  869YOPE   PO412910   5.366  12.085   6.276 -0.1958  0.2493  0.3206
  869YOPE   GL112911   5.529  11.946   6.605  0.1638 -0.0977  0.0804
  869YOPE   GL212912   5.818  11.938   6.504 -0.2011  0.1814 -0.0754
  869YOPE   C1A12913   5.715  11.812   6.955  0.2545 -0.2039  0.0989
  869YOPE   D2A12914   5.608  12.049   7.400  0.2217 -0.1392  0.1151
  869YOPE   C3A12915   5.605  12.392   7.446 -0.2854 -0.1283 -0.0134
  869YOPE   C4A12916   5.343  12.830   7.394 -0.2166 -0.0847 -0.2127
  869YOPE   C1B12917   6.244  11.704   6.737 -0.1615  0.0235 -0.3903
  869YOPE   C2B12918   6.396  11.687   7.110  0.1433 -0.0234  0.3761
  869YOPE   D3B12919   6.770  11.805   7.314  0.1351 -0.0265  0.1519
  869YOPE   C4B12920   6.951  11.893   7.731 -0.0540 -0.0754  0.0717
  870YOPE   NH312921  15.672  15.864   4.917 -0.2296  0.3473  0.5533
  870YOPE   PO412922  15.207  15.922   5.088  0.0424 -0.1385  0.1395
  870YOPE   GL112923  15.160  16.241   5.489  0.2479  0.0653 -0.2938
  870YOPE   GL212924  15.385  16.370   5.512  0.0790  0.0113 -0.1170
  870YOPE   C1A12925  14.831  16.387   5.812  0.2767  0.1086  0.2399
  870YOPE   D2A12926  14.450  16.430   5.670  0.0290 -0.0589 -0.3156
  870YOPE   C3A12927  14.070  16.152   5.859 -0.2953 -0.2604  0.4602
  870YOPE   C4A12928  13.821  16.127   6.162  0.0385 -0.0111 -0.3320
  870YOPE   C1B12929  15.343  16.409   6.040  0.0610 -0.0113 -0.0013
  870YOPE   C2B12930  15.665  16.370   6.389  0.0302  0.0890  0.1639
  870YOPE   D3B12931  15.825  16.485   6.855  0.0991 -0.0699 -0.0355
  870YOPE   C4B12932  15.898  16.313   7.217  0.0530 -0.0552  0.2729
  871YOPE   NH312933  16.520   8.034   5.900  0.0345 -0.1880 -0.0082
  871YOPE   PO412934  16.679   8.375   5.673  0.1712  0.1327 -0.1119
  871YOPE   GL112935  16.735   8.408   6.208 -0.0545 -0.0574 -0.1460
  871YOPE   GL212936  17.060   8.349   6.318  0.5268 -0.1333  0.0920
  871YOPE   C1A12937  16.711   8.205   6.604  0.1177 -0.2185  0.5037
  871YOPE   D2A12938  16.766   8.139   7.076  0.0996  0.0672 -0.2852
  871YOPE   C3A12939  17.115   8.007   7.196  0.3319 -0.1324  0.4052
  871YOPE   C4A12940  17.403   8.457   7.165  0.0445  0.1476  0.1743
  871YOPE   C1B12941  17.175   8.516   6.738 -0.2146 -0.1313  0.0618
  871YOPE   C2B12942  16.923   8.584   6.914 -0.2478  0.0497 -0.0281
  871YOPE   D3B12943  16.703   8.572   7.323 -0.1458 -0.0436  0.1298
  871YOPE   C4B12944  16.688   8.548   7.723 -0.2102 -0.1215  0.3124
  872YOPE   NH312945   4.569   1.038   6.538 -0.3562 -0.3260 -0.2910
  872YOPE   PO412946   4.557   0.636   6.314 -0.4368 -0.1602  0.3020
  872YOPE   GL112947   4.730   0.538   6.697  0.1126 -0.3168  0.1653
  872YOPE   GL212948   4.639   0.731   6.969 -0.1936 -0.3694  0.1150
  872YOPE   C1A12949   4.416   0.269   6.855 -0.1741  0.2311 -0.4218
  872YOPE   D2A12950   4.231   0.160   7.240  0.2863  0.1047 -0.1891
  872YOPE   C3A12951   4.496  -0.039   7.541  0.0845 -0.0339 -0.1951
  872YOPE   C4A12952   4.786  -0.321   7.831 -0.0810 -0.0183 -0.1508
  872YOPE   C1B12953   4.688   0.419   7.256  0.0446  0.1356 -0.2464
  872YOPE   C2B12954   4.842   0.343   7.604 -0.1288 -0.0018 -0.2069
  872YOPE   D3B12955   5.078   0.451   7.931 -0.0526 -0.0305 -0.2736
  872YOPE   C4B12956   5.299   0.625   8.214  0.0130 -0.2357  0.3714
  873YOPE   NH312957  13.363  15.211   5.512 -0.1108  0.1207 -0.1061
  873YOPE   PO412958  13.694  14.872   5.366  0.0038 -0.0334  0.2481
  873YOPE   GL112959  13.538  14.725   5.668  0.0123 -0.0153 -0.2806
  873YOPE   GL212960  13.153  14.774   5.779 -0.0558 -0.4440 -0.4495
  873YOPE   C1A12961  13.589  14.505   6.124  0.0911  0.1835 -0.1936
  873YOPE   D2A12962  13.210  14.258   6.390 -0.3130 -0.0413  0.0831
  873YOPE   C3A12963  12.991  14.222   6.738 -0.1104  0.0727 -0.0164
  873YOPE   C4A12964  12.698  14.526   6.954  0.0300  0.3183  0.0744
  873YOPE   C1B12965  13.343  15.020   6.126  0.1826 -0.0024 -0.0509
  873YOPE   C2B12966  13.648  15.306   6.295 -0.1090 -0.1034  0.0970
  873YOPE   D3B12967  13.750  15.199   6.760 -0.4856  0.0116  0.0241
  873YOPE   C4B12968  13.579  15.118   7.073  0.0498 -0.2082  0.2152
  874YOPE   NH312969   4.693  13.660   6.046 -0.1499 -0.0646  0.0398
  874YOPE   PO412970   4.381  13.325   6.051 -0.0083  0.1935  0.3750
  874YOPE   GL112971   4.586  13.431   6.459 -0.3271  0.0426 -0.0192
  874YOPE   GL212972   4.982  13.405   6.347 -0.5564  0.3041  0.0279
  874YOPE   C1A12973   4.555  13.135   6.839  0.3975  0.0313 -0.0111
  874YOPE   D2A12974   4.507  13.276   7.330 -0.2019  0.0436 -0.2673
  874YOPE   C3A12975   4.417  13.048   7.750 -0.5453 -0.2088  0.1576
  874YOPE   C4A12976   4.537  13.114   8.139 -0.0773 -0.0009 -0.1373
  874YOPE   C1B12977   5.242  13.443   6.693  0.0378 -0.1255  0.0429
  874YOPE   C2B12978   5.399  13.587   7.052  0.0035 -0.2475 -0.1500
  874YOPE   D3B12979   5.415  13.705   7.416 -0.1532 -0.0229  0.2292
  874YOPE   C4B12980   5.424  14.067   7.600 -0.2232 -0.2913 -0.0727
  875YOPE   NH312981  12.821   9.710   5.842 -0.1111  0.3136  0.3408
  875YOPE   PO412982  12.973  10.153   5.763 -0.2698 -0.0346  0.1788
  875YOPE   GL112983  13.223   9.894   6.117  0.1255 -0.2318 -0.2905
  875YOPE   GL212984  13.545   9.725   6.018  0.1937  0.1761 -0.2350
  875YOPE   C1A12985  13.330   9.776   6.533 -0.3138  0.1539  0.1668
  875YOPE   D2A12986  13.365   9.733   6.972 -0.0781  0.2252  0.1388
  875YOPE   C3A12987  12.981   9.667   7.114 -0.0160 -0.0615 -0.2204
  875YOPE   C4A12988  12.795   9.373   7.127 -0.1923 -0.1196  0.1600
  875YOPE   C1B12989  13.789   9.561   6.406  0.3649 -0.6113 -0.1020
  875YOPE   C2B12990  13.649   9.395   6.786  0.1091 -0.1416 -0.2947
  875YOPE   D3B12991  13.812   9.200   7.107  0.4386  0.1844  0.0292
  875YOPE   C4B12992  13.826   8.814   7.239 -0.1954 -0.0926  0.4234
  876YOPE   NH312993   0.786  17.698   5.668 -0.0563  0.2469 -0.1303
  876YOPE   PO412994   1.064  18.065   5.749 -0.0598 -0.1945 -0.0146
  876YOPE   GL112995   0.760  18.408   5.987 -0.1097 -0.0940 -0.1347
  876YOPE   GL212996   0.834  18.701   6.100  0.2363  0.3698 -0.0276
  876YOPE   C1A12997   0.340  18.346   6.120  0.0915  0.3087  0.0252
  876YOPE   D2A12998  -0.038  18.076   6.251 -0.1532  0.1519  0.0725
  876YOPE   C3A12999  -0.243  18.051   6.545  0.0504  0.0746 -0.2324
  876YOPE   C4A13000  -0.080  17.897   6.889  0.0167  0.1645  0.0376
  876YOPE   C1B13001   0.767  18.757   6.549  0.0429  0.3386 -0.1291
  876YOPE   C2B13002   0.504  18.650   6.871  0.1702  0.0505 -0.1320
  876YOPE   D3B13003   0.484  18.572   7.285 -0.1069 -0.0949  0.1104
  876YOPE   C4B13004   0.690  18.321   7.485 -0.0295  0.0358 -0.3028
  877YOPE   NH313005   7.019   5.059   6.011 -0.2834  0.0489  0.1718
  877YOPE   PO413006   6.933   4.741   6.003  0.1211  0.1548  0.1441
  877YOPE   GL113007   7.126   4.317   6.111 -0.2178  0.0926 -0.1278
  877YOPE   GL213008   7.506   4.397   6.177  0.3356 -0.0180  0.1774
  877YOPE   C1A13009   7.323   4.090   6.556  0.3458 -0.0110  0.3029
  877YOPE   D2A13010   7.455   4.024   7.056  0.1560 -0.1615  0.1085
  877YOPE   C3A13011   7.624   4.428   7.120  0.2526 -0.0419 -0.2713
  877YOPE   C4A13012   7.621   4.827   7.097 -0.0388  0.1913 -0.3319
  877YOPE   C1B13013   7.613   4.570   6.616 -0.0264 -0.0739  0.1693
  877YOPE   C2B13014   7.996   4.770   6.712  0.4345  0.2512  0.1296
  877YOPE   D3B13015   8.277   4.856   7.054  0.0691 -0.0852 -0.3611
  877YOPE   C4B13016   8.609   4.700   7.326  0.0845  0.0938 -0.3129
  878YOPE   NH313017  16.134  13.404   5.074 -0.0392  0.0496  0.3010
  878YOPE   PO413018  16.262  13.763   4.987  0.0879 -0.0032  0.1982
  878YOPE   GL113019  16.303  13.706   5.406  0.0205 -0.0940  0.0239
  878YOPE   GL213020  16.564  13.650   5.583 -0.1129  0.0402 -0.1664
  878YOPE   C1A13021  16.186  13.875   5.824  0.2041  0.2688 -0.0326
  878YOPE   D2A13022  16.481  14.079   6.144 -0.0533  0.1682 -0.1161
  878YOPE   C3A13023  16.351  14.058   6.632  0.0887 -0.2237  0.0703
  878YOPE   C4A13024  16.546  14.239   7.111  0.0723 -0.0290 -0.1540
  878YOPE   C1B13025  16.494  13.570   6.030  0.2653  0.1717 -0.2199
  878YOPE   C2B13026  16.235  13.660   6.312 -0.0344  0.2210  0.0787
  878YOPE   D3B13027  15.967  13.665   6.638 -0.1926  0.0331  0.0786
  878YOPE   C4B13028  15.817  13.638   7.116 -0.0164 -0.2315  0.1513
  879YOPE   NH313029  12.479   0.416   5.118  0.1544  0.2686  0.1706
  879YOPE   PO413030  12.846   0.239   5.187 -0.0287 -0.1149  0.1377
  879YOPE   GL113031  13.047   0.064   5.569 -0.0664  0.1573 -0.0716
  879YOPE   GL213032  12.914  -0.188   5.648 -0.2710  0.1797 -0.2425
  879YOPE   C1A13033  13.303   0.196   5.995 -0.3090 -0.0334  0.1281
  879YOPE   D2A13034  13.240   0.141   6.416  0.1047 -0.1127  0.1807
  879YOPE   C3A13035  13.546   0.264   6.709  0.0340 -0.0266  0.3245
  879YOPE   C4A13036  13.864  -0.011   6.905 -0.0256 -0.3721 -0.0711
  879YOPE   C1B13037  13.001  -0.263   6.061  0.1483 -0.1755  0.1524
  879YOPE   C2B13038  13.356  -0.331   6.377  0.1900 -0.1861  0.1690
  879YOPE   D3B13039  13.412  -0.194   6.783  0.2620 -0.0581 -0.3191
  879YOPE   C4B13040  13.492  -0.197   7.137  0.0815 -0.2832 -0.4452
  880YOPE   NH313041   5.482  16.500   6.087  0.2054  0.0988  0.1512
  880YOPE   PO413042   5.576  16.951   6.070  0.0998  0.0503 -0.0455
  880YOPE   GL113043   5.538  16.793   6.524  0.2547  0.4926 -0.1152
  880YOPE   GL213044   5.274  16.776   6.430 -0.2068 -0.1103 -0.2101
  880YOPE   C1A13045   5.608  16.907   7.040  0.1350  0.0606  0.1169
  880YOPE   D2A13046   5.594  16.877   7.417 -0.0899 -0.2690 -0.1926
  880YOPE   C3A13047   5.338  16.786   7.660  0.0541 -0.1586 -0.0823
  880YOPE   C4A13048   5.137  16.931   8.114 -0.3673 -0.1751  0.0747
  880YOPE   C1B13049   5.137  16.688   6.823 -0.0551 -0.1685  0.0138
  880YOPE   C2B13050   5.195  16.645   7.206  0.2115  0.0815  0.1499
  880YOPE   D3B13051   4.855  16.492   7.487 -0.2403 -0.0079  0.0411
  880YOPE   C4B13052   4.682  16.494   7.835  0.0245 -0.1036  0.0176
  881YOPE   NH313053   0.187   3.185   5.891  0.0896  0.1975 -0.1459
  881YOPE   PO413054   0.386   3.641   6.054  0.4271  0.1756  0.0229
  881YOPE   GL113055   0.193   3.848   6.375 -0.1398 -0.1170  0.1319
  881YOPE   GL213056   0.378   4.067   6.394  0.1446  0.1486  0.0223
  881YOPE   C1A13057   0.085   3.937   6.748 -0.1402 -0.2603  0.1302
  881YOPE   D2A13058  -0.153   3.796   7.162 -0.0708 -0.1121  0.2265
  881YOPE   C3A13059  -0.198   3.348   7.111 -0.1352 -0.1669  0.0225
  881YOPE   C4A13060  -0.369   3.064   6.712 -0.4877  0.0114  0.0755
  881YOPE   C1B13061   0.454   4.285   6.725  0.2677  0.0462  0.0223
  881YOPE   C2B13062   0.242   4.619   6.919  0.1543 -0.0451 -0.2784
  881YOPE   D3B13063  -0.038   4.702   7.250  0.3824  0.1784 -0.2376
  881YOPE   C4B13064   0.054   4.620   7.672  0.2131  0.0027  0.0699
  882YOPE   NH313065  17.638  14.511   5.662  0.2827 -0.2426 -0.2051
  882YOPE   PO413066  18.092  14.633   5.667  0.1775  0.0300 -0.0527
  882YOPE   GL113067  17.991  14.295   5.910  0.0339  0.1284  0.0309
  882YOPE   GL213068  18.052  13.969   5.889  0.1225  0.1879  0.0098
  882YOPE   C1A13069  17.899  14.172   6.304  0.1206 -0.0045 -0.1161
  882YOPE   D2A13070  17.935  14.394   6.732  0.0564  0.1306  0.0374
  882YOPE   C3A13071  17.866  14.159   7.202 -0.0679 -0.0568 -0.1606
  882YOPE   C4A13072  17.842  14.104   7.666  0.0296 -0.1904 -0.0790
  882YOPE   C1B13073  18.196  13.606   5.996  0.0603  0.2270  0.1096
  882YOPE   C2B13074  18.168  13.273   6.379 -0.3218  0.0964 -0.2022
  882YOPE   D3B13075  18.427  13.146   6.719  0.1629 -0.0059 -0.1688
  882YOPE   C4B13076  18.800  13.032   6.774 -0.1585  0.0651  0.0373
  883YOPE   NH313077  12.061   6.576   5.829  0.1797  0.3604 -0.1572
  883YOPE   PO413078  12.194   6.160   5.706 -0.0405  0.1079  0.0591
  883YOPE   GL113079  12.266   6.291   6.181  0.2769 -0.1862  0.2281
  883YOPE   GL213080  12.144   6.591   6.338  0.1174  0.2895 -0.1271
  883YOPE   C1A13081  12.178   6.088   6.577 -0.1597 -0.0062 -0.0806
  883YOPE   D2A13082  12.043   6.232   6.988 -0.0012  0.2358 -0.0977
  883YOPE   C3A13083  12.334   6.170   7.389 -0.0966  0.0940  0.2088
  883YOPE   C4A13084  12.369   6.410   7.846 -0.1594  0.0597 -0.1409
  883YOPE   C1B13085  12.106   6.678   6.700 -0.0711  0.0700 -0.1910
  883YOPE   C2B13086  12.211   6.891   7.098 -0.1060 -0.1571  0.2180
  883YOPE   D3B13087  12.179   7.280   7.281  0.1618 -0.0475 -0.1040
  883YOPE   C4B13088  11.956   7.382   7.675  0.1078  0.1070  0.0706
  884YOPE   NH313089   5.033   6.774   6.369 -0.0895  0.1439 -0.0688
  884YOPE   PO413090   4.791   6.348   6.375 -0.1732  0.1923 -0.1513
  884YOPE   GL113091   5.008   6.550   6.829  0.1799  0.3101  0.0707
  884YOPE   GL213092   5.331   6.440   6.785 -0.2247 -0.0735 -0.1122
  884YOPE   C1A13093   4.822   6.553   7.226  0.3863  0.0269 -0.0916
  884YOPE   D2A13094   4.804   6.323   7.617  0.3672  0.1477  0.0275
  884YOPE   C3A13095   4.543   6.507   7.863 -0.0149 -0.1768  0.1058
  884YOPE   C4A13096   4.308   6.836   7.950  0.0689  0.0637  0.2806
  884YOPE   C1B13097   5.308   6.458   7.224  0.1588 -0.2819  0.0944
  884YOPE   C2B13098   5.244   6.579   7.726 -0.0289  0.2271 -0.2975
  884YOPE   D3B13099   5.276   6.878   7.987 -0.0918 -0.0841  0.0374
  884YOPE   C4B13100   5.261   6.926   8.446 -0.1420 -0.0521 -0.3923
  885YOPE   NH313101  17.162   8.388   5.720  0.1763 -0.0718 -0.0060
  885YOPE   PO413102  17.031   8.030   5.986  0.2035 -0.0624  0.1024
  885YOPE   GL113103  17.231   7.881   6.255  0.2419  0.0237 -0.0629
  885YOPE   GL213104  17.439   7.610   6.212  0.3254 -0.0371 -0.1489
  885YOPE   C1A13105  17.152   7.835   6.702  0.0579  0.0488 -0.0333
  885YOPE   D2A13106  17.081   7.491   7.003  0.1974  0.0659 -0.1609
  885YOPE   C3A13107  17.257   7.395   7.347 -0.1199  0.1965 -0.1986
  885YOPE   C4A13108  17.049   7.176   7.742 -0.4383  0.0392 -0.1583
  885YOPE   C1B13109  17.533   7.551   6.626 -0.0933  0.2029 -0.0771
  885YOPE   C2B13110  17.610   7.306   6.917  0.1346  0.2431 -0.3531
  885YOPE   D3B13111  17.725   7.308   7.403  0.1363 -0.2479  0.1162
  885YOPE   C4B13112  17.836   7.237   7.861  0.1066 -0.0986 -0.1065
  886YOPE   NH313113  13.301   4.067   5.514  0.0039 -0.0468 -0.1204
  886YOPE   PO413114  13.179   4.398   5.788 -0.0512  0.1936  0.0763
  886YOPE   GL113115  13.117   4.393   6.194  0.0799  0.0984  0.0709
  886YOPE   GL213116  13.023   4.609   6.415  0.3094  0.1329  0.0404
  886YOPE   C1A13117  13.258   4.109   6.464 -0.0093  0.0848  0.3250
  886YOPE   D2A13118  13.640   3.811   6.497 -0.0928 -0.2112  0.0318
  886YOPE   C3A13119  14.005   3.913   6.470  0.2829 -0.3254  0.0254
  886YOPE   C4A13120  14.418   4.058   6.418 -0.0301  0.0004  0.3587
  886YOPE   C1B13121  13.226   4.484   6.766  0.1757 -0.2803  0.1963
  886YOPE   C2B13122  13.172   4.216   7.101  0.0159  0.0433 -0.3879
  886YOPE   D3B13123  13.251   4.088   7.597  0.0421  0.0316 -0.2165
  886YOPE   C4B13124  13.114   3.918   7.968 -0.3122 -0.2642 -0.0530
  887YOPE   NH313125  15.250  10.708   5.275 -0.0344 -0.2430  0.0453
  887YOPE   PO413126  15.577  10.771   5.606  0.1593  0.1939  0.3702
  887YOPE   GL113127  15.566  11.062   6.122 -0.0895  0.2735  0.1099
  887YOPE   GL213128  15.500  11.425   6.079 -0.2136  0.0575 -0.1223
  887YOPE   C1A13129  15.603  10.934   6.480 -0.0572 -0.1198  0.0338
  887YOPE   D2A13130  15.730  11.112   6.862  0.0227  0.0849 -0.0636
  887YOPE   C3A13131  15.952  11.025   7.180  0.0932  0.0722 -0.0052
  887YOPE   C4A13132  16.014  11.157   7.653  0.1527 -0.0969  0.4843
  887YOPE   C1B13133  15.809  11.397   6.379 -0.0322 -0.0223 -0.1887
  887YOPE   C2B13134  15.773  11.532   6.680 -0.1372 -0.3465  0.1197
  887YOPE   D3B13135  15.640  11.908   7.012  0.1665 -0.1787 -0.2038
  887YOPE   C4B13136  15.458  12.177   7.212 -0.2243 -0.1834  0.1272
  888YOPE   NH313137  17.898   2.309   5.350  0.0693 -0.0686  0.2185
  888YOPE   PO413138  17.488   2.449   5.732 -0.1398 -0.2764 -0.3768
  888YOPE   GL113139  17.686   2.668   6.115 -0.4091 -0.1632  0.0306
  888YOPE   GL213140  17.673   3.034   6.152 -0.1029  0.4391  0.0178
  888YOPE   C1A13141  18.024   2.660   6.363  0.0152  0.0587  0.0397
  888YOPE   D2A13142  18.355   2.534   6.687 -0.0412 -0.0376  0.0968
  888YOPE   C3A13143  18.324   2.689   7.057 -0.0126 -0.0124  0.1964
  888YOPE   C4A13144  18.282   2.923   7.548  0.3303  0.0576 -0.0280
  888YOPE   C1B13145  17.671   3.061   6.519  0.2663 -0.3084 -0.0433
  888YOPE   C2B13146  17.437   2.901   6.944 -0.1576 -0.3158  0.0252
  888YOPE   D3B13147  16.965   2.894   7.226 -0.3005  0.3136 -0.0783
  888YOPE   C4B13148  16.814   3.253   7.466 -0.0157 -0.1565 -0.0787
  889YOPE   NH313149  13.795   8.354   5.515 -0.1707 -0.1155 -0.0406
  889YOPE   PO413150  13.406   8.405   5.620 -0.0940 -0.0883  0.2185
  889YOPE   GL113151  13.496   8.401   6.038  0.4359 -0.1603 -0.1556
  889YOPE   GL213152  13.256   8.195   6.178 -0.0437 -0.1798 -0.0803
  889YOPE   C1A13153  13.609   8.539   6.413  0.0888  0.2186  0.0369
  889YOPE   D2A13154  13.770   8.496   6.826  0.1031  0.2728 -0.1122
  889YOPE   C3A13155  13.943   8.169   7.120 -0.3988 -0.0657  0.2371
  889YOPE   C4A13156  14.072   8.443   7.522  0.3008 -0.2928  0.0740
  889YOPE   C1B13157  13.382   8.041   6.482 -0.1344 -0.0965 -0.0208
  889YOPE   C2B13158  13.485   8.004   6.840 -0.1734  0.1502 -0.1353
  889YOPE   D3B13159  13.336   7.610   6.962 -0.0704  0.0316 -0.1084
  889YOPE   C4B13160  13.011   7.453   7.020 -0.2249  0.1760 -0.0803
  890YOPE   NH313161  14.757  17.993   5.081  0.1148  0.1075  0.3231
  890YOPE   PO413162  14.637  18.300   5.340 -0.0533 -0.0873 -0.0960
  890YOPE   GL113163  14.687  17.953   5.609  0.1893  0.1825 -0.2576
  890YOPE   GL213164  14.955  18.149   5.762 -0.0359  0.0028 -0.1346
  890YOPE   C1A13165  14.584  17.854   6.065 -0.2655 -0.3900 -0.1336
  890YOPE   D2A13166  14.594  17.923   6.531 -0.0137  0.2453  0.1974
  890YOPE   C3A13167  14.860  17.708   6.958  0.0164  0.2508  0.0370
  890YOPE   C4A13168  14.789  17.762   7.384 -0.2007 -0.2554 -0.2502
  890YOPE   C1B13169  14.684  18.391   6.062  0.5286  0.1379  0.3650
  890YOPE   C2B13170  14.723  18.434   6.504  0.1217 -0.1502 -0.1403
  890YOPE   D3B13171  14.901  18.286   6.831  0.1740  0.0632  0.2478
  890YOPE   C4B13172  15.161  18.144   7.143 -0.0610  0.1274 -0.4190
  891YOPE   NH313173  16.874   9.615   5.812 -0.0530  0.3429  0.1305
  891YOPE   PO413174  16.848   9.321   5.546  0.3869 -0.0298  0.1181
  891YOPE   GL113175  16.902   9.157   5.987  0.2255  0.0491  0.1139
  891YOPE   GL213176  17.007   8.831   5.955  0.1853  0.1834  0.1319
  891YOPE   C1A13177  17.176   9.210   6.391  0.1309 -0.2777  0.1531
  891YOPE   D2A13178  17.490   9.345   6.679 -0.2468  0.2126 -0.0691
  891YOPE   C3A13179  17.873   9.206   6.912 -0.3952  0.1368 -0.0010
  891YOPE   C4A13180  18.190   8.953   6.841  0.0343 -0.2851  0.3414
  891YOPE   C1B13181  16.913   8.780   6.438 -0.2333 -0.2738 -0.3394
  891YOPE   C2B13182  16.598   8.716   6.577 -0.0085  0.1259  0.1345
  891YOPE   D3B13183  16.378   8.567   6.940  0.1175  0.2150  0.1459
  891YOPE   C4B13184  16.179   8.561   7.286  0.2841 -0.3720 -0.0592
  892YOPE   NH313185   9.844   6.787   6.336 -0.0791  0.2212  0.1500
  892YOPE   PO413186  10.186   6.506   6.125  0.2782 -0.1704  0.1736
  892YOPE   GL113187  10.218   6.453   6.554 -0.1414 -0.0592 -0.1796
  892YOPE   GL213188  10.099   6.722   6.820 -0.0926  0.1137 -0.0404
  892YOPE   C1A13189  10.331   6.286   6.936 -0.0004  0.2913  0.0360
  892YOPE   D2A13190  10.374   6.231   7.381 -0.2900  0.1615  0.2280
  892YOPE   C3A13191  10.426   6.523   7.774  0.2761 -0.2285  0.1297
  892YOPE   C4A13192  10.745   6.619   7.951  0.1793  0.0101 -0.1509
  892YOPE   C1B13193   9.994   6.528   7.194  0.0128  0.4515  0.1930
  892YOPE   C2B13194   9.864   6.298   7.511  0.1769  0.1431 -0.1991
  892YOPE   D3B13195   9.460   6.185   7.768 -0.2165 -0.1208  0.1281
  892YOPE   C4B13196   9.157   5.893   7.907 -0.1978  0.1153  0.2383
  893YOPE   NH313197  13.357   1.165   5.178  0.3404 -0.2931 -0.0791
  893YOPE   PO413198  13.598   0.779   5.216 -0.0690  0.0338  0.1684
  893YOPE   GL113199  13.478   0.694   5.561 -0.0752  0.1412 -0.0339
  893YOPE   GL213200  13.746   0.516   5.815 -0.2092  0.0242 -0.3133
  893YOPE   C1A13201  13.107   0.793   5.890  0.1013  0.0720  0.3111
  893YOPE   D2A13202  13.009   0.525   6.232 -0.0254  0.1499  0.0170
  893YOPE   C3A13203  13.216   0.643   6.607  0.2747  0.1515 -0.2213
  893YOPE   C4A13204  13.047   0.699   6.999  0.1464 -0.0155  0.1748
  893YOPE   C1B13205  13.757   0.485   6.261  0.1745  0.1320 -0.0059
  893YOPE   C2B13206  13.786   0.715   6.646  0.0016  0.0610  0.0538
  893YOPE   D3B13207  13.861   0.582   6.950  0.2060 -0.2314  0.1079
  893YOPE   C4B13208  14.240   0.607   7.214  0.2277 -0.1071 -0.0928
  894YOPE   NH313209   6.779  12.109   6.051 -0.2618 -0.2462  0.0520
  894YOPE   PO413210   7.134  12.191   5.917 -0.0463  0.0133  0.0354
  894YOPE   GL113211   7.200  11.947   6.243  0.0160  0.0180 -0.2512
  894YOPE   GL213212   7.137  12.168   6.480 -0.0323 -0.0776  0.0101
  894YOPE   C1A13213   7.241  11.748   6.751 -0.2475  0.2957 -0.0410
  894YOPE   D2A13214   7.221  11.776   7.176  0.0294 -0.0555 -0.2907
  894YOPE   C3A13215   7.597  11.795   7.286 -0.3269 -0.1575  0.0625
  894YOPE   C4A13216   7.945  11.831   7.567  0.0033 -0.1432 -0.0143
  894YOPE   C1B13217   7.060  12.164   6.915  0.1709  0.0153  0.1816
  894YOPE   C2B13218   7.129  12.339   7.276 -0.1351 -0.0567 -0.0905
  894YOPE   D3B13219   7.223  12.272   7.733  0.5261  0.2449 -0.0556
  894YOPE   C4B13220   7.380  12.530   8.013 -0.1184 -0.0286 -0.0856
  895YOPE   NH313221   5.097   6.028   6.621 -0.2468 -0.1552 -0.0470
  895YOPE   PO413222   5.452   5.625   6.511 -0.0695 -0.1059 -0.0442
  895YOPE   GL113223   5.570   5.387   6.853 -0.0166 -0.0845  0.0956
  895YOPE   GL213224   5.823   5.240   6.685  0.0553 -0.0442  0.3170
  895YOPE   C1A13225   5.671   5.370   7.215  0.3138  0.1947 -0.1221
  895YOPE   D2A13226   5.533   5.677   7.477  0.2335  0.2695 -0.0856
  895YOPE   C3A13227   5.559   5.730   7.782 -0.1926 -0.2146 -0.0095
  895YOPE   C4A13228   5.900   5.498   8.126  0.1953 -0.0362  0.1532
  895YOPE   C1B13229   6.271   5.337   6.712 -0.1424 -0.2361  0.2596
  895YOPE   C2B13230   6.500   5.488   7.064 -0.2864 -0.1352  0.2807
  895YOPE   D3B13231   6.637   5.510   7.546 -0.0085  0.1678 -0.0700
  895YOPE   C4B13232   6.612   5.672   7.989 -0.0591  0.0593 -0.1521
  896YOPE   NH313233   0.506  14.202   5.879 -0.0664  0.2610  0.0867
  896YOPE   PO413234   0.533  14.689   5.882 -0.2821 -0.4281 -0.0767
  896YOPE   GL113235   0.729  14.698   6.236 -0.0006 -0.2092  0.1706
  896YOPE   GL213236   0.503  14.514   6.354  0.1317 -0.0039 -0.0367
  896YOPE   C1A13237   0.995  14.618   6.561  0.0614  0.0809 -0.0034
  896YOPE   D2A13238   1.185  14.731   6.797  0.1521  0.0377 -0.0193
  896YOPE   C3A13239   1.228  15.164   6.699  0.0856  0.1482  0.1323
  896YOPE   C4A13240   1.308  15.524   6.503  0.2320 -0.1014 -0.2501
  896YOPE   C1B13241   0.598  14.482   6.790 -0.4452  0.1034 -0.0507
  896YOPE   C2B13242   0.879  14.576   7.165  0.1015  0.2660 -0.0652
  896YOPE   D3B13243   1.272  14.438   7.478  0.2234 -0.1660  0.0370
  896YOPE   C4B13244   1.475  14.116   7.676  0.0354 -0.1188 -0.1084
  897YOPE   NH313245  16.610   0.603   5.533  0.0035  0.3215 -0.0554
  897YOPE   PO413246  17.070   0.475   5.697 -0.0539 -0.1113 -0.2479
  897YOPE   GL113247  16.865   0.479   6.052 -0.1618 -0.2017 -0.2202
  897YOPE   GL213248  16.628   0.264   5.971 -0.0691 -0.1317  0.2968
  897YOPE   C1A13249  16.876   0.298   6.356 -0.0829 -0.3475 -0.2657
  897YOPE   D2A13250  17.017  -0.079   6.521 -0.1201  0.0765  0.0800
  897YOPE   C3A13251  16.852  -0.427   6.758  0.2858  0.0199  0.0479
  897YOPE   C4A13252  16.524  -0.483   6.956 -0.4578  0.0344  0.0076
  897YOPE   C1B13253  16.278   0.331   6.266  0.3710  0.0483  0.0044
  897YOPE   C2B13254  16.041   0.293   6.598 -0.0569 -0.2166 -0.0041
  897YOPE   D3B13255  16.039   0.591   6.977 -0.1759  0.0737 -0.1889
  897YOPE   C4B13256  16.297   0.957   7.288  0.2107  0.1084 -0.2600
  898YOPE   NH313257  10.693   0.337   5.170  0.1728  0.0212  0.2143
  898YOPE   PO413258  10.479   0.102   5.408  0.2447  0.1591 -0.0134
  898YOPE   GL113259  10.333   0.130   5.875  0.3768 -0.0248  0.1184
  898YOPE   GL213260  10.165   0.338   5.944 -0.3475  0.0010  0.1277
  898YOPE   C1A13261  10.240  -0.312   6.132 -0.0408  0.1882 -0.1881
  898YOPE   D2A13262  10.500  -0.539   6.420 -0.0929 -0.3314  0.0023
  898YOPE   C3A13263  10.324  -0.882   6.639  0.1005  0.0214  0.1545
  898YOPE   C4A13264  10.398  -1.077   7.041  0.2409 -0.2040  0.1212
  898YOPE   C1B13265   9.904   0.091   6.133 -0.0033 -0.3857  0.1032
  898YOPE   C2B13266   9.639   0.257   6.447 -0.0761  0.2204  0.1228
  898YOPE   D3B13267   9.728   0.263   6.860  0.0571  0.0787  0.1240
  898YOPE   C4B13268   9.772   0.261   7.338 -0.2248 -0.0222  0.2860
  899YOPE   NH313269  18.447  16.273   5.396 -0.0897  0.2258 -0.2038
  899YOPE   PO413270  18.726  16.009   5.489 -0.0037 -0.0937 -0.0646
  899YOPE   GL113271  18.693  15.766   5.870 -0.2014  0.0815  0.2082
  899YOPE   GL213272  18.673  15.354   5.862  0.2175  0.4483 -0.1432
  899YOPE   C1A13273  18.433  15.694   6.339  0.3308 -0.0598 -0.0842
  899YOPE   D2A13274  18.129  15.765   6.601  0.0642 -0.0723  0.0846
  899YOPE   C3A13275  18.009  15.478   6.940  0.2849 -0.1750 -0.1269
  899YOPE   C4A13276  17.791  15.382   7.330 -0.0542 -0.2834  0.1098
  899YOPE   C1B13277  18.322  15.273   6.154 -0.0234 -0.2430 -0.0910
  899YOPE   C2B13278  18.268  15.217   6.562  0.1931 -0.0882  0.2151
  899YOPE   D3B13279  18.457  15.181   6.968 -0.2100  0.1194  0.1357
  899YOPE   C4B13280  18.726  15.276   7.335  0.3637  0.0780  0.0242
  900YOPE   NH313281   3.946   8.462   6.092  0.0120 -0.1868  0.0433
  900YOPE   PO413282   3.977   8.925   6.001 -0.0586  0.1734  0.1636
  900YOPE   GL113283   3.999   8.838   6.421 -0.0154 -0.1986 -0.3114
  900YOPE   GL213284   4.187   9.092   6.529 -0.2051 -0.0985 -0.0928
  900YOPE   C1A13285   3.857   8.695   6.807  0.0789 -0.0433  0.0896
  900YOPE   D2A13286   4.024   8.875   7.203 -0.0698 -0.1672 -0.0180
  900YOPE   C3A13287   4.171   8.667   7.548 -0.2366  0.0725  0.0723
  900YOPE   C4A13288   4.552   8.394   7.573 -0.0109 -0.0627 -0.0133
  900YOPE   C1B13289   4.271   9.278   6.956  0.1241  0.3341  0.2103
  900YOPE   C2B13290   4.108   9.317   7.398 -0.3514 -0.7536  0.4376
  900YOPE   D3B13291   4.083   9.154   7.815  0.4089 -0.0524  0.0488
  900YOPE   C4B13292   4.016   9.204   8.270  0.2538  0.0519  0.0234
  901YOPE   NH313293   9.310   4.943   6.425  0.2123  0.0708  0.0066
  901YOPE   PO413294   9.164   4.549   6.530  0.3062  0.0845 -0.0751
  901YOPE   GL113295   9.448   4.622   6.821  0.2422  0.1037  0.1374
  901YOPE   GL213296   9.450   4.920   6.974  0.1617 -0.1014  0.1051
  901YOPE   C1A13297   9.468   4.310   7.157  0.0697 -0.0395 -0.1217
  901YOPE   D2A13298   9.242   4.088   7.427 -0.0419  0.1264 -0.3687
  901YOPE   C3A13299   9.322   4.114   7.979 -0.0711 -0.1314  0.0669
  901YOPE   C4A13300   9.360   4.083   8.368  0.2567 -0.1038  0.2351
  901YOPE   C1B13301   9.464   4.716   7.390  0.0285  0.1648 -0.1408
  901YOPE   C2B13302   9.549   4.406   7.619  0.1446 -0.0684 -0.0035
  901YOPE   D3B13303   9.705   4.549   8.068 -0.0702 -0.0684  0.0415
  901YOPE   C4B13304   9.869   4.844   8.376  0.0038 -0.0010 -0.1006
  902YOPE   NH313305   0.868   5.003   6.272  0.2015  0.4895  0.2041
  902YOPE   PO413306   1.215   4.821   6.282  0.1968  0.1148  0.1819
  902YOPE   GL113307   1.340   4.894   6.650 -0.1933 -0.0294 -0.3643
  902YOPE   GL213308   1.668   5.078   6.626  0.0709  0.0542 -0.1479
  902YOPE   C1A13309   1.318   4.938   7.086 -0.0434 -0.4125  0.1777
  902YOPE   D2A13310   1.279   5.211   7.389  0.0461  0.5182  0.1702
  902YOPE   C3A13311   1.545   5.137   7.763  0.2205 -0.0738  0.1751
  902YOPE   C4A13312   1.820   5.171   8.170  0.1021 -0.4664 -0.0974
  902YOPE   C1B13313   1.422   5.416   6.936  0.0276  0.2520 -0.2851
  902YOPE   C2B13314   1.404   5.690   7.305  0.4055 -0.0371 -0.5601
  902YOPE   D3B13315   1.298   5.642   7.644 -0.1512  0.0137 -0.0854
  902YOPE   C4B13316   1.035   6.024   7.744 -0.2083  0.2278  0.1133
  903YOPE   NH313317   1.743   9.159   5.877  0.2599 -0.2263  0.0498
  903YOPE   PO413318   1.675   8.791   6.218 -0.2952  0.2912  0.1887
  903YOPE   GL113319   1.504   8.735   6.540  0.3281  0.2213 -0.0328
  903YOPE   GL213320   1.184   9.002   6.534 -0.4213  0.0565  0.1059
  903YOPE   C1A13321   1.369   8.718   6.875 -0.0517 -0.1127  0.2449
  903YOPE   D2A13322   1.161   8.810   7.253 -0.0206  0.0887 -0.1751
  903YOPE   C3A13323   1.336   8.782   7.650 -0.0804 -0.2620 -0.1807
  903YOPE   C4A13324   1.157   8.627   7.999 -0.3485 -0.1301  0.3990
  903YOPE   C1B13325   1.042   9.189   6.921 -0.0908  0.0031 -0.3441
  903YOPE   C2B13326   0.981   9.552   7.068  0.1922  0.0892 -0.0514
  903YOPE   D3B13327   0.728   9.673   7.300 -0.3166 -0.1248  0.0953
  903YOPE   C4B13328   0.655   9.911   7.670  0.2718  0.2916 -0.1192
  904YOPE   NH313329  17.958  15.428   5.463 -0.1532  0.0111  0.2626
  904YOPE   PO413330  17.748  15.672   5.467 -0.3316  0.1931 -0.0321
  904YOPE   GL113331  17.600  15.389   5.782  0.0393  0.1050  0.0939
  904YOPE   GL213332  17.607  14.950   5.942  0.1236 -0.0372  0.4783
  904YOPE   C1A13333  17.450  15.348   6.198  0.2490  0.1739  0.2298
  904YOPE   D2A13334  17.789  15.058   6.344 -0.2102  0.1509 -0.4791
  904YOPE   C3A13335  17.947  14.929   6.810  0.4131 -0.2071 -0.1076
  904YOPE   C4A13336  18.050  14.940   7.193 -0.1137  0.1144  0.0301
  904YOPE   C1B13337  17.286  14.793   6.095 -0.0911 -0.3399  0.1854
  904YOPE   C2B13338  16.912  14.863   6.326 -0.3528  0.1903  0.1606
  904YOPE   D3B13339  16.637  15.076   6.577 -0.0450  0.1282  0.0644
  904YOPE   C4B13340  16.339  15.076   6.972  0.0865  0.1617 -0.3181
  905YOPE   NH313341   3.681   3.721   6.541 -0.0416 -0.2146 -0.0843
  905YOPE   PO413342   3.614   3.297   6.343  0.2228  0.1414  0.0985
  905YOPE   GL113343   3.477   3.229   6.751 -0.1315 -0.1726  0.2485
  905YOPE   GL213344   3.579   3.523   6.988 -0.0441 -0.1578  0.0131
  905YOPE   C1A13345   3.457   2.949   7.018 -0.0726 -0.1167 -0.2803
  905YOPE   D2A13346   3.689   2.729   7.345 -0.2769  0.3899  0.2619
  905YOPE   C3A13347   3.493   2.582   7.666  0.1592  0.2538  0.2108
  905YOPE   C4A13348   3.222   2.444   7.908  0.1778 -0.0111 -0.2224
  905YOPE   C1B13349   3.470   3.282   7.374  0.0588 -0.0656  0.1182
  905YOPE   C2B13350   3.237   3.079   7.717  0.0123  0.2159 -0.0701
  905YOPE   D3B13351   2.990   2.886   7.969  0.1619 -0.2172 -0.2269
  905YOPE   C4B13352   3.051   2.542   8.361 -0.3475  0.0070 -0.3037
  906YOPE   NH313353   8.350   2.207   5.804  0.0389  0.4664 -0.0300
  906YOPE   PO413354   8.485   2.677   5.825  0.0330  0.0935 -0.0370
  906YOPE   GL113355   8.659   2.446   6.157  0.1114  0.1916  0.0514
  906YOPE   GL213356   8.582   2.326   6.319 -0.1062  0.1577 -0.0529
  906YOPE   C1A13357   9.029   2.498   6.371  0.0383 -0.1084 -0.0677
  906YOPE   D2A13358   9.355   2.829   6.536  0.2066  0.0021  0.0732
  906YOPE   C3A13359   9.314   3.005   6.951  0.1141  0.2753 -0.0020
  906YOPE   C4A13360   9.374   3.121   7.325 -0.4018 -0.1234 -0.2115
  906YOPE   C1B13361   8.796   1.966   6.673 -0.0802 -0.1456  0.2547
  906YOPE   C2B13362   8.680   1.779   7.127  0.3582 -0.1044 -0.0686
  906YOPE   D3B13363   8.656   1.663   7.501 -0.3375  0.0347  0.1133
  906YOPE   C4B13364   9.046   1.524   7.753 -0.0598  0.0776 -0.0396
  907YOPE   NH313365  12.624  11.756   5.398  0.0571  0.5293 -0.3417
  907YOPE   PO413366  12.185  11.770   5.541 -0.0467  0.2517 -0.0417
  907YOPE   GL113367  12.232  11.663   5.979 -0.0905  0.3350 -0.1885
  907YOPE   GL213368  11.980  11.578   6.141 -0.0061 -0.0826 -0.0116
  907YOPE   C1A13369  12.454  11.809   6.434 -0.3484 -0.0867  0.2933
  907YOPE   D2A13370  12.528  11.962   6.868 -0.0504 -0.1026 -0.2595
  907YOPE   C3A13371  12.260  12.240   7.131 -0.0222 -0.1167 -0.4432
  907YOPE   C4A13372  12.116  12.594   7.338 -0.0175  0.2577 -0.2961
  907YOPE   C1B13373  12.166  11.408   6.436 -0.0697 -0.0997  0.4424
  907YOPE   C2B13374  12.498  11.449   6.777 -0.1023 -0.2166 -0.0094
  907YOPE   D3B13375  12.517  11.549   7.174  0.0213  0.1500 -0.2046
  907YOPE   C4B13376  12.411  11.858   7.469  0.0537 -0.0448  0.2851
  908YOPE   NH313377  12.008  11.336   5.652 -0.0493  0.3568  0.1177
  908YOPE   PO413378  11.994  10.948   5.518 -0.0350  0.0894  0.0710
  908YOPE   GL113379  12.141  10.672   5.880  0.2351 -0.0314  0.1011
  908YOPE   GL213380  12.076  10.911   6.077 -0.0460  0.0110  0.0587
  908YOPE   C1A13381  12.528  10.718   6.230  0.2667  0.1143 -0.1826
  908YOPE   D2A13382  12.627  10.622   6.554 -0.1733  0.0176  0.1625
  908YOPE   C3A13383  12.380  10.525   6.884  0.1592 -0.2408 -0.1874
  908YOPE   C4A13384  12.148  10.722   7.066  0.0088  0.0725  0.0496
  908YOPE   C1B13385  11.732  10.751   6.243  0.2083 -0.0961 -0.1440
  908YOPE   C2B13386  11.733  10.655   6.732  0.0559  0.0006 -0.0890
  908YOPE   D3B13387  11.656  10.947   7.099  0.0821  0.0041 -0.2332
  908YOPE   C4B13388  11.441  11.190   7.394  0.1385  0.0340  0.2205
  909YOPE   NH313389  14.082  14.566   5.050 -0.1721 -0.0316  0.3413
  909YOPE   PO413390  14.493  14.400   4.901  0.1647  0.1764 -0.2511
  909YOPE   GL113391  14.539  14.445   5.261 -0.2433  0.2672 -0.0049
  909YOPE   GL213392  14.430  14.237   5.608  0.0202 -0.4129 -0.0139
  909YOPE   C1A13393  14.638  14.771   5.539  0.0164  0.3078  0.0296
  909YOPE   D2A13394  14.609  14.938   5.946 -0.2785 -0.3468  0.3603
  909YOPE   C3A13395  14.315  15.289   5.979  0.4447 -0.0287 -0.1088
  909YOPE   C4A13396  14.114  15.715   6.138 -0.3051  0.1907  0.0274
  909YOPE   C1B13397  14.415  13.807   5.822 -0.1768  0.0298  0.0782
  909YOPE   C2B13398  14.259  13.695   6.198 -0.0692  0.1959 -0.2482
  909YOPE   D3B13399  14.280  13.989   6.606 -0.0745  0.1241 -0.1600
  909YOPE   C4B13400  14.579  14.245   6.705 -0.1406 -0.0931 -0.0645
  910YOPE   NH313401   5.639  10.379   6.061  0.4032  0.1589 -0.1251
  910YOPE   PO413402   5.312  10.673   6.154  0.1107 -0.1021  0.3057
  910YOPE   GL113403   5.474  10.854   6.482 -0.2123  0.0412 -0.1081
  910YOPE   GL213404   5.842  10.776   6.501 -0.0390 -0.2037 -0.1040
  910YOPE   C1A13405   5.559  11.049   6.910  0.1669 -0.0377 -0.0801
  910YOPE   D2A13406   5.383  11.436   7.071  0.0490 -0.2869  0.1351
  910YOPE   C3A13407   5.512  11.569   7.374  0.0860 -0.0550 -0.2484
  910YOPE   C4A13408   5.944  11.671   7.409 -0.1321 -0.3225 -0.2604
  910YOPE   C1B13409   5.938  10.774   6.998 -0.2469 -0.0481 -0.1025
  910YOPE   C2B13410   6.178  10.717   7.301  0.1267 -0.2296  0.0458
  910YOPE   D3B13411   6.360  10.471   7.527 -0.3129  0.0070  0.1712
  910YOPE   C4B13412   6.832  10.380   7.425  0.0715  0.1265 -0.1590
  911YOPE   NH313413  18.482   8.037   5.516 -0.1624  0.3014 -0.3833
  911YOPE   PO413414  18.764   8.377   5.603  0.2772  0.0042  0.1126
  911YOPE   GL113415  18.459   8.171   6.048 -0.0714  0.0167  0.0955
  911YOPE   GL213416  18.467   8.396   6.318  0.1795  0.0903 -0.2643
  911YOPE   C1A13417  18.307   7.962   6.446 -0.0185 -0.1409 -0.0495
  911YOPE   D2A13418  18.501   7.584   6.666  0.1483  0.3417 -0.0521
  911YOPE   C3A13419  18.848   7.556   6.951 -0.2540  0.0484  0.1453
  911YOPE   C4A13420  18.828   7.419   7.419  0.1655  0.0077 -0.0703
  911YOPE   C1B13421  18.402   8.448   6.804  0.4317  0.2081  0.2875
  911YOPE   C2B13422  18.429   8.299   7.263 -0.0784 -0.0358  0.1681
  911YOPE   D3B13423  18.664   7.896   7.517  0.1702  0.2635  0.0815
  911YOPE   C4B13424  18.899   7.590   7.908 -0.2493  0.0315 -0.2692
  912YOPE   NH313425   5.743   0.034   6.147  0.1613 -0.2211 -0.0154
  912YOPE   PO413426   5.321  -0.034   6.279 -0.1818 -0.0710  0.0561
  912YOPE   GL113427   5.075  -0.015   6.669  0.0571 -0.0350 -0.3270
  912YOPE   GL213428   4.808  -0.069   6.653  0.1292 -0.2615  0.0560
  912YOPE   C1A13429   5.068   0.245   6.997 -0.0861  0.0428 -0.2398
  912YOPE   D2A13430   5.241   0.444   7.316  0.1681 -0.2169  0.0506
  912YOPE   C3A13431   5.542   0.505   7.770  0.3340 -0.2147  0.0592
  912YOPE   C4A13432   5.723   0.378   8.150 -0.0817  0.1033 -0.1740
  912YOPE   C1B13433   4.636  -0.182   7.031 -0.0744 -0.1129 -0.0689
  912YOPE   C2B13434   4.577  -0.725   7.034  0.0065 -0.0585 -0.0303
  912YOPE   D3B13435   4.645  -1.052   7.274  0.2367 -0.0424 -0.3117
  912YOPE   C4B13436   4.625  -1.464   7.203 -0.0025  0.3382 -0.0582
  913YOPE   NH313437  10.124   4.428   6.238 -0.2078 -0.1109 -0.2948
  913YOPE   PO413438  10.389   4.829   6.030  0.2712  0.1756 -0.2116
  913YOPE   GL113439  10.593   4.827   6.372 -0.1841  0.0017  0.0142
  913YOPE   GL213440  10.326   4.727   6.637  0.0706  0.0046 -0.1309
  913YOPE   C1A13441  10.638   5.188   6.767 -0.0105  0.1491  0.3299
  913YOPE   D2A13442  10.785   5.598   6.779 -0.3175 -0.0897 -0.2617
  913YOPE   C3A13443  11.004   5.601   7.202 -0.2070  0.1149 -0.1279
  913YOPE   C4A13444  11.244   5.763   7.557 -0.0909 -0.2378  0.1975
  913YOPE   C1B13445  10.778   4.671   6.780 -0.0355 -0.1149 -0.0159
  913YOPE   C2B13446  10.903   4.577   7.217 -0.2608 -0.6151 -0.1231
  913YOPE   D3B13447  11.094   4.296   7.511  0.0287  0.2441 -0.0238
  913YOPE   C4B13448  11.075   3.909   7.598  0.0806 -0.0789 -0.2865
  914YOPE   NH313449   6.438   4.683   6.024  0.0652 -0.2643 -0.3688
  914YOPE   PO413450   6.142   4.495   6.255 -0.0955 -0.0228 -0.2861
  914YOPE   GL113451   6.237   4.551   6.644  0.1113  0.0684 -0.0462
  914YOPE   GL213452   6.517   4.565   6.798 -0.2027 -0.1480  0.0367
  914YOPE   C1A13453   6.152   4.870   6.916  0.1235 -0.2447  0.0206
  914YOPE   D2A13454   6.151   5.187   7.256 -0.2790  0.0994  0.3158
  914YOPE   C3A13455   5.868   5.193   7.666  0.3391 -0.0719 -0.2172
  914YOPE   C4A13456   5.453   5.239   7.762  0.1771  0.2021  0.2313
  914YOPE   C1B13457   6.463   4.550   7.121  0.0656 -0.0794 -0.1668
  914YOPE   C2B13458   6.459   4.355   7.437  0.3557 -0.2508 -0.0731
  914YOPE   D3B13459   6.579   4.452   7.838 -0.3474  0.1326 -0.0099
  914YOPE   C4B13460   6.440   4.787   8.109 -0.2117  0.0067  0.0056
  915YOPE   NH313461   6.018   6.900   6.097  0.0502  0.0166 -0.0527
  915YOPE   PO413462   5.703   7.256   6.079 -0.0712  0.0043  0.0875
  915YOPE   GL113463   5.900   7.186   6.449  0.0325 -0.2550 -0.3006
  915YOPE   GL213464   5.628   7.331   6.618  0.1711 -0.2329  0.1572
  915YOPE   C1A13465   6.169   7.139   6.730  0.1623 -0.2242 -0.0506
  915YOPE   D2A13466   6.573   7.125   6.902  0.0559  0.0477 -0.1466
  915YOPE   C3A13467   6.543   7.166   7.363 -0.0943  0.0916 -0.0433
  915YOPE   C4A13468   6.616   6.921   7.701 -0.1255 -0.0983 -0.2123
  915YOPE   C1B13469   5.340   7.472   6.936  0.0461  0.2859  0.3568
  915YOPE   C2B13470   5.492   7.507   7.355 -0.0094 -0.2018 -0.2169
  915YOPE   D3B13471   5.838   7.546   7.780  0.0803  0.0248  0.1150
  915YOPE   C4B13472   6.046   7.776   7.973  0.2792  0.0327 -0.1965
  916YOPE   NH313473   2.578   8.642   5.957 -0.0278 -0.1462 -0.0491
  916YOPE   PO413474   2.879   8.430   6.097 -0.0321  0.1174  0.4799
  916YOPE   GL113475   3.130   8.567   6.490 -0.0356 -0.1737 -0.0689
  916YOPE   GL213476   3.161   8.932   6.550  0.1609 -0.0555 -0.2468
  916YOPE   C1A13477   3.196   8.356   6.796 -0.0696  0.2578  0.2337
  916YOPE   D2A13478   3.080   8.387   7.294 -0.0844  0.1121 -0.2945
  916YOPE   C3A13479   3.192   8.420   7.733  0.1707 -0.0268  0.4164
  916YOPE   C4A13480   3.471   8.556   8.032 -0.0313  0.2400  0.0455
  916YOPE   C1B13481   3.090   9.204   6.981  0.2354  0.1544 -0.1257
  916YOPE   C2B13482   3.144   9.472   7.452 -0.1105  0.0914 -0.1473
  916YOPE   D3B13483   3.345   9.364   7.811  0.1936  0.1187  0.1075
  916YOPE   C4B13484   3.617   9.078   8.026  0.2949  0.3569 -0.0620
  917YOPE   NH313485   8.927  17.363   6.002  0.1121  0.1970  0.1121
  917YOPE   PO413486   8.682  17.815   6.050 -0.0210 -0.0163 -0.1077
  917YOPE   GL113487   8.870  17.717   6.442 -0.2196 -0.2375 -0.1296
  917YOPE   GL213488   9.001  17.398   6.527  0.0527  0.0711  0.2845
  917YOPE   C1A13489   8.857  17.887   6.879  0.3767  0.1597  0.2520
  917YOPE   D2A13490   8.976  18.080   7.182  0.1881 -0.2257  0.1439
  917YOPE   C3A13491   9.300  17.993   7.426  0.0439  0.1345  0.3956
  917YOPE   C4A13492   9.524  18.021   7.770  0.1505 -0.0124  0.2171
  917YOPE   C1B13493   9.155  17.395   6.947  0.3958  0.1980 -0.1003
  917YOPE   C2B13494   9.354  17.570   7.267 -0.5058  0.0144  0.0307
  917YOPE   D3B13495   9.696  17.583   7.593 -0.0818 -0.0207 -0.1484
  917YOPE   C4B13496   9.594  17.577   7.986  0.0736  0.0149  0.0585
  918YOPE   NH313497   1.346   9.856   5.886 -0.2523  0.1178 -0.2502
  918YOPE   PO413498   0.865   9.780   5.816 -0.1225 -0.1037  0.0983
  918YOPE   GL113499   0.946  10.103   6.102 -0.2909  0.2634  0.1554
  918YOPE   GL213500   1.213  10.322   6.107  0.0270  0.1881  0.2676
  918YOPE   C1A13501   0.603  10.152   6.469 -0.1444  0.3507  0.0865
  918YOPE   D2A13502   0.426  10.137   6.917 -0.2145  0.0751  0.1443
  918YOPE   C3A13503   0.279   9.936   7.187 -0.0330  0.1393 -0.1523
  918YOPE   C4A13504   0.130   9.932   7.615  0.2771  0.2654  0.0519
  918YOPE   C1B13505   1.190  10.373   6.469 -0.0974  0.0180 -0.1890
  918YOPE   C2B13506   1.260  10.677   6.825  0.1172 -0.1337 -0.3317
  918YOPE   D3B13507   1.522  10.733   7.156  0.3135 -0.0015  0.2250
  918YOPE   C4B13508   1.897  10.862   7.454 -0.1177 -0.1846  0.1429
  919YOPE   NH313509   4.313   1.385   6.273 -0.3714  0.4056 -0.1048
  919YOPE   PO413510   4.072   1.020   6.324  0.0197 -0.1525 -0.4891
  919YOPE   GL113511   4.104   1.228   6.688 -0.4139 -0.1433  0.0554
  919YOPE   GL213512   3.941   1.445   6.713 -0.1029  0.2136  0.2395
  919YOPE   C1A13513   3.959   1.031   7.017 -0.2555  0.0004  0.0019
  919YOPE   D2A13514   3.708   0.791   7.275 -0.1766 -0.1943  0.2439
  919YOPE   C3A13515   3.451   0.776   7.637 -0.2203  0.1682  0.0699
  919YOPE   C4A13516   3.183   0.998   7.975 -0.4873 -0.0606 -0.2116
  919YOPE   C1B13517   3.896   1.730   7.076 -0.1041  0.1650 -0.1304
  919YOPE   C2B13518   3.808   1.792   7.438  0.0092  0.2237 -0.2528
  919YOPE   D3B13519   3.740   1.738   7.828  0.1892 -0.0637  0.0742
  919YOPE   C4B13520   3.515   1.612   8.126  0.4729 -0.1258 -0.1165
  920YOPE   NH313521  18.420  16.600   4.963 -0.2519 -0.2398 -0.0416
  920YOPE   PO413522  18.343  16.836   5.376 -0.1516 -0.1130 -0.1341
  920YOPE   GL113523  18.274  16.645   5.735 -0.6224 -0.1295 -0.1941
  920YOPE   GL213524  18.071  16.300   5.715  0.2071  0.1008  0.0441
  920YOPE   C1A13525  18.094  16.618   6.194  0.2033  0.1638  0.0329
  920YOPE   D2A13526  18.109  16.644   6.741  0.0200 -0.1526 -0.2513
  920YOPE   C3A13527  17.717  16.531   7.163 -0.0751 -0.2814 -0.0224
  920YOPE   C4A13528  17.456  16.413   7.428 -0.1224 -0.1810  0.4795
  920YOPE   C1B13529  17.720  16.555   5.838 -0.2073  0.3545 -0.0393
  920YOPE   C2B13530  17.497  16.646   6.197 -0.1777  0.0649  0.3737
  920YOPE   D3B13531  17.155  16.693   6.293  0.1224  0.1490 -0.3190
  920YOPE   C4B13532  17.182  17.080   6.212  0.2329  0.0265  0.2187
  921YOPE   NH313533  10.159  14.912   5.851 -0.0128  0.1489  0.0686
  921YOPE   PO413534  10.318  15.326   5.902 -0.0681  0.1397  0.0624
  921YOPE   GL113535  10.477  15.598   6.235 -0.1094 -0.0224 -0.0247
  921YOPE   GL213536  10.572  15.934   6.190 -0.0907 -0.0119  0.0397
  921YOPE   C1A13537  10.608  15.612   6.564  0.0382  0.5941  0.2938
  921YOPE   D2A13538  10.533  15.457   6.964  0.1775  0.1710  0.4508
  921YOPE   C3A13539  10.468  15.899   7.255  0.0008 -0.1272  0.1341
  921YOPE   C4A13540  10.420  16.131   7.565  0.2229  0.0334  0.0424
  921YOPE   C1B13541  10.816  16.208   6.446  0.2130  0.0832  0.2039
  921YOPE   C2B13542  10.748  16.475   6.866  0.0243 -0.1487 -0.0442
  921YOPE   D3B13543  10.679  16.584   7.360 -0.1770 -0.1153  0.1044
  921YOPE   C4B13544  10.425  16.730   7.696 -0.1890  0.0421  0.1276
  922YOPE   NH313545  17.024  13.157   5.060 -0.2501 -0.1006  0.0450
  922YOPE   PO413546  17.280  13.514   5.405  0.1105  0.2577  0.2890
  922YOPE   GL113547  17.324  13.635   5.816  0.0299 -0.0988  0.0122
  922YOPE   GL213548  17.547  13.633   5.979 -0.2482 -0.2059 -0.0757
  922YOPE   C1A13549  17.017  13.822   6.082 -0.1022 -0.3029 -0.1301
  922YOPE   D2A13550  16.828  13.915   6.451 -0.0786  0.1948 -0.0882
  922YOPE   C3A13551  16.683  13.765   6.761  0.1885  0.0894 -0.1052
  922YOPE   C4A13552  16.286  13.622   7.005  0.3905  0.2426 -0.0986
  922YOPE   C1B13553  17.750  13.641   6.294  0.4097 -0.0166 -0.1431
  922YOPE   C2B13554  17.821  13.797   6.650 -0.4525  0.0397  0.1210
  922YOPE   D3B13555  17.549  13.722   7.072 -0.1899  0.0297  0.0646
  922YOPE   C4B13556  17.431  14.057   7.361 -0.0919 -0.1806  0.2508
  923YOPE   NH313557   8.975  15.735   6.164  0.2935  0.1167  0.1328
  923YOPE   PO413558   8.620  15.899   5.991  0.2414 -0.1569 -0.1864
  923YOPE   GL113559   8.479  15.852   6.365  0.0548  0.1848 -0.1297
  923YOPE   GL213560   8.792  15.800   6.606 -0.1069  0.0410  0.0370
  923YOPE   C1A13561   8.208  15.762   6.779 -0.1415  0.1338  0.1919
  923YOPE   D2A13562   8.009  15.741   7.108 -0.0289 -0.1410  0.0551
  923YOPE   C3A13563   8.245  15.936   7.451  0.1654  0.2839 -0.0029
  923YOPE   C4A13564   8.700  15.960   7.582 -0.0119 -0.0049 -0.0401
  923YOPE   C1B13565   8.910  15.828   7.090 -0.0314 -0.2836  0.3441
  923YOPE   C2B13566   9.119  15.716   7.527 -0.0163 -0.1998  0.0291
  923YOPE   D3B13567   9.339  15.886   7.970 -0.0290  0.1167 -0.0793
  923YOPE   C4B13568   9.744  15.971   7.973 -0.1013 -0.0158  0.0899
  924YOPE   NH313569   2.356  13.234   5.901  0.0934 -0.0689 -0.2200
  924YOPE   PO413570   2.534  13.675   5.967  0.0958  0.0459  0.1690
  924YOPE   GL113571   2.611  13.412   6.280 -0.0231  0.2157 -0.1529
  924YOPE   GL213572   2.759  13.142   6.285 -0.0549 -0.2004 -0.2950
  924YOPE   C1A13573   2.579  13.475   6.768 -0.1126  0.2284  0.1594
  924YOPE   D2A13574   2.251  13.742   7.028 -0.0521 -0.2396  0.0374
  924YOPE   C3A13575   2.034  13.634   7.395 -0.0034  0.1443  0.1390
  924YOPE   C4A13576   2.121  13.397   7.688  0.2987 -0.0194 -0.0901
  924YOPE   C1B13577   2.659  12.980   6.612  0.2469 -0.1480 -0.0312
  924YOPE   C2B13578   2.343  12.772   6.954 -0.1330  0.2616 -0.0529
  924YOPE   D3B13579   2.168  12.714   7.284  0.2063  0.0548 -0.2620
  924YOPE   C4B13580   1.932  12.752   7.491  0.3761 -0.3066  0.0417
  925YOPE   NH313581   8.643  13.896   5.572 -0.0442  0.3541  0.1508
  925YOPE   PO413582   8.880  14.281   5.578 -0.1549  0.0242  0.0128
  925YOPE   GL113583   8.882  14.257   6.045  0.1723  0.1142  0.2948
  925YOPE   GL213584   9.214  14.308   6.282  0.0063  0.1128  0.1761
  925YOPE   C1A13585   8.907  13.966   6.404  0.3336 -0.2441 -0.1568
  925YOPE   D2A13586   9.267  14.112   6.728  0.0345  0.1256 -0.0798
  925YOPE   C3A13587   9.182  14.070   7.177  0.1567  0.1516 -0.0353
  925YOPE   C4A13588   9.350  14.123   7.607  0.1887  0.1745  0.0250
  925YOPE   C1B13589   9.536  14.444   6.386  0.1637  0.0519 -0.2280
  925YOPE   C2B13590   9.829  14.506   6.796  0.2012  0.2693 -0.2130
  925YOPE   D3B13591  10.072  14.486   7.075  0.1106  0.1625 -0.0419
  925YOPE   C4B13592  10.342  14.346   7.223 -0.0843 -0.1770  0.0434
  926YOPE   NH313593  18.259  10.360   5.535 -0.1289 -0.0550 -0.1262
  926YOPE   PO413594  18.374  10.762   5.645  0.1416 -0.3165 -0.2835
  926YOPE   GL113595  18.356  10.836   6.113  0.1288 -0.0908  0.2229
  926YOPE   GL213596  18.336  11.235   6.155 -0.0704  0.3602  0.2967
  926YOPE   C1A13597  18.404  10.789   6.615  0.2042 -0.3085  0.2047
  926YOPE   D2A13598  18.386  10.842   7.077  0.0676  0.1264  0.1823
  926YOPE   C3A13599  18.776  11.132   7.054 -0.2531 -0.0341 -0.2060
  926YOPE   C4A13600  18.769  11.652   7.167  0.0344 -0.0346 -0.0394
  926YOPE   C1B13601  18.014  11.228   6.288  0.1012  0.0233  0.3171
  926YOPE   C2B13602  17.658  11.482   6.532  0.3056  0.0028 -0.1607
  926YOPE   D3B13603  17.160  11.471   6.745  0.3527 -0.1455  0.0690
  926YOPE   C4B13604  16.808  11.503   7.153  0.0871  0.0669 -0.2046
  927YOPE   NH313605  13.056  12.994   5.472  0.3144 -0.0596 -0.2780
  927YOPE   PO413606  12.701  13.282   5.509  0.2157 -0.0170  0.0118
  927YOPE   GL113607  12.769  12.951   5.956 -0.0526  0.3128 -0.2547
  927YOPE   GL213608  12.947  12.789   5.900  0.1320  0.0957 -0.1158
  927YOPE   C1A13609  12.736  12.737   6.337  0.2013 -0.2678 -0.1740
  927YOPE   D2A13610  13.055  12.863   6.629 -0.0551 -0.1686 -0.1063
  927YOPE   C3A13611  12.903  13.066   6.935  0.0984 -0.6082 -0.0268
  927YOPE   C4A13612  12.765  13.445   6.913  0.3061  0.3884 -0.2369
  927YOPE   C1B13613  13.144  12.453   6.242 -0.0833  0.0999 -0.2405
  927YOPE   C2B13614  13.374  12.030   6.351 -0.2070  0.2279  0.1961
  927YOPE   D3B13615  13.450  11.770   6.698  0.0801  0.2338  0.0005
  927YOPE   C4B13616  13.726  11.710   7.051  0.1743 -0.2982 -0.1613
  928YOPE   NH313617  16.411   7.131   5.779  0.0229 -0.2579 -0.1006
  928YOPE   PO413618  16.754   7.088   5.994 -0.0367 -0.0115 -0.1258
  928YOPE   GL113619  16.688   7.284   6.450 -0.0648 -0.0492 -0.1265
  928YOPE   GL213620  16.973   7.472   6.314  0.2901 -0.2546 -0.2035
  928YOPE   C1A13621  16.708   7.137   6.872  0.0386  0.1103 -0.1598
  928YOPE   D2A13622  16.759   7.158   7.257 -0.0522 -0.1193 -0.0885
  928YOPE   C3A13623  16.527   7.283   7.510  0.0205  0.2660  0.0325
  928YOPE   C4A13624  16.378   7.162   7.942  0.0007 -0.0586 -0.2832
  928YOPE   C1B13625  17.158   7.219   6.579  0.0088 -0.0015  0.0248
  928YOPE   C2B13626  17.197   7.021   7.006 -0.1549 -0.1241  0.0042
  928YOPE   D3B13627  17.023   6.754   7.421 -0.0210 -0.0131  0.0694
  928YOPE   C4B13628  16.698   6.878   7.750  0.0569  0.1376  0.3492
  929YOPE   NH313629  10.346   2.376   5.894 -0.0734 -0.0074  0.1124
  929YOPE   PO413630  10.789   2.413   5.921 -0.1580  0.2687 -0.1751
  929YOPE   GL113631  10.812   2.134   6.349 -0.1330 -0.2096  0.1304
  929YOPE   GL213632  10.601   2.012   6.297 -0.2959  0.0816  0.0120
  929YOPE   C1A13633  10.895   2.005   6.804  0.0512 -0.0742 -0.1932
  929YOPE   D2A13634  11.062   1.913   7.226  0.2154  0.0195  0.0149
  929YOPE   C3A13635  11.385   2.287   7.347  0.1007  0.2377 -0.0348
  929YOPE   C4A13636  11.292   2.535   7.714 -0.0740  0.2769  0.0189
  929YOPE   C1B13637  10.723   1.574   6.461  0.2262  0.0364 -0.0877
  929YOPE   C2B13638  10.669   1.334   6.665  0.1291 -0.1515 -0.3915
  929YOPE   D3B13639  10.219   1.195   6.697  0.2597 -0.2131  0.1699
  929YOPE   C4B13640   9.834   1.182   6.883 -0.0484 -0.0637  0.0176
  930YOPE   NH313641   8.433  13.075   5.839 -0.0399  0.2553  0.0564
  930YOPE   PO413642   8.878  13.038   6.136  0.0124 -0.2149  0.1677
  930YOPE   GL113643   8.811  13.279   6.418  0.3013  0.1370  0.1109
  930YOPE   GL213644   8.468  13.369   6.227  0.0099 -0.0693  0.1656
  930YOPE   C1A13645   8.962  13.536   6.695 -0.1775 -0.0734  0.0308
  930YOPE   D2A13646   9.148  13.478   7.136  0.2587  0.3707 -0.2003
  930YOPE   C3A13647   9.315  13.658   7.521  0.0579  0.0528  0.3399
  930YOPE   C4A13648   9.450  13.534   7.888 -0.0757 -0.1240  0.2155
  930YOPE   C1B13649   8.427  13.380   6.689 -0.2260  0.1902  0.2119
  930YOPE   C2B13650   8.604  13.296   6.976 -0.0174  0.0333  0.0058
  930YOPE   D3B13651   8.560  13.227   7.317 -0.3253  0.0438 -0.0421
  930YOPE   C4B13652   8.524  13.203   7.674  0.1100 -0.3147  0.1680
  931YOPE   NH313653   7.114   9.844   6.102  0.0336  0.1570 -0.3348
  931YOPE   PO413654   6.831   9.605   6.358  0.0240  0.1046  0.2201
  931YOPE   GL113655   6.972   9.839   6.704  0.2039  0.0614 -0.0359
  931YOPE   GL213656   7.182  10.032   6.588 -0.2230  0.0182 -0.0167
  931YOPE   C1A13657   7.026   9.999   7.068 -0.2080 -0.1153 -0.0100
  931YOPE   D2A13658   7.322  10.165   7.395  0.0117  0.0645 -0.0058
  931YOPE   C3A13659   7.571  10.025   7.592 -0.3218  0.0148  0.2239
  931YOPE   C4A13660   7.766   9.990   7.962 -0.2563  0.1491  0.2975
  931YOPE   C1B13661   7.419  10.284   6.824  0.0580 -0.3145 -0.1516
  931YOPE   C2B13662   7.793  10.434   7.046  0.0078  0.0470  0.0283
  931YOPE   D3B13663   8.119  10.676   7.429 -0.1783 -0.2769 -0.4077
  931YOPE   C4B13664   8.587  10.603   7.379  0.1368  0.1500  0.3363
  932POPC   NC313665  14.714  10.542   5.273  0.0239 -0.0798 -0.0205
  932POPC   PO413666  15.008  10.350   5.549  0.1745  0.1654  0.4320
  932POPC   GL113667  15.075  10.574   5.910  0.3994  0.3558  0.3557
  932POPC   GL213668  14.901  10.374   6.066  0.1271 -0.1583  0.0614
  932POPC   C1A13669  15.163  10.760   6.323 -0.0327  0.1586  0.1078
  932POPC   D2A13670  14.887  10.591   6.778  0.0985 -0.1631 -0.2013
  932POPC   C3A13671  14.397  10.704   6.887  0.1288  0.1177 -0.0437
  932POPC   C4A13672  14.127  10.982   6.830  0.0779 -0.1017  0.0501
  932POPC   C1B13673  14.842  10.238   6.489 -0.0631 -0.0914  0.1193
  932POPC   C2B13674  14.974  10.157   6.912 -0.1032 -0.1443 -0.3142
  932POPC   C3B13675  15.442  10.018   7.025 -0.2434 -0.1172  0.0118
  932POPC   C4B13676  15.685   9.808   7.242  0.1356  0.3656 -0.1570
  933POPC   NC313677   9.540   3.810   5.804 -0.1417 -0.2233 -0.0476
  933POPC   PO413678   9.748   4.064   6.144  0.4454 -0.0420 -0.2110
  933POPC   GL113679   9.578   4.133   6.563 -0.0171  0.2218  0.0430
  933POPC   GL213680   9.759   4.345   6.561  0.0755  0.2361 -0.0562
  933POPC   C1A13681   9.717   3.932   6.855  0.1556  0.2009 -0.0703
  933POPC   D2A13682  10.101   3.843   7.011 -0.0749 -0.4785  0.0380
  933POPC   C3A13683  10.309   3.983   7.409  0.0261  0.0807 -0.1541
  933POPC   C4A13684  10.567   4.325   7.506  0.1529  0.0222  0.3650
  933POPC   C1B13685  10.076   4.385   6.936  0.0869 -0.1454 -0.1481
  933POPC   C2B13686  10.404   4.228   6.972 -0.4773  0.2268 -0.2046
  933POPC   C3B13687  10.727   4.039   7.008 -0.3810  0.1341 -0.0454
  933POPC   C4B13688  10.923   4.011   6.631 -0.0041  0.1984  0.2455
  934POPC   NC313689  12.521  17.582   5.418 -0.2345 -0.0474 -0.1200
  934POPC   PO413690  12.947  17.463   5.296  0.1564 -0.0252  0.0039
  934POPC   GL113691  12.996  17.404   5.756  0.1634 -0.3184 -0.4172
  934POPC   GL213692  12.760  17.671   5.864 -0.0355  0.0891  0.0221
  934POPC   C1A13693  13.209  17.269   6.053 -0.1799  0.1578  0.0011
  934POPC   D2A13694  13.309  17.319   6.471  0.1514  0.5491 -0.4229
  934POPC   C3A13695  13.829  17.342   6.609  0.0977 -0.0351 -0.3805
  934POPC   C4A13696  13.918  17.433   6.982  0.2079  0.0717  0.0844
  934POPC   C1B13697  12.709  17.284   6.189  0.2621  0.0223 -0.0648
  934POPC   C2B13698  12.565  17.180   6.636 -0.0406 -0.0544 -0.0663
  934POPC   C3B13699  12.338  16.810   6.837  0.0015  0.0437  0.1889
  934POPC   C4B13700  12.498  16.586   7.205  0.1218  0.1552 -0.0724
  935POPC   NC313701   9.054   8.516   5.753  0.1486  0.0055  0.1751
  935POPC   PO413702   9.153   8.496   6.176 -0.0872 -0.2916  0.2812
  935POPC   GL113703   9.495   8.744   6.335  0.0605  0.0671  0.0415
  935POPC   GL213704   9.707   8.823   6.264 -0.3570  0.1869  0.2259
  935POPC   C1A13705   9.441   9.063   6.536  0.0706  0.2193  0.1767
  935POPC   D2A13706   9.674   9.356   6.753  0.1029 -0.0440 -0.0640
  935POPC   C3A13707   9.383   9.676   6.822 -0.1005 -0.0942 -0.0721
  935POPC   C4A13708   8.928   9.738   6.882 -0.0745  0.0346  0.4427
  935POPC   C1B13709   9.846   8.900   6.775 -0.0759  0.1206  0.0409
  935POPC   C2B13710   9.645   9.026   7.149 -0.4751 -0.1982  0.1092
  935POPC   C3B13711   9.362   9.095   7.594  0.2353  0.2241 -0.0312
  935POPC   C4B13712   8.971   9.146   7.922 -0.2151 -0.0835  0.0169
  936POPC   NC313713   3.739  13.920   5.943 -0.1108 -0.4109  0.2108
  936POPC   PO413714   3.574  14.300   5.911 -0.0071 -0.1964  0.0653
  936POPC   GL113715   3.577  14.223   6.277  0.3658  0.2024 -0.5656
  936POPC   GL213716   3.255  14.342   6.349 -0.4792  0.2791 -0.1486
  936POPC   C1A13717   3.740  14.215   6.684  0.1631 -0.3654  0.0515
  936POPC   D2A13718   3.754  14.346   7.066 -0.0701  0.0568 -0.0353
  936POPC   C3A13719   3.835  14.128   7.499  0.1370 -0.1648  0.0568
  936POPC   C4A13720   3.724  13.847   7.755  0.0784  0.0903  0.1847
  936POPC   C1B13721   3.071  14.395   6.795  0.2673  0.1330 -0.1976
  936POPC   C2B13722   2.799  14.430   7.298 -0.0297 -0.1081  0.2738
  936POPC   C3B13723   2.675  14.326   7.792 -0.0651  0.0560  0.0119
  936POPC   C4B13724   2.619  14.356   8.195  0.4541 -0.0369 -0.0028
  937POPC   NC313725  17.288  16.801   5.005 -0.2626  0.0327  0.1831
  937POPC   PO413726  17.673  16.905   5.240  0.0065 -0.2068 -0.2787
  937POPC   GL113727  17.591  17.162   5.506 -0.1422  0.2064 -0.0704
  937POPC   GL213728  17.670  17.438   5.675  0.1132  0.1655  0.4298
  937POPC   C1A13729  17.338  16.893   5.784 -0.0836  0.1786 -0.1713
  937POPC   D2A13730  16.994  16.666   5.833 -0.0446 -0.2480 -0.0013
  937POPC   C3A13731  16.715  16.775   6.038  0.0225 -0.1128  0.0186
  937POPC   C4A13732  16.274  16.624   5.944 -0.1172 -0.0621 -0.1917
  937POPC   C1B13733  17.428  17.611   5.837  0.2341  0.0236  0.1508
  937POPC   C2B13734  17.131  17.548   6.109 -0.2089 -0.1624  0.1386
  937POPC   C3B13735  17.068  17.412   6.533 -0.0615  0.1706 -0.0976
  937POPC   C4B13736  17.173  17.122   6.735  0.0400  0.2187  0.0367
  938POPC   NC313737   0.352  11.065   5.702 -0.2754  0.2015 -0.1318
  938POPC   PO413738   0.818  11.043   5.833  0.0157 -0.0257 -0.1901
  938POPC   GL113739   0.692  11.185   6.230  0.4131  0.2275 -0.0089
  938POPC   GL213740   0.349  11.140   6.180 -0.0343  0.2341 -0.1902
  938POPC   C1A13741   0.578  11.081   6.599  0.2511  0.0887  0.2450
  938POPC   D2A13742   0.754  11.031   6.944 -0.3806  0.1166  0.1061
  938POPC   C3A13743   0.823  10.705   7.163 -0.0324 -0.1982 -0.1684
  938POPC   C4A13744   1.090  10.529   7.472 -0.4366  0.0670 -0.3859
  938POPC   C1B13745   0.193  11.390   6.616  0.2959  0.1874  0.0442
  938POPC   C2B13746  -0.160  11.478   6.821 -0.0215  0.0877  0.2531
  938POPC   C3B13747  -0.439  11.155   6.808 -0.4086  0.0910 -0.0291
  938POPC   C4B13748  -0.586  10.746   7.038 -0.0427  0.0627 -0.0682
  939POPC   NC313749   6.165   7.973   6.266 -0.0003 -0.2441  0.0149
  939POPC   PO413750   6.601   7.743   6.183 -0.1096 -0.4343 -0.0635
  939POPC   GL113751   6.479   7.867   6.672  0.1208 -0.1029 -0.0081
  939POPC   GL213752   6.621   7.625   6.862  0.0487 -0.2905  0.1543
  939POPC   C1A13753   6.280   8.061   6.923 -0.0202 -0.0961  0.1901
  939POPC   D2A13754   6.269   8.337   7.276 -0.0817 -0.0438 -0.2437
  939POPC   C3A13755   6.396   8.722   7.241 -0.1016 -0.1704  0.0730
  939POPC   C4A13756   6.607   9.129   7.395 -0.2508 -0.3284  0.2399
  939POPC   C1B13757   7.035   7.807   6.988  0.2945  0.2245  0.2288
  939POPC   C2B13758   7.119   7.856   7.529 -0.0394  0.1952  0.1453
  939POPC   C3B13759   7.210   7.788   7.925 -0.0385 -0.0739 -0.1626
  939POPC   C4B13760   7.383   7.790   8.278 -0.1288  0.0342 -0.0888
  940POPC   NC313761  12.921   7.174   5.834  0.0736 -0.4354  0.3286
  940POPC   PO413762  13.017   6.641   5.890 -0.1626  0.0358  0.0798
  940POPC   GL113763  12.958   6.387   6.250 -0.0209 -0.0913 -0.1806
  940POPC   GL213764  13.054   6.050   6.296  0.2242 -0.3462 -0.3328
  940POPC   C1A13765  13.009   6.534   6.713 -0.1094  0.2299 -0.0524
  940POPC   D2A13766  13.004   6.720   7.163  0.1794 -0.0771 -0.0147
  940POPC   C3A13767  13.201   6.579   7.342 -0.0453 -0.0492 -0.0681
  940POPC   C4A13768  13.259   6.158   7.370  0.0217 -0.2034  0.1684
  940POPC   C1B13769  12.681   6.137   6.504 -0.1234  0.0048 -0.0623
  940POPC   C2B13770  12.540   6.384   6.955  0.2685  0.0440 -0.1568
  940POPC   C3B13771  12.557   6.578   7.396 -0.1447 -0.0142 -0.0408
  940POPC   C4B13772  12.226   6.852   7.595 -0.2638 -0.0778  0.1797
  941POPC   NC313773   3.917   5.285   6.087 -0.0433 -0.0592  0.0318
  941POPC   PO413774   4.159   5.079   6.314  0.0694  0.0785 -0.1739
  941POPC   GL113775   4.203   4.954   6.771 -0.0488 -0.3612 -0.0246
  941POPC   GL213776   3.910   5.124   7.011 -0.1064  0.1866 -0.1299
  941POPC   C1A13777   4.335   4.700   7.169 -0.1026 -0.3870  0.5100
  941POPC   D2A13778   4.580   4.884   7.479 -0.1843  0.2487  0.0574
  941POPC   C3A13779   4.699   4.767   7.835 -0.2168 -0.0757  0.0061
  941POPC   C4A13780   4.744   4.487   8.088  0.0187  0.0288  0.1999
  941POPC   C1B13781   3.613   4.954   7.237 -0.3649 -0.0725 -0.2059
  941POPC   C2B13782   3.177   5.008   7.156 -0.1789  0.1048  0.1781
  941POPC   C3B13783   2.749   4.974   7.390  0.1104 -0.0397 -0.1815
  941POPC   C4B13784   2.533   5.249   7.151 -0.1433 -0.1374 -0.0044
  942POPC   NC313785  11.273  11.957   5.630 -0.2909  0.3296 -0.0663
  942POPC   PO413786  10.892  11.752   5.774 -0.0999 -0.1982 -0.0562
  942POPC   GL113787  10.750  11.869   6.124 -0.2266 -0.1325 -0.0612
  942POPC   GL213788  10.365  11.801   6.128  0.1715  0.0934 -0.0024
  942POPC   C1A13789  10.731  11.973   6.588 -0.1161  0.1857 -0.5286
  942POPC   D2A13790  10.605  12.054   7.050  0.0292 -0.0078 -0.0364
  942POPC   C3A13791  10.445  12.214   7.388  0.0083  0.3256 -0.3129
  942POPC   C4A13792  10.490  12.543   7.663 -0.2378 -0.3437 -0.0675
  942POPC   C1B13793  10.540  11.537   6.554  0.0112 -0.0599 -0.1131
  942POPC   C2B13794  10.555  11.393   6.896 -0.0036 -0.2384  0.2287
  942POPC   C3B13795  10.607  11.360   7.285 -0.0543 -0.0691 -0.0277
  942POPC   C4B13796  10.425  11.119   7.502  0.0278 -0.4354  0.1554
  943POPC   NC313797   0.394   4.711   5.664  0.0853 -0.1127  0.1351
  943POPC   PO413798   0.002   4.495   5.980 -0.0162  0.1654  0.4216
  943POPC   GL113799  -0.144   4.378   6.334 -0.0414  0.0699 -0.0506
  943POPC   GL213800  -0.259   4.065   6.320 -0.0563  0.0467 -0.0505
  943POPC   C1A13801  -0.284   4.408   6.738  0.1078 -0.0920 -0.0798
  943POPC   D2A13802  -0.296   4.292   7.183  0.0593  0.2354 -0.1965
  943POPC   C3A13803   0.118   4.192   7.211 -0.0339 -0.4227 -0.2386
  943POPC   C4A13804   0.590   4.153   7.125 -0.2689 -0.3518 -0.0311
  943POPC   C1B13805  -0.624   4.286   6.314  0.0177  0.1993 -0.0501
  943POPC   C2B13806  -0.755   4.469   6.594 -0.1204 -0.0829 -0.1577
  943POPC   C3B13807  -0.977   4.597   6.982  0.0578 -0.0070  0.1346
  943POPC   C4B13808  -1.043   4.794   7.389 -0.2586  0.0406 -0.3767
  944POPC   NC313809   1.507  13.149   5.703  0.2183 -0.1215 -0.1364
  944POPC   PO413810   1.261  12.802   5.826  0.0953  0.1231  0.0015
  944POPC   GL113811   1.281  12.807   6.247  0.3177  0.1058  0.0495
  944POPC   GL213812   1.005  12.615   6.309  0.0571 -0.1482  0.3581
  944POPC   C1A13813   1.372  12.526   6.616 -0.0802  0.2828 -0.0868
  944POPC   D2A13814   1.236  12.344   7.040 -0.2499 -0.0069 -0.0133
  944POPC   C3A13815   1.347  11.981   7.402 -0.0129 -0.0939 -0.0698
  944POPC   C4A13816   1.241  12.000   7.832 -0.1922  0.1644 -0.0755
  944POPC   C1B13817   0.742  12.592   6.639  0.1824 -0.1697 -0.0855
  944POPC   C2B13818   0.743  12.513   7.062  0.4904  0.0374 -0.2088
  944POPC   C3B13819   1.021  12.401   7.496  0.0712  0.3087 -0.0162
  944POPC   C4B13820   0.860  12.356   7.968  0.2031 -0.1811 -0.1945
  945POPC   NC313821   9.206  12.623   6.054  0.1023  0.1369 -0.1341
  945POPC   PO413822   9.501  12.365   5.915  0.6581  0.1149  0.2473
  945POPC   GL113823   9.711  12.384   6.335 -0.3146  0.0499  0.1256
  945POPC   GL213824   9.388  12.472   6.505 -0.1132 -0.1565 -0.0530
  945POPC   C1A13825   9.874  12.449   6.714  0.3133 -0.3507 -0.1198
  945POPC   D2A13826  10.025  12.302   7.130  0.1135 -0.0800 -0.1224
  945POPC   C3A13827   9.965  12.482   7.463  0.0113 -0.0506  0.2123
  945POPC   C4A13828  10.026  12.671   7.922 -0.0112 -0.0996 -0.3354
  945POPC   C1B13829   9.494  12.588   6.990 -0.1748 -0.2867  0.1175
  945POPC   C2B13830   9.476  12.610   7.409  0.1764 -0.1170  0.0857
  945POPC   C3B13831   9.592  12.374   7.761  0.0036 -0.1231  0.2276
  945POPC   C4B13832   9.797  12.215   8.110  0.0015 -0.0982  0.1837
  946POPC   NC313833  17.768   8.294   5.656 -0.3276 -0.0096 -0.2065
  946POPC   PO413834  18.082   7.981   5.830  0.0147  0.3159  0.2270
  946POPC   GL113835  17.883   7.894   6.245 -0.0942 -0.0121 -0.2057
  946POPC   GL213836  17.923   7.558   6.309  0.3133 -0.0414  0.0138
  946POPC   C1A13837  17.997   7.875   6.731  0.2457  0.1431  0.1776
  946POPC   D2A13838  18.084   8.066   7.005 -0.1655 -0.1776  0.2656
  946POPC   C3A13839  17.905   8.155   7.412 -0.0437  0.0778  0.0190
  946POPC   C4A13840  17.927   8.056   7.877  0.0754  0.0415 -0.4009
  946POPC   C1B13841  18.056   7.283   6.705 -0.2288 -0.3937  0.4027
  946POPC   C2B13842  18.011   7.011   7.046  0.1046  0.0540 -0.2154
  946POPC   C3B13843  17.964   6.757   7.472 -0.1008 -0.0774  0.2595
  946POPC   C4B13844  18.242   6.729   7.900 -0.0980 -0.3398  0.1073
  947POPC   NC313845  10.407   1.325   5.576  0.0005 -0.3421  0.0591
  947POPC   PO413846  10.801   1.472   5.757 -0.1260  0.3476 -0.1437
  947POPC   GL113847  10.979   1.708   6.079 -0.3157 -0.0937 -0.1210
  947POPC   GL213848  11.294   1.980   5.941  0.0068  0.1894  0.0207
  947POPC   C1A13849  11.198   1.802   6.402  0.1288 -0.1378 -0.2012
  947POPC   D2A13850  11.248   1.558   6.788 -0.1277 -0.0266 -0.2133
  947POPC   C3A13851  11.327   1.455   7.092 -0.0476 -0.3261  0.1225
  947POPC   C4A13852  11.131   1.252   7.517  0.0813  0.0577 -0.0642
  947POPC   C1B13853  11.630   2.162   6.276 -0.0080  0.2239 -0.0433
  947POPC   C2B13854  11.908   2.222   6.683 -0.0108  0.4514  0.1569
  947POPC   C3B13855  11.712   2.412   6.978  0.0074 -0.1661  0.4456
  947POPC   C4B13856  11.519   2.766   7.261 -0.0412  0.3901  0.1365
  948POPC   NC313857  11.189   5.456   6.008  0.4817 -0.0943  0.3758
  948POPC   PO413858  10.995   5.645   6.307 -0.0140 -0.3097  0.1003
  948POPC   GL113859  11.369   5.504   6.476 -0.0530  0.1898 -0.1442
  948POPC   GL213860  11.513   5.786   6.541 -0.0774  0.2139 -0.2073
  948POPC   C1A13861  11.669   5.206   6.804  0.0675 -0.1292 -0.0029
  948POPC   D2A13862  12.082   5.050   6.736  0.3328  0.1593 -0.0707
  948POPC   C3A13863  12.340   5.007   7.008  0.0599  0.1988  0.0402
  948POPC   C4A13864  12.378   5.342   7.334  0.1619 -0.2612  0.0873
  948POPC   C1B13865  11.398   5.592   6.947 -0.1405  0.1325 -0.2943
  948POPC   C2B13866  11.532   5.507   7.274 -0.1443  0.2266 -0.1357
  948POPC   C3B13867  11.741   5.270   7.556  0.1144  0.3091  0.0204
  948POPC   C4B13868  11.927   5.423   7.876 -0.5988  0.0430 -0.2946
  949POPC   NC313869  11.351  12.674   5.342  0.2115  0.3438 -0.0757
  949POPC   PO413870  11.579  12.865   5.614  0.3624  0.0881  0.1674
  949POPC   GL113871  11.464  12.786   6.012  0.0370  0.1374  0.0438
  949POPC   GL213872  11.297  12.943   6.324  0.0264 -0.1557 -0.1115
  949POPC   C1A13873  11.800  12.837   6.369  0.2231  0.0571  0.1243
  949POPC   D2A13874  11.895  13.029   6.713  0.1481 -0.2353  0.3036
  949POPC   C3A13875  11.523  13.160   6.836  0.3083 -0.1311  0.1670
  949POPC   C4A13876  11.142  12.837   7.095  0.3061 -0.0519 -0.0626
  949POPC   C1B13877  11.424  12.692   6.627  0.1790 -0.0114  0.0039
  949POPC   C2B13878  11.428  12.359   6.916 -0.1293  0.3471  0.1288
  949POPC   C3B13879  11.796  12.196   7.270  0.1392  0.1430 -0.0758
  949POPC   C4B13880  11.948  11.801   7.467  0.0773 -0.1332 -0.1035
  950POPC   NC313881   2.231   3.944   6.168 -0.0635 -0.1226  0.0097
  950POPC   PO413882   2.243   3.444   6.171 -0.0350  0.1611  0.0391
  950POPC   GL113883   2.016   3.566   6.533  0.0985  0.1194 -0.1506
  950POPC   GL213884   1.937   3.249   6.590 -0.0449 -0.2401  0.1171
  950POPC   C1A13885   1.579   3.626   6.664 -0.0079 -0.0066 -0.2052
  950POPC   D2A13886   1.460   3.581   7.136  0.0225 -0.1005  0.0569
  950POPC   C3A13887   1.550   3.229   7.318  0.0616  0.0028 -0.5349
  950POPC   C4A13888   1.790   2.978   7.517  0.1875 -0.0446  0.0245
  950POPC   C1B13889   1.969   3.504   7.032 -0.1890  0.0474  0.1004
  950POPC   C2B13890   1.842   3.673   7.389 -0.0104 -0.1145  0.0704
  950POPC   C3B13891   1.615   3.418   7.833 -0.1430  0.0729  0.0231
  950POPC   C4B13892   1.673   3.174   8.186 -0.5476 -0.0296  0.0762
  951POPC   NC313893  17.753  13.467   5.575 -0.1433  0.3379  0.1327
  951POPC   PO413894  17.609  14.007   5.641  0.2515  0.2368 -0.2998
  951POPC   GL113895  17.179  14.154   5.655  0.0136  0.0238 -0.0045
  951POPC   GL213896  17.168  14.377   5.755  0.1804  0.0115 -0.2070
  951POPC   C1A13897  16.707  14.230   5.721 -0.0348  0.1500 -0.1141
  951POPC   D2A13898  16.351  14.414   5.750  0.0032  0.2069 -0.0270
  951POPC   C3A13899  16.157  14.846   5.925 -0.3654 -0.0504  0.2736
  951POPC   C4A13900  16.461  15.147   6.069 -0.0257  0.1464 -0.1982
  951POPC   C1B13901  16.962  14.334   6.193  0.0012  0.0212  0.0436
  951POPC   C2B13902  16.722  14.381   6.600 -0.1819 -0.1026  0.0716
  951POPC   C3B13903  16.286  14.545   6.816 -0.1826 -0.0747  0.0395
  951POPC   C4B13904  16.098  14.599   7.183  0.2169  0.0214 -0.1071
  952POPC   NC313905   8.909  18.273   5.710  0.1196  0.0462  0.0223
  952POPC   PO413906   8.666  18.516   5.971  0.1824 -0.1758  0.4197
  952POPC   GL113907   8.661  18.575   6.430  0.1382  0.3022 -0.1494
  952POPC   GL213908   8.344  18.696   6.532 -0.1763 -0.2641 -0.1717
  952POPC   C1A13909   8.749  18.423   6.806  0.4883  0.0384 -0.1427
  952POPC   D2A13910   8.751  18.521   7.201 -0.3953 -0.2552 -0.0460
  952POPC   C3A13911   8.764  18.233   7.559  0.2990 -0.1072  0.0595
  952POPC   C4A13912   9.107  18.350   7.826 -0.2338 -0.3529  0.1940
  952POPC   C1B13913   8.256  18.781   6.889 -0.1304  0.1581  0.1599
  952POPC   C2B13914   8.286  18.499   7.354  0.1717  0.0766  0.1746
  952POPC   C3B13915   8.315  18.192   7.791 -0.0233 -0.4291 -0.0265
  952POPC   C4B13916   8.168  18.227   8.191  0.2446  0.2197 -0.0771
  953POPC   NC313917  14.645   3.977   5.543 -0.1212 -0.2139  0.0520
  953POPC   PO413918  15.136   4.095   5.366  0.1475 -0.0956 -0.0419
  953POPC   GL113919  15.099   3.934   5.823 -0.2092  0.0065 -0.0036
  953POPC   GL213920  15.356   3.850   5.858 -0.0890  0.2190 -0.0275
  953POPC   C1A13921  14.927   3.900   6.232 -0.0243 -0.1433 -0.0845
  953POPC   D2A13922  14.888   3.962   6.708  0.0911  0.1450  0.1449
  953POPC   C3A13923  14.495   4.143   6.977 -0.0465  0.0620  0.2274
  953POPC   C4A13924  14.204   4.301   7.258  0.3325  0.0177  0.0918
  953POPC   C1B13925  15.516   3.935   6.279 -0.0040 -0.1280 -0.0878
  953POPC   C2B13926  15.539   3.858   6.681 -0.2933 -0.1348 -0.1609
  953POPC   C3B13927  15.293   3.967   7.077  0.0630 -0.0039  0.0057
  953POPC   C4B13928  14.942   4.074   7.228  0.1579  0.0596  0.0151
  954POPC   NC313929   8.250  10.712   5.918  0.1175  0.1414  0.1581
  954POPC   PO413930   7.923  10.891   6.150 -0.2211  0.1780 -0.1613
  954POPC   GL113931   7.821  11.299   6.248  0.3701 -0.1107 -0.0375
  954POPC   GL213932   8.088  11.515   6.363  0.1851 -0.1400 -0.1200
  954POPC   C1A13933   7.644  11.426   6.673  0.2740 -0.0330 -0.2756
  954POPC   D2A13934   7.416  11.297   7.080  0.3191 -0.0651  0.0431
  954POPC   C3A13935   7.356  11.378   7.471  0.0856  0.0237 -0.0044
  954POPC   C4A13936   7.638  11.405   7.873 -0.2235 -0.1019 -0.1117
  954POPC   C1B13937   8.000  11.712   6.776 -0.0359 -0.0468  0.3388
  954POPC   C2B13938   8.032  11.615   7.127 -0.2195  0.1124  0.3730
  954POPC   C3B13939   8.133  11.319   7.408 -0.0597  0.2549 -0.0236
  954POPC   C4B13940   8.163  11.418   7.880 -0.1121  0.2048  0.0219
  955POPC   NC313941  15.802  16.824   4.794 -0.0560  0.1145 -0.0667
  955POPC   PO413942  15.803  16.740   5.201  0.0377  0.2826 -0.0060
  955POPC   GL113943  15.586  16.847   5.544 -0.1612  0.1407 -0.0430
  955POPC   GL213944  15.873  16.859   5.709 -0.1262 -0.1073 -0.0421
  955POPC   C1A13945  15.436  17.277   5.729  0.1168  0.0129 -0.2416
  955POPC   D2A13946  15.785  17.425   5.914  0.1013  0.2726  0.1130
  955POPC   C3A13947  15.806  17.343   6.393  0.4126 -0.4349 -0.2182
  955POPC   C4A13948  15.708  16.923   6.642 -0.0223  0.2993  0.3344
  955POPC   C1B13949  15.798  16.917   6.174  0.1796  0.2010 -0.0952
  955POPC   C2B13950  16.075  16.636   6.432 -0.0905  0.0686 -0.2192
  955POPC   C3B13951  16.444  16.655   6.593  0.2019  0.2025  0.1841
  955POPC   C4B13952  16.762  16.641   6.825  0.1508  0.1160  0.1756
  956POPC   NC313953  10.673  17.683   5.415 -0.2019  0.1041 -0.4323
  956POPC   PO413954  11.053  17.747   5.093 -0.1407  0.3603  0.2410
  956POPC   GL113955  11.269  17.961   5.416 -0.0630 -0.0961 -0.2355
  956POPC   GL213956  11.041  18.213   5.519 -0.1134  0.1090  0.1766
  956POPC   C1A13957  11.348  18.089   5.834 -0.0170  0.1975 -0.1650
  956POPC   D2A13958  11.624  18.073   6.108  0.2952 -0.2108 -0.1356
  956POPC   C3A13959  11.760  18.333   6.303 -0.2210  0.0901 -0.2929
  956POPC   C4A13960  11.772  18.471   6.707  0.2852 -0.1467  0.1493
  956POPC   C1B13961  10.850  18.327   5.895 -0.1670 -0.3114  0.0947
  956POPC   C2B13962  10.709  18.389   6.293 -0.4230  0.3744  0.0982
  956POPC   C3B13963  10.665  18.371   6.682  0.2264 -0.1547 -0.0622
  956POPC   C4B13964  10.599  18.861   6.771 -0.0761 -0.0474 -0.0235
  957POPC   NC313965   4.812  16.889   5.622 -0.0443 -0.0376  0.3454
  957POPC   PO413966   4.537  16.953   5.844  0.0485  0.4147  0.0453
  957POPC   GL113967   4.227  16.819   6.165 -0.3221  0.0275 -0.0078
  957POPC   GL213968   3.897  16.690   6.322 -0.2263 -0.0547  0.1926
  957POPC   C1A13969   4.280  16.770   6.637 -0.1524 -0.0806  0.1835
  957POPC   D2A13970   4.187  16.744   7.013  0.3527  0.1433  0.0886
  957POPC   C3A13971   4.270  16.787   7.507 -0.0894  0.0216  0.2044
  957POPC   C4A13972   4.160  16.517   7.883 -0.1649  0.2516  0.0253
  957POPC   C1B13973   3.805  16.939   6.722  0.3336 -0.0575  0.0980
  957POPC   C2B13974   3.548  17.139   6.975 -0.0582 -0.2330  0.1014
  957POPC   C3B13975   3.444  17.002   7.259 -0.0704  0.0706  0.1896
  957POPC   C4B13976   3.194  17.073   7.480  0.2753  0.0583  0.4024
  958POPC   NC313977   3.761  11.049   5.946 -0.1893 -0.2084 -0.0757
  958POPC   PO413978   3.346  11.277   5.873  0.0578  0.0295 -0.0809
  958POPC   GL113979   3.175  11.371   6.268  0.2828  0.2014  0.2685
  958POPC   GL213980   3.065  11.679   6.215 -0.1118 -0.0750  0.0112
  958POPC   C1A13981   3.341  11.251   6.575 -0.1463  0.1087  0.0498
  958POPC   D2A13982   3.418  11.227   7.049 -0.1242  0.1228  0.3827
  958POPC   C3A13983   3.745  10.961   7.293 -0.1246 -0.5620 -0.1181
  958POPC   C4A13984   3.973  11.083   7.638  0.3207  0.0644 -0.0294
  958POPC   C1B13985   3.055  11.650   6.659 -0.0858  0.2466  0.0331
  958POPC   C2B13986   3.136  11.856   7.003  0.1803  0.1276  0.1860
  958POPC   C3B13987   3.354  11.871   7.506  0.2584  0.3317  0.0547
  958POPC   C4B13988   3.646  11.701   7.782 -0.2364 -0.1549  0.0414
  959POPC   NC313989   5.669   9.700   6.068  0.3316  0.1135  0.2510
  959POPC   PO413990   5.224   9.917   6.133  0.0894 -0.0859 -0.0049
  959POPC   GL113991   5.145   9.950   6.546 -0.0494 -0.1401  0.0355
  959POPC   GL213992   5.041   9.583   6.563 -0.0303 -0.1527 -0.4112
  959POPC   C1A13993   5.125  10.160   6.917 -0.0546  0.0499  0.1468
  959POPC   D2A13994   4.916  10.451   7.246  0.0298 -0.0781  0.1989
  959POPC   C3A13995   4.476  10.356   7.221 -0.1069 -0.0326  0.0085
  959POPC   C4A13996   4.197  10.315   7.573 -0.1430 -0.2321  0.0650
  959POPC   C1B13997   5.100   9.619   6.955  0.0473 -0.1308 -0.2282
  959POPC   C2B13998   5.154   9.498   7.441  0.0353 -0.0617  0.0013
  959POPC   C3B13999   5.304   9.709   7.836 -0.0107 -0.0638  0.0644
  959POPC   C4B14000   5.258   9.535   8.213 -0.1955 -0.3848 -0.0214
  960POPC   NC314001  12.275   2.516   5.955  0.4877  0.0599 -0.0420
  960POPC   PO414002  12.447   2.132   5.758 -0.1028 -0.2103 -0.0424
  960POPC   GL114003  12.684   2.214   6.030 -0.1741 -0.0658 -0.1148
  960POPC   GL214004  12.899   2.117   6.007 -0.1127  0.1264  0.1358
  960POPC   C1A14005  12.873   2.406   6.390 -0.0491 -0.0910  0.2529
  960POPC   D2A14006  12.873   2.693   6.758 -0.0991  0.1130  0.1623
  960POPC   C3A14007  12.492   2.921   7.056 -0.0989  0.0643  0.2173
  960POPC   C4A14008  12.351   3.231   6.960 -0.4316 -0.0338  0.0057
  960POPC   C1B14009  12.764   1.823   6.305 -0.0515  0.0001 -0.1877
  960POPC   C2B14010  12.870   1.442   6.467 -0.1690  0.1008  0.4140
  960POPC   C3B14011  13.067   1.222   6.846  0.0507  0.4027  0.0737
  960POPC   C4B14012  12.823   1.168   7.119  0.2835 -0.0856 -0.0606
  961POPC   NC314013  14.956   2.929   5.588  0.2407  0.0844 -0.0897
  961POPC   PO414014  15.409   3.075   5.547 -0.5692  0.0831 -0.0681
  961POPC   GL114015  15.108   3.296   5.847  0.2142 -0.0049 -0.2083
  961POPC   GL214016  14.836   3.481   5.919  0.3128  0.0060  0.1712
  961POPC   C1A14017  15.329   3.468   6.177  0.4119 -0.0076 -0.0807
  961POPC   D2A14018  15.127   3.524   6.575 -0.0643 -0.0253  0.0244
  961POPC   C3A14019  14.980   3.487   6.955  0.0740 -0.0492  0.1232
  961POPC   C4A14020  15.065   3.535   7.389  0.2649 -0.2027  0.0052
  961POPC   C1B14021  14.816   3.228   6.263 -0.0074  0.0969  0.1165
  961POPC   C2B14022  14.751   3.087   6.636  0.1896  0.1773  0.2608
  961POPC   C3B14023  14.758   2.957   7.015  0.1728 -0.0347  0.1920
  961POPC   C4B14024  14.633   3.207   7.281 -0.1309  0.2150 -0.3559
  962POPC   NC314025   3.591   7.550   5.835  0.1123 -0.2530 -0.1081
  962POPC   PO414026   3.847   7.244   5.956  0.3293 -0.0281  0.0886
  962POPC   GL114027   3.789   7.264   6.407 -0.0571 -0.5746  0.0898
  962POPC   GL214028   3.640   7.022   6.503 -0.1704  0.3495  0.1454
  962POPC   C1A14029   3.754   7.363   6.888  0.0580  0.1427  0.0531
  962POPC   D2A14030   3.486   7.451   7.233  0.2171 -0.1211  0.0878
  962POPC   C3A14031   3.432   7.465   7.749 -0.1733 -0.2044  0.1687
  962POPC   C4A14032   3.582   7.644   8.084 -0.0668 -0.2629 -0.0820
  962POPC   C1B14033   3.679   6.886   6.958  0.3022 -0.2462 -0.1239
  962POPC   C2B14034   3.536   6.505   7.225  0.0626 -0.2410  0.4221
  962POPC   C3B14035   3.541   6.350   7.710 -0.0048  0.0447  0.1881
  962POPC   C4B14036   3.265   6.122   7.996 -0.0804 -0.3659 -0.2109
  963POPC   NC314037  11.026  15.697   4.996 -0.0114  0.0526  0.0245
  963POPC   PO414038  11.484  15.556   4.899 -0.2069  0.3207  0.3237
  963POPC   GL114039  11.675  15.492   5.332  0.1684 -0.2296 -0.1997
  963POPC   GL214040  11.936  15.654   5.321  0.0052  0.1462  0.0424
  963POPC   C1A14041  11.668  15.241   5.743  0.0717  0.0483 -0.3398
  963POPC   D2A14042  11.708  15.136   6.186  0.0821  0.1876  0.3379
  963POPC   C3A14043  11.556  14.801   6.466 -0.2765  0.0546  0.2070
  963POPC   C4A14044  11.484  14.890   6.943  0.0670 -0.1995 -0.3105
  963POPC   C1B14045  11.853  15.748   5.731  0.1313 -0.0926  0.1096
  963POPC   C2B14046  11.986  15.939   6.092  0.3675  0.1074 -0.2214
  963POPC   C3B14047  12.179  16.337   6.134 -0.3464  0.1682  0.0920
  963POPC   C4B14048  12.478  16.580   6.349 -0.1101 -0.2276  0.1814
  964POPC   NC314049   4.002   6.823   6.256  0.3604 -0.3964  0.1022
  964POPC   PO414050   4.328   6.458   6.212  0.0886 -0.1762  0.1924
  964POPC   GL114051   4.440   6.271   6.721  0.1098  0.0266 -0.1322
  964POPC   GL214052   4.599   5.986   6.699  0.2089  0.1092 -0.1298
  964POPC   C1A14053   4.390   6.387   7.093  0.1035 -0.1533  0.0865
  964POPC   D2A14054   4.250   6.393   7.480  0.0869 -0.0495 -0.2494
  964POPC   C3A14055   3.918   6.604   7.510  0.0418  0.1703 -0.1634
  964POPC   C4A14056   3.642   6.778   7.912 -0.2023  0.1894  0.0186
  964POPC   C1B14057   4.846   6.055   7.155  0.3430 -0.2697 -0.0195
  964POPC   C2B14058   5.065   5.918   7.524  0.1419 -0.1826 -0.0327
  964POPC   C3B14059   5.189   6.092   7.881  0.1106 -0.0580  0.0295
  964POPC   C4B14060   5.296   6.362   8.235  0.3055 -0.1707  0.1658
  965POPC   NC314061   7.676   0.454   6.040 -0.0436 -0.2075  0.0199
  965POPC   PO414062   8.020   0.656   6.000  0.0060 -0.1295  0.0088
  965POPC   GL114063   8.027   0.709   6.356 -0.0578  0.1043 -0.0308
  965POPC   GL214064   7.724   0.826   6.527 -0.2878 -0.0422 -0.2345
  965POPC   C1A14065   7.967   0.698   6.930 -0.0655  0.0236 -0.1457
  965POPC   D2A14066   7.870   0.888   7.277 -0.1958 -0.1286 -0.1317
  965POPC   C3A14067   7.867   0.819   7.671 -0.0308  0.2698  0.2229
  965POPC   C4A14068   8.030   1.078   8.002 -0.4438 -0.0275 -0.3230
  965POPC   C1B14069   7.935   1.165   6.839 -0.1920 -0.2241  0.0764
  965POPC   C2B14070   7.669   1.367   7.195  0.2099  0.1792 -0.1886
  965POPC   C3B14071   7.605   1.265   7.650 -0.0629 -0.1462 -0.1209
  965POPC   C4B14072   7.397   0.947   7.672  0.0754  0.0486 -0.0411
  966POPC   NC314073   6.184  12.777   6.094 -0.0529  0.2280  0.1267
  966POPC   PO414074   6.316  12.346   6.076 -0.0892  0.1791  0.0717
  966POPC   GL114075   6.220  12.353   6.497 -0.0653  0.2351  0.0870
  966POPC   GL214076   6.565  12.478   6.702  0.3855  0.2618 -0.1502
  966POPC   C1A14077   6.104  12.164   6.864 -0.0083  0.3141  0.2672
  966POPC   D2A14078   6.086  12.081   7.255 -0.3130 -0.0441  0.0157
  966POPC   C3A14079   6.061  12.285   7.675  0.1477 -0.2326 -0.0296
  966POPC   C4A14080   5.931  12.524   8.061 -0.4471 -0.2170  0.2437
  966POPC   C1B14081   6.568  12.164   7.067 -0.1741  0.1656 -0.0335
  966POPC   C2B14082   6.579  12.202   7.511  0.0404  0.0923  0.1953
  966POPC   C3B14083   6.807  12.533   7.717  0.1340 -0.1177 -0.0055
  966POPC   C4B14084   6.822  12.744   8.134 -0.0498  0.2465  0.4587
  967POPC   NC314085   9.312  18.027   5.285 -0.0896  0.3429 -0.0805
  967POPC   PO414086   9.173  17.824   5.703  0.2590  0.1264  0.0056
  967POPC   GL114087   9.165  17.918   6.135  0.2033  0.1333  0.3679
  967POPC   GL214088   9.027  18.186   6.172  0.0751 -0.1224  0.1549
  967POPC   C1A14089   9.359  17.763   6.581  0.2277 -0.2124 -0.0494
  967POPC   D2A14090   9.625  17.520   6.818 -0.0171  0.1984  0.0316
  967POPC   C3A14091   9.890  17.679   7.037 -0.4082 -0.1205 -0.1262
  967POPC   C4A14092  10.157  17.789   7.329 -0.1670  0.2061  0.1013
  967POPC   C1B14093   9.237  18.265   6.548  0.1170 -0.0443  0.1334
  967POPC   C2B14094   9.428  18.083   6.905  0.0371  0.2223 -0.0578
  967POPC   C3B14095   9.770  18.146   7.197 -0.4197  0.1103 -0.2204
  967POPC   C4B14096  10.110  18.329   7.467 -0.1088 -0.3076  0.0389
  968POPC   NC314097   3.079   2.521   5.554 -0.0323 -0.2953  0.0103
  968POPC   PO414098   2.848   2.588   5.968 -0.2042  0.2277  0.3061
  968POPC   GL114099   2.753   2.680   6.476 -0.0317  0.2262 -0.2048
  968POPC   GL214100   2.540   2.421   6.575 -0.2193  0.0485  0.0385
  968POPC   C1A14101   3.005   2.717   6.844  0.2335  0.3199  0.2530
  968POPC   D2A14102   2.988   2.819   7.265  0.2666 -0.1658  0.0659
  968POPC   C3A14103   2.753   3.022   7.524  0.2138  0.0112  0.2297
  968POPC   C4A14104   2.551   3.504   7.696  0.1791  0.0469 -0.0151
  968POPC   C1B14105   2.598   2.519   7.057 -0.2083 -0.0603 -0.0522
  968POPC   C2B14106   2.416   2.639   7.569  0.1170 -0.0832 -0.1178
  968POPC   C3B14107   2.309   2.992   7.838  0.1431 -0.1727  0.1299
  968POPC   C4B14108   2.123   3.356   8.004 -0.0854  0.0373 -0.1556
  969POPC   NC314109  14.507  13.454   4.863  0.0477 -0.0907  0.0086
  969POPC   PO414110  14.962  13.701   4.763  0.2879  0.1985  0.1995
  969POPC   GL114111  15.038  13.585   5.214 -0.1529 -0.0551  0.0664
  969POPC   GL214112  15.307  13.688   5.141  0.0993  0.0573  0.0615
  969POPC   C1A14113  14.913  13.857   5.605 -0.2322  0.1129 -0.0480
  969POPC   D2A14114  15.176  13.920   5.976 -0.0918  0.0088  0.0791
  969POPC   C3A14115  15.233  13.527   6.253 -0.1037  0.3001  0.1779
  969POPC   C4A14116  15.052  13.419   6.558 -0.1273  0.1410  0.1025
  969POPC   C1B14117  15.416  14.008   5.526  0.0283 -0.1489  0.3983
  969POPC   C2B14118  15.071  14.353   5.743  0.3097  0.0326 -0.1467
  969POPC   C3B14119  14.756  14.493   5.915 -0.0591 -0.2916  0.0208
  969POPC   C4B14120  14.602  14.619   6.326 -0.0636 -0.2477  0.3821
  970POPC   NC314121  16.649  12.750   4.982  0.3315  0.0061  0.2409
  970POPC   PO414122  16.437  13.028   5.254 -0.2289 -0.2618  0.2970
  970POPC   GL114123  16.425  13.044   5.654  0.1678  0.0173 -0.1289
  970POPC   GL214124  16.210  13.286   5.739 -0.2306 -0.0505  0.0780
  970POPC   C1A14125  16.389  12.702   5.949 -0.2598 -0.0980  0.0504
  970POPC   D2A14126  16.103  12.597   6.262 -0.2064 -0.1797 -0.0774
  970POPC   C3A14127  16.191  12.721   6.700 -0.1748  0.1078  0.1660
  970POPC   C4A14128  16.395  12.507   7.106  0.0491 -0.1101 -0.1042
  970POPC   C1B14129  16.210  13.161   6.115 -0.3838 -0.0297 -0.4089
  970POPC   C2B14130  16.502  13.078   6.360 -0.2635  0.2444  0.1237
  970POPC   C3B14131  16.525  13.227   6.734  0.2724 -0.0799 -0.0773
  970POPC   C4B14132  16.693  13.283   7.194 -0.3000 -0.0621 -0.1597
  971YOPC   NC314133   4.553   4.693   6.302  0.1161  0.3554  0.1238
  971YOPC   PO414134   4.193   4.586   6.320 -0.3089 -0.0857  0.2882
  971YOPC   GL114135   4.160   4.416   6.760  0.1877  0.0331 -0.3769
  971YOPC   GL214136   3.935   4.112   6.923 -0.1173  0.3127 -0.1996
  971YOPC   C1A14137   4.386   4.234   7.112  0.0879 -0.0822 -0.1589
  971YOPC   D2A14138   4.560   4.370   7.489 -0.0197  0.1376  0.0180
  971YOPC   C3A14139   4.379   4.267   7.851 -0.2917 -0.0584 -0.0282
  971YOPC   C4A14140   4.259   4.144   8.261 -0.2000 -0.0534  0.1800
  971YOPC   C1B14141   3.782   4.450   7.134 -0.0346  0.0128 -0.0074
  971YOPC   C2B14142   3.605   4.366   7.506  0.0607 -0.0376 -0.0004
  971YOPC   D3B14143   3.235   4.665   7.616  0.0841  0.1398  0.2647
  971YOPC   C4B14144   3.210   4.743   8.059  0.0254  0.1473 -0.0873
  972YOPC   NC314145  12.457  15.165   5.036 -0.0441  0.2198 -0.0883
  972YOPC   PO414146  12.974  15.255   5.136 -0.0230 -0.0669  0.0291
  972YOPC   GL114147  12.877  15.384   5.569  0.0613  0.3437 -0.0654
  972YOPC   GL214148  12.635  15.163   5.718 -0.2294 -0.3576 -0.0395
  972YOPC   C1A14149  12.944  15.697   5.804 -0.0150  0.0042  0.0098
  972YOPC   D2A14150  12.755  16.100   5.943 -0.0413 -0.1295  0.0578
  972YOPC   C3A14151  12.886  16.281   6.319  0.2778  0.2023 -0.0714
  972YOPC   C4A14152  13.236  16.433   6.658  0.2262  0.0134 -0.1185
  972YOPC   C1B14153  12.737  14.959   6.034  0.0725  0.1745 -0.1174
  972YOPC   C2B14154  12.630  15.089   6.444  0.2483  0.1007 -0.1384
  972YOPC   D3B14155  12.777  15.409   6.594 -0.2121  0.0286  0.1690
  972YOPC   C4B14156  12.557  15.643   6.755 -0.3379  0.2682 -0.1290
  973YOPC   NC314157  10.807   9.043   5.332  0.2620  0.1953 -0.0198
  973YOPC   PO414158  10.557   9.202   5.678  0.1984 -0.1354  0.3764
  973YOPC   GL114159  10.445   9.301   6.128 -0.5856  0.1160  0.2428
  973YOPC   GL214160  10.295   9.491   6.000  0.1230  0.2983 -0.1589
  973YOPC   C1A14161  10.615   9.087   6.520  0.0331  0.3381 -0.1640
  973YOPC   D2A14162  10.864   9.039   6.879 -0.1294 -0.1985 -0.0207
  973YOPC   C3A14163  10.657   8.762   7.182  0.2302 -0.1115  0.0440
  973YOPC   C4A14164  10.603   8.747   7.650  0.1961  0.2727  0.2149
  973YOPC   C1B14165  10.479   9.648   6.500  0.0003 -0.1309  0.0464
  973YOPC   C2B14166  10.701   9.727   6.852  0.0774 -0.0391  0.0446
  973YOPC   D3B14167  10.706   9.558   7.236  0.1061  0.3249 -0.1988
  973YOPC   C4B14168  10.903   9.189   7.352 -0.0367 -0.2318 -0.1962
  974YOPC   NC314169  15.555   9.051   5.845 -0.0940  0.1323  0.0022
  974YOPC   PO414170  15.411   9.453   5.764 -0.2010  0.4809 -0.1673
  974YOPC   GL114171  15.364   9.365   6.199  0.2191  0.0775  0.0364
  974YOPC   GL214172  15.196   9.683   6.198 -0.1005  0.3793 -0.0600
  974YOPC   C1A14173  15.280   9.144   6.639  0.0740 -0.4319  0.1695
  974YOPC   D2A14174  15.097   9.116   7.036 -0.0714  0.2774  0.2764
  974YOPC   C3A14175  14.671   9.292   7.181 -0.0555 -0.1839  0.1150
  974YOPC   C4A14176  14.339   9.080   7.182  0.3604  0.0662 -0.1501
  974YOPC   C1B14177  15.179   9.829   6.566 -0.2090 -0.1502 -0.2812
  974YOPC   C2B14178  15.102   9.639   6.989 -0.0095 -0.1542  0.1067
  974YOPC   D3B14179  14.928   9.888   7.337 -0.0437  0.0341  0.1648
  974YOPC   C4B14180  15.099  10.290   7.375 -0.1539  0.1147 -0.3352
  975YOPC   NC314181   4.256   2.367   6.437 -0.0444 -0.1077  0.0555
  975YOPC   PO414182   4.133   2.752   6.252  0.2116 -0.1656 -0.1019
  975YOPC   GL114183   4.051   2.816   6.577  0.3533 -0.0126  0.1247
  975YOPC   GL214184   3.953   3.114   6.656 -0.0402  0.1522  0.6106
  975YOPC   C1A14185   3.781   2.620   6.855 -0.0139  0.1230  0.0397
  975YOPC   D2A14186   3.417   2.393   6.875  0.2936 -0.0653 -0.1130
  975YOPC   C3A14187   3.302   2.352   7.238  0.0938  0.0274 -0.1027
  975YOPC   C4A14188   2.851   2.370   7.485 -0.3888  0.0861  0.2761
  975YOPC   C1B14189   3.877   3.154   7.122 -0.2188 -0.0696  0.0479
  975YOPC   C2B14190   3.951   3.289   7.582 -0.1774 -0.6987 -0.2083
  975YOPC   D3B14191   3.817   2.948   7.873  0.0637  0.3655  0.1532
  975YOPC   C4B14192   3.977   2.740   8.229  0.0022  0.2114  0.0603
  976YOPC   NC314193   9.650   1.896   5.609 -0.0154  0.0290  0.2877
  976YOPC   PO414194   9.157   2.108   5.559 -0.2723 -0.1156 -0.3190
  976YOPC   GL114195   9.338   2.061   5.973 -0.0458 -0.0572 -0.0442
  976YOPC   GL214196   9.488   2.353   6.134  0.1479 -0.1730  0.1804
  976YOPC   C1A14197   9.238   1.920   6.385 -0.0673  0.0776 -0.5980
  976YOPC   D2A14198   9.258   1.990   6.785 -0.2445  0.0248 -0.1381
  976YOPC   C3A14199   9.200   2.336   7.037 -0.0960  0.1750  0.1242
  976YOPC   C4A14200   9.062   2.723   7.278  0.2336  0.1914 -0.0190
  976YOPC   C1B14201   9.712   2.117   6.416  0.1068 -0.2506 -0.0183
  976YOPC   C2B14202   9.764   1.966   6.850  0.1317  0.1768 -0.0134
  976YOPC   D3B14203   9.554   2.085   7.268 -0.3491  0.1818 -0.2010
  976YOPC   C4B14204   9.271   2.376   7.637  0.0181 -0.5401  0.0401
  977YOPC   NC314205  16.277   4.064   5.504  0.1554  0.0938 -0.2413
  977YOPC   PO414206  16.589   3.690   5.646  0.3367 -0.1691 -0.3507
  977YOPC   GL114207  16.424   3.586   6.044  0.2338  0.1036 -0.0707
  977YOPC   GL214208  16.125   3.651   5.895 -0.1452 -0.4319 -0.1895
  977YOPC   C1A14209  16.350   3.508   6.535 -0.1794  0.1715  0.1808
  977YOPC   D2A14210  16.184   3.181   6.784 -0.1083 -0.2278  0.2623
  977YOPC   C3A14211  16.124   3.216   7.190  0.1998  0.2039 -0.0771
  977YOPC   C4A14212  15.962   3.268   7.546 -0.1832 -0.2434 -0.3832
  977YOPC   C1B14213  15.999   3.764   6.343 -0.1389 -0.1405  0.3487
  977YOPC   C2B14214  16.015   3.677   6.867  0.1040 -0.1817 -0.0480
  977YOPC   D3B14215  15.759   3.764   7.317  0.0054  0.0963  0.0376
  977YOPC   C4B14216  15.417   3.816   7.597 -0.1298 -0.2606  0.2485
  978YOPC   NC314217   5.377   7.736   5.917 -0.0266 -0.0973 -0.0209
  978YOPC   PO414218   5.659   7.738   6.220 -0.0633  0.2076 -0.1907
  978YOPC   GL114219   5.574   7.906   6.615  0.1298 -0.1823  0.0918
  978YOPC   GL214220   5.778   8.163   6.723  0.2670 -0.1525  0.0655
  978YOPC   C1A14221   5.331   8.063   6.990  0.2658  0.2740 -0.0450
  978YOPC   D2A14222   5.322   7.972   7.437  0.1705 -0.2284 -0.0920
  978YOPC   C3A14223   5.597   7.933   7.682 -0.3729 -0.2253 -0.1297
  978YOPC   C4A14224   5.490   7.667   8.096 -0.0583  0.0778 -0.2672
  978YOPC   C1B14225   5.841   8.022   7.159  0.1373  0.0934 -0.2820
  978YOPC   C2B14226   6.161   7.885   7.442  0.0196  0.2512  0.2727
  978YOPC   D3B14227   6.398   8.116   7.756 -0.2246 -0.0725  0.0418
  978YOPC   C4B14228   6.298   8.646   7.724  0.3327  0.0284  0.1381
  979YOPC   NC314229   1.087  15.424   5.325 -0.0913 -0.1524 -0.0002
  979YOPC   PO414230   0.936  15.758   5.614 -0.1698 -0.0712  0.0577
  979YOPC   GL114231   0.670  15.695   5.904 -0.0160  0.0446 -0.2535
  979YOPC   GL214232   0.840  15.716   6.184  0.2310 -0.1183 -0.1237
  979YOPC   C1A14233   0.428  15.555   6.305 -0.3906 -0.1939 -0.0592
  979YOPC   D2A14234   0.244  15.473   6.656  0.0116  0.1327  0.0853
  979YOPC   C3A14235   0.022  15.699   6.986 -0.0355  0.1712 -0.0489
  979YOPC   C4A14236  -0.191  15.647   7.346 -0.0184  0.0450  0.0821
  979YOPC   C1B14237   1.086  15.983   6.382  0.2384 -0.0153 -0.1736
  979YOPC   C2B14238   1.183  16.308   6.688 -0.3103  0.0723  0.1647
  979YOPC   D3B14239   1.163  16.222   7.086 -0.1225 -0.0317 -0.0234
  979YOPC   C4B14240   1.088  15.938   7.520  0.0054 -0.0230 -0.1338
  980YOPC   NC314241   0.838   6.902   5.929  0.1983  0.0274 -0.2892
  980YOPC   PO414242   0.424   6.817   5.678 -0.3345 -0.0449  0.0318
  980YOPC   GL114243   0.302   6.858   6.142  0.1764  0.1942 -0.1040
  980YOPC   GL214244   0.279   7.218   6.136  0.0059  0.3077  0.0112
  980YOPC   C1A14245   0.231   6.662   6.573  0.0078  0.2569  0.2007
  980YOPC   D2A14246   0.020   6.723   6.963  0.1603 -0.1218 -0.0453
  980YOPC   C3A14247   0.192   6.940   7.348  0.0345  0.0558 -0.0695
  980YOPC   C4A14248   0.200   7.079   7.752 -0.1595  0.1697 -0.1624
  980YOPC   C1B14249   0.547   7.098   6.507  0.0553 -0.1160 -0.2785
  980YOPC   C2B14250   0.478   7.015   6.894 -0.0698  0.0761 -0.2165
  980YOPC   D3B14251   0.885   6.956   6.967 -0.0063 -0.0618  0.2015
  980YOPC   C4B14252   1.166   6.869   6.777 -0.3577 -0.3077  0.0960
  981YOPC   NC314253  17.728  12.202   4.880  0.1937 -0.0793 -0.0746
  981YOPC   PO414254  18.172  12.117   5.166  0.1311 -0.1522 -0.1197
  981YOPC   GL114255  17.979  12.277   5.531 -0.0858  0.0035  0.0427
  981YOPC   GL214256  18.009  12.601   5.502 -0.2276  0.1462  0.1676
  981YOPC   C1A14257  17.598  12.106   5.694  0.0556 -0.0125 -0.0263
  981YOPC   D2A14258  17.365  11.728   5.746 -0.0710 -0.1265  0.0449
  981YOPC   C3A14259  17.144  11.537   6.134 -0.1807  0.1464  0.5930
  981YOPC   C4A14260  16.747  11.508   6.330 -0.1204  0.0420  0.0436
  981YOPC   C1B14261  17.591  12.669   5.675 -0.3547  0.0165  0.2059
  981YOPC   C2B14262  17.223  12.481   5.788 -0.1229  0.2716 -0.2427
  981YOPC   D3B14263  17.209  12.162   6.024  0.1443  0.4478  0.0966
  981YOPC   C4B14264  17.510  11.818   6.247 -0.1372  0.0651  0.1922
  982YOPC   NC314265   7.839   5.695   6.156 -0.0889 -0.3071 -0.0027
  982YOPC   PO414266   8.076   5.496   6.295 -0.1357 -0.2131 -0.1567
  982YOPC   GL114267   8.188   5.378   6.703 -0.0703  0.0720  0.4319
  982YOPC   GL214268   8.538   5.297   6.890  0.0756  0.0648  0.2246
  982YOPC   C1A14269   8.069   5.279   7.187  0.0803 -0.3196 -0.3916
  982YOPC   D2A14270   7.949   4.893   7.467  0.0245 -0.0889 -0.0300
  982YOPC   C3A14271   8.176   4.761   7.690  0.2515  0.0447 -0.1036
  982YOPC   C4A14272   8.187   4.533   7.998 -0.1191  0.0698 -0.1059
  982YOPC   C1B14273   8.799   5.394   7.241 -0.1959  0.0481 -0.5250
  982YOPC   C2B14274   8.864   5.530   7.643  0.1758 -0.2303  0.0135
  982YOPC   D3B14275   8.763   5.275   8.028  0.2836 -0.1039  0.1298
  982YOPC   C4B14276   8.361   5.052   8.187 -0.0298 -0.0818 -0.2226
  983YOPC   NC314277  14.366  15.394   4.902  0.4692  0.0378  0.0639
  983YOPC   PO414278  14.487  15.757   5.137  0.2391 -0.2219  0.3451
  983YOPC   GL114279  14.744  15.869   5.495  0.1441 -0.1122  0.0647
  983YOPC   GL214280  14.539  15.740   5.682  0.2348 -0.1690  0.2012
  983YOPC   C1A14281  14.999  15.904   5.854 -0.0202  0.0529  0.2425
  983YOPC   D2A14282  15.245  15.969   6.247  0.1272  0.2055  0.0914
  983YOPC   C3A14283  15.206  15.758   6.566  0.1482  0.5150  0.0965
  983YOPC   C4A14284  14.865  15.747   6.931 -0.0451  0.0008 -0.0154
  983YOPC   C1B14285  14.587  16.049   6.146  0.1393  0.0040 -0.0359
  983YOPC   C2B14286  14.739  16.041   6.547 -0.0740 -0.2015 -0.2056
  983YOPC   D3B14287  14.626  16.304   6.850  0.1561  0.3928  0.0152
  983YOPC   C4B14288  14.313  16.568   6.895 -0.2228  0.1270  0.3847
  984YOPC   NC314289   2.206   7.138   5.767 -0.2065  0.2513 -0.0376
  984YOPC   PO414290   2.327   7.400   6.154 -0.0461  0.0945  0.2741
  984YOPC   GL114291   2.340   7.771   6.359 -0.2860  0.0127 -0.0866
  984YOPC   GL214292   1.963   7.815   6.305  0.1151 -0.0867 -0.3586
  984YOPC   C1A14293   2.384   7.899   6.749 -0.3436 -0.0412  0.1753
  984YOPC   D2A14294   2.380   7.807   7.082 -0.0292  0.1802 -0.1842
  984YOPC   C3A14295   2.038   7.784   7.381  0.2074 -0.1542  0.2300
  984YOPC   C4A14296   1.636   7.878   7.673  0.1287 -0.1958  0.0529
  984YOPC   C1B14297   1.930   7.877   6.715 -0.2150  0.0885  0.0747
  984YOPC   C2B14298   1.673   7.814   7.018 -0.1041 -0.1455 -0.0466
  984YOPC   D3B14299   1.536   8.105   7.238 -0.1097 -0.0113  0.1131
  984YOPC   C4B14300   1.440   8.325   7.618  0.0437 -0.1045 -0.1143
  985YOPC   NC314301   0.757  10.724   5.465 -0.1497 -0.4340  0.0088
  985YOPC   PO414302   0.950  10.418   5.725 -0.3748 -0.1676 -0.1763
  985YOPC   GL114303   0.709  10.644   6.097  0.0721 -0.5286 -0.3694
  985YOPC   GL214304   0.975  10.741   6.294 -0.0820 -0.1043 -0.0776
  985YOPC   C1A14305   0.307  10.662   6.321  0.2313  0.2296  0.1085
  985YOPC   D2A14306   0.068  10.322   6.469  0.0320 -0.2777 -0.0120
  985YOPC   C3A14307  -0.314  10.383   6.379  0.0123 -0.1080 -0.0803
  985YOPC   C4A14308  -0.652  10.674   6.327 -0.1049 -0.0463 -0.0641
  985YOPC   C1B14309   0.749  10.616   6.608  0.0053  0.0268  0.2079
  985YOPC   C2B14310   0.374  10.672   6.821 -0.1777 -0.0249 -0.2596
  985YOPC   D3B14311   0.316  10.665   7.300  0.4146  0.2831 -0.0231
  985YOPC   C4B14312   0.296  10.826   7.633 -0.1647 -0.2319  0.0037
  986YOPC   NC314313   7.630   4.874   5.611 -0.1324 -0.1898  0.0710
  986YOPC   PO414314   7.472   4.830   5.982  0.0035 -0.1225  0.0151
  986YOPC   GL114315   7.479   5.030   6.406  0.0910  0.0714  0.0063
  986YOPC   GL214316   7.766   5.110   6.358  0.0055 -0.0735  0.0263
  986YOPC   C1A14317   7.309   5.014   6.723  0.0673 -0.2040 -0.1845
  986YOPC   D2A14318   7.068   5.277   7.042  0.1411  0.0713 -0.3659
  986YOPC   C3A14319   7.110   5.070   7.392 -0.1269 -0.0665  0.0103
  986YOPC   C4A14320   7.344   4.882   7.477 -0.2446  0.0781 -0.7514
  986YOPC   C1B14321   7.713   5.248   6.886  0.1541 -0.0519 -0.1214
  986YOPC   C2B14322   7.596   5.348   7.299  0.1367 -0.1853  0.1252
  986YOPC   D3B14323   7.869   5.399   7.611  0.2621  0.1554  0.0573
  986YOPC   C4B14324   8.190   5.488   7.977  0.2264  0.1403 -0.3305
  987YOPC   NC314325   9.816  16.111   5.734  0.0130 -0.2841  0.0025
  987YOPC   PO414326  10.156  15.880   5.963  0.2072  0.0080 -0.0861
  987YOPC   GL114327  10.063  16.239   6.223  0.0817  0.0130  0.2398
  987YOPC   GL214328  10.105  16.083   6.538  0.0848 -0.1825 -0.0018
  987YOPC   C1A14329  10.058  16.707   6.195 -0.0725  0.1555  0.1877
  987YOPC   D2A14330  10.454  16.985   6.216  0.0596 -0.3150 -0.0328
  987YOPC   C3A14331  10.869  16.663   6.110  0.3037 -0.2887 -0.2344
  987YOPC   C4A14332  11.202  16.550   5.783  0.1725 -0.0435 -0.0752
  987YOPC   C1B14333  10.458  16.075   6.816  0.0415 -0.0566 -0.0508
  987YOPC   C2B14334  10.786  15.859   6.899 -0.2786  0.1692 -0.1763
  987YOPC   D3B14335  10.967  15.839   7.288  0.0728 -0.0148 -0.0188
  987YOPC   C4B14336  10.939  16.181   7.451  0.1794  0.1760 -0.2560
  988YOPC   NC314337   6.512  14.863   5.875 -0.3933 -0.1159 -0.1111
  988YOPC   PO414338   6.571  15.352   5.989  0.0033  0.1965  0.2097
  988YOPC   GL114339   6.445  15.326   6.395 -0.1833 -0.1900 -0.1438
  988YOPC   GL214340   6.424  14.924   6.392  0.0409 -0.3127  0.1819
  988YOPC   C1A14341   6.353  15.518   6.829  0.0815 -0.1759  0.1944
  988YOPC   D2A14342   6.311  15.610   7.231  0.1818  0.5146 -0.0599
  988YOPC   C3A14343   6.458  15.780   7.611  0.5148 -0.0291  0.2073
  988YOPC   C4A14344   6.586  15.444   8.005 -0.1619  0.2246 -0.3210
  988YOPC   C1B14345   6.239  14.591   6.596 -0.1777  0.1984 -0.0479
  988YOPC   C2B14346   5.984  14.460   6.862  0.0985 -0.0554 -0.0334
  988YOPC   D3B14347   6.248  14.234   7.140  0.1243 -0.0084  0.1160
  988YOPC   C4B14348   6.618  14.146   7.283 -0.2489 -0.0089  0.1037
  989YOPC   NC314349   1.949  11.602   6.009 -0.0321  0.2595 -0.0562
  989YOPC   PO414350   2.088  12.057   5.943 -0.2164  0.2923 -0.3381
  989YOPC   GL114351   1.925  12.216   6.284 -0.0548 -0.1847 -0.1477
  989YOPC   GL214352   1.652  12.235   6.296 -0.1640 -0.1295 -0.0274
  989YOPC   C1A14353   2.179  12.188   6.701  0.2545  0.2695  0.0079
  989YOPC   D2A14354   2.084  12.238   7.111 -0.0083  0.2754  0.0455
  989YOPC   C3A14355   1.673  12.319   7.458  0.0451  0.3493  0.1339
  989YOPC   C4A14356   1.427  12.460   7.835 -0.0220  0.3033  0.0245
  989YOPC   C1B14357   1.678  12.135   6.787 -0.1643 -0.1209  0.0214
  989YOPC   C2B14358   1.697  11.788   7.007  0.0063 -0.0121  0.0270
  989YOPC   D3B14359   1.780  11.346   6.857 -0.3439  0.1578  0.1070
  989YOPC   C4B14360   1.603  11.008   6.745 -0.2981  0.0355  0.1019
  990YOPC   NC314361  14.438   5.160   5.758  0.3155 -0.3093  0.1769
  990YOPC   PO414362  13.938   5.317   5.750 -0.1720 -0.2681 -0.1278
  990YOPC   GL114363  14.107   5.210   6.240  0.1243  0.4120  0.0354
  990YOPC   GL214364  14.044   5.410   6.466  0.2783 -0.1597  0.3061
  990YOPC   C1A14365  14.029   4.764   6.465 -0.0735  0.0808  0.0749
  990YOPC   D2A14366  13.689   4.385   6.459  0.0337  0.1622  0.2354
  990YOPC   C3A14367  13.627   4.137   6.910  0.1012 -0.3356  0.0455
  990YOPC   C4A14368  13.623   4.199   7.306  0.0900 -0.4569  0.0407
  990YOPC   C1B14369  14.177   5.188   6.795 -0.3668 -0.1159  0.2072
  990YOPC   C2B14370  14.272   4.704   6.935  0.0353  0.1567  0.0852
  990YOPC   D3B14371  14.110   4.295   6.763 -0.0071 -0.0705 -0.3043
  990YOPC   C4B14372  14.064   3.863   7.006 -0.1688 -0.3389 -0.0946
  991YOPC   NC314373   3.022  15.716   5.844  0.0347  0.1643 -0.4850
  991YOPC   PO414374   2.915  15.467   6.183  0.3020  0.0880  0.2694
  991YOPC   GL114375   3.156  15.344   6.615  0.0514  0.1260 -0.2069
  991YOPC   GL214376   3.265  15.640   6.816 -0.2740 -0.2451 -0.0512
  991YOPC   C1A14377   3.235  15.198   7.087  0.5553 -0.1039  0.1771
  991YOPC   D2A14378   2.972  15.308   7.380  0.1825 -0.2438  0.3456
  991YOPC   C3A14379   2.787  14.910   7.670  0.0855 -0.2597  0.0734
  991YOPC   C4A14380   2.672  14.874   8.065  0.0477 -0.2775 -0.0433
  991YOPC   C1B14381   3.232  15.941   7.163  0.0857 -0.1193 -0.0323
  991YOPC   C2B14382   2.966  16.120   7.532  0.1343  0.1367  0.2217
  991YOPC   D3B14383   3.209  16.193   7.950  0.1207  0.2015  0.1913
  991YOPC   C4B14384   3.502  16.187   8.332  0.1728 -0.0546 -0.1517
  992YOPC   NC314385  17.867   6.900   5.137  0.2526 -0.2003  0.0391
  992YOPC   PO414386  18.089   6.816   5.523 -0.2005 -0.1933 -0.1577
  992YOPC   GL114387  18.078   6.823   5.939 -0.0235 -0.2722 -0.1640
  992YOPC   GL214388  18.315   6.850   6.173  0.0450  0.2426  0.0300
  992YOPC   C1A14389  17.826   7.053   6.335 -0.3035  0.1331 -0.2114
  992YOPC   D2A14390  17.627   6.861   6.714  0.0683  0.6753  0.1210
  992YOPC   C3A14391  17.292   6.750   6.622 -0.0697 -0.0792 -0.2909
  992YOPC   C4A14392  17.192   6.434   6.343 -0.1949 -0.2877  0.2427
  992YOPC   C1B14393  18.128   6.711   6.630  0.1066 -0.2353  0.0440
  992YOPC   C2B14394  18.037   6.483   7.034  0.1611 -0.0019 -0.0069
  992YOPC   D3B14395  18.349   6.418   7.385  0.1294 -0.2294 -0.1131
  992YOPC   C4B14396  18.744   6.540   7.658  0.1424 -0.1251  0.1070
  993YOPC   NC314397  14.226   7.006   5.917  0.1509  0.1174 -0.1204
  993YOPC   PO414398  13.970   6.608   6.072  0.1583  0.0613 -0.0390
  993YOPC   GL114399  14.422   6.595   6.335 -0.0816 -0.1252  0.0092
  993YOPC   GL214400  14.589   6.840   6.274 -0.3827  0.0689 -0.1159
  993YOPC   C1A14401  14.338   6.525   6.749 -0.1324 -0.0281 -0.2597
  993YOPC   D2A14402  13.995   6.345   6.803 -0.1868 -0.2643  0.0282
  993YOPC   C3A14403  14.193   5.849   6.878 -0.0421  0.2550  0.0953
  993YOPC   C4A14404  14.350   5.591   7.165  0.1426  0.3627  0.2218
  993YOPC   C1B14405  14.511   6.981   6.725 -0.2102 -0.1588 -0.0441
  993YOPC   C2B14406  14.163   7.131   6.972  0.0371  0.0663 -0.2166
  993YOPC   D3B14407  13.917   6.800   7.144 -0.0346 -0.0073 -0.0578
  993YOPC   C4B14408  13.640   6.810   7.504 -0.0853 -0.0569  0.0930
  994YOPC   NC314409  11.224   0.974   5.409  0.3925  0.1974 -0.2101
  994YOPC   PO414410  11.586   1.162   5.427 -0.1163 -0.2099 -0.1592
  994YOPC   GL114411  11.337   1.274   5.831  0.2816  0.2063  0.0664
  994YOPC   GL214412  11.111   1.103   5.924  0.1254  0.1319 -0.1080
  994YOPC   C1A14413  11.540   1.550   6.113 -0.0223  0.1380  0.1248
  994YOPC   D2A14414  11.875   1.685   6.297  0.2913 -0.0106  0.0241
  994YOPC   C3A14415  11.995   1.277   6.490  0.1390  0.0728  0.2364
  994YOPC   C4A14416  12.096   0.813   6.445  0.0614  0.0839 -0.2516
  994YOPC   C1B14417  11.198   1.266   6.313  0.2040 -0.1093 -0.2196
  994YOPC   C2B14418  11.133   1.049   6.676  0.1132  0.0408 -0.1088
  994YOPC   D3B14419  10.928   1.093   7.075 -0.2107  0.2911 -0.0645
  994YOPC   C4B14420  10.865   0.835   7.434 -0.0651 -0.0904 -0.2224
  995YOPC   NC314421  14.324   7.750   5.914  0.0130  0.1476  0.4030
  995YOPC   PO414422  14.472   7.434   5.671  0.1630 -0.1178 -0.1645
  995YOPC   GL114423  14.653   7.373   6.149  0.3527  0.0848 -0.0170
  995YOPC   GL214424  14.416   7.342   6.317 -0.3659 -0.0440 -0.3616
  995YOPC   C1A14425  14.800   7.724   6.369 -0.4687  0.0896  0.1571
  995YOPC   D2A14426  14.821   8.160   6.413  0.0593  0.2277 -0.3119
  995YOPC   C3A14427  14.637   8.411   6.756 -0.2747 -0.3133 -0.0574
  995YOPC   C4A14428  14.703   8.651   7.206  0.0904  0.0301  0.2164
  995YOPC   C1B14429  14.427   7.594   6.685  0.2616  0.1888  0.2213
  995YOPC   C2B14430  14.415   7.644   7.129 -0.0678 -0.1017 -0.2863
  995YOPC   D3B14431  14.776   7.785   7.321 -0.2969 -0.1083 -0.3673
  995YOPC   C4B14432  14.983   8.200   7.235 -0.0866 -0.2476  0.2272
  996YOPC   NC314433  14.219  17.159   5.275  0.0608  0.1664  0.0572
  996YOPC   PO414434  13.893  17.382   5.391  0.5425  0.0208 -0.2077
  996YOPC   GL114435  13.966  17.191   5.785  0.1080 -0.2780  0.1561
  996YOPC   GL214436  14.101  16.852   5.767 -0.2885 -0.2366 -0.3671
  996YOPC   C1A14437  14.123  17.103   6.189  0.2233  0.1294  0.3413
  996YOPC   D2A14438  14.189  16.934   6.587 -0.0671  0.1775  0.0920
  996YOPC   C3A14439  13.939  16.875   6.893  0.0736 -0.3835 -0.0573
  996YOPC   C4A14440  13.918  16.683   7.209  0.0992  0.1418 -0.2097
  996YOPC   C1B14441  14.168  16.556   6.095  0.2280  0.0691 -0.1587
  996YOPC   C2B14442  14.217  16.360   6.454 -0.4121  0.0387 -0.1955
  996YOPC   D3B14443  14.264  15.935   6.643 -0.1651  0.2208  0.2951
  996YOPC   C4B14444  14.423  15.847   7.108  0.0687  0.0908  0.0460
  997YOPC   NC314445  10.731   7.934   5.631  0.0639 -0.0832 -0.0364
  997YOPC   PO414446  10.497   7.868   5.930 -0.1469 -0.1688  0.2779
  997YOPC   GL114447  10.552   7.769   6.389  0.2298  0.1134  0.1245
  997YOPC   GL214448  10.243   7.656   6.456  0.0945  0.0593  0.1067
  997YOPC   C1A14449  10.773   7.403   6.493  0.1809 -0.1583 -0.1944
  997YOPC   D2A14450  11.181   7.455   6.642 -0.0400  0.5825  0.1372
  997YOPC   C3A14451  11.379   7.351   6.991 -0.1849  0.1786 -0.4032
  997YOPC   C4A14452  11.708   7.517   7.269 -0.2081 -0.2431 -0.0627
  997YOPC   C1B14453  10.428   7.523   6.894  0.1125  0.1455 -0.0713
  997YOPC   C2B14454  10.827   7.544   7.048  0.2013 -0.2017 -0.3202
  997YOPC   D3B14455  11.065   7.418   7.399 -0.1603 -0.1037  0.2038
  997YOPC   C4B14456  11.023   6.983   7.754  0.0327  0.0601 -0.2416
  998YOPC   NC314457  11.858  15.885   4.741 -0.0574 -0.0208  0.1461
  998YOPC   PO414458  12.158  16.037   5.048  0.0338 -0.2705 -0.0686
  998YOPC   GL114459  12.131  16.220   5.404  0.1279  0.0452  0.1005
  998YOPC   GL214460  12.245  16.095   5.628 -0.4055 -0.0122  0.1115
  998YOPC   C1A14461  11.871  16.324   5.773 -0.2627 -0.0879  0.1984
  998YOPC   D2A14462  11.627  16.266   6.140 -0.3005 -0.1427  0.0834
  998YOPC   C3A14463  11.782  16.398   6.469 -0.0350  0.0326 -0.0605
  998YOPC   C4A14464  11.878  16.824   6.623  0.0595 -0.3096 -0.0195
  998YOPC   C1B14465  12.400  15.747   5.765 -0.1342 -0.0889  0.1424
  998YOPC   C2B14466  12.576  15.647   6.224  0.0868  0.4020  0.2809
  998YOPC   D3B14467  12.427  16.009   6.453  0.0719  0.0537 -0.2441
  998YOPC   C4B14468  12.145  16.226   6.721  0.0851 -0.0439 -0.3529
  999YOPC   NC314469   2.666   7.019   6.219  0.0433  0.1067 -0.1774
  999YOPC   PO414470   2.672   6.556   6.161  0.2253  0.0358  0.0397
  999YOPC   GL114471   2.730   6.573   6.559 -0.2214  0.3812  0.5201
  999YOPC   GL214472   2.998   6.433   6.704  0.2703 -0.1658  0.0979
  999YOPC   C1A14473   2.713   6.850   6.889 -0.0408  0.1307  0.2503
  999YOPC   D2A14474   2.670   6.916   7.210  0.0147  0.2787 -0.2893
  999YOPC   C3A14475   2.909   6.793   7.562  0.0283 -0.2684  0.1228
  999YOPC   C4A14476   3.163   6.682   7.870  0.1930 -0.1881  0.0963
  999YOPC   C1B14477   3.012   6.521   7.105 -0.0473  0.0175  0.0939
  999YOPC   C2B14478   3.156   6.274   7.473 -0.1188 -0.1944  0.2889
  999YOPC   D3B14479   3.234   5.902   7.542 -0.3138  0.0261  0.3137
  999YOPC   C4B14480   3.046   5.550   7.743 -0.0312  0.3514  0.1358
 1000YOPC   NC314481  15.396   6.117   5.780  0.2193 -0.3170  0.1767
 1000YOPC   PO414482  15.747   6.390   5.870 -0.2736 -0.0697  0.0724
 1000YOPC   GL114483  15.790   6.425   6.258  0.1588  0.1248  0.0809
 1000YOPC   GL214484  15.942   6.661   6.276  0.1769 -0.1479 -0.0240
 1000YOPC   C1A14485  15.830   6.276   6.746 -0.0770 -0.1836 -0.1297
 1000YOPC   D2A14486  15.692   6.189   7.200 -0.1777  0.0640 -0.1358
 1000YOPC   C3A14487  15.985   5.851   7.459 -0.1454 -0.2677 -0.1154
 1000YOPC   C4A14488  16.322   5.799   7.659  0.1695  0.2212 -0.0824
 1000YOPC   C1B14489  16.187   6.737   6.653  0.0526 -0.1794 -0.0357
 1000YOPC   C2B14490  15.961   6.647   7.089  0.0970  0.1278 -0.2503
 1000YOPC   D3B14491  15.551   6.609   7.014  0.1988 -0.3622 -0.0551
 1000YOPC   C4B14492  15.342   6.592   7.330 -0.1008  0.3929 -0.0820
 1001YOPC   NC314493   1.391   3.291   5.822 -0.3265 -0.2721  0.1396
 1001YOPC   PO414494   1.117   3.533   6.160  0.0295  0.5144 -0.0640
 1001YOPC   GL114495   1.099   3.265   6.432 -0.1797  0.0582  0.2927
 1001YOPC   GL214496   1.387   3.228   6.430  0.5511  0.0180 -0.0947
 1001YOPC   C1A14497   1.306   3.152   6.897  0.0493  0.2531 -0.0442
 1001YOPC   D2A14498   1.313   2.792   7.260 -0.0779 -0.0600 -0.1560
 1001YOPC   C3A14499   1.126   2.410   7.251 -0.0252 -0.0255  0.2313
 1001YOPC   C4A14500   0.824   2.249   7.016  0.0297  0.0238 -0.0615
 1001YOPC   C1B14501   1.100   3.603   6.777 -0.2777  0.1624 -0.0559
 1001YOPC   C2B14502   0.992   3.419   7.180  0.2370 -0.1086  0.1619
 1001YOPC   D3B14503   1.150   3.222   7.585 -0.3156  0.1211 -0.1174
 1001YOPC   C4B14504   1.368   2.882   7.779 -0.0130 -0.0504 -0.0448
 1002YOPC   NC314505  17.549   5.065   5.545  0.0124 -0.0090  0.0556
 1002YOPC   PO414506  17.253   4.750   5.619 -0.0083 -0.1678  0.1859
 1002YOPC   GL114507  17.356   4.680   6.012  0.0837 -0.2030 -0.0664
 1002YOPC   GL214508  17.411   4.395   6.143  0.1455  0.0585  0.3253
 1002YOPC   C1A14509  17.263   4.696   6.474  0.2500  0.0719  0.0619
 1002YOPC   D2A14510  16.932   4.678   6.724  0.4453 -0.1673 -0.0775
 1002YOPC   C3A14511  16.977   4.729   7.143  0.1205  0.1790  0.1366
 1002YOPC   C4A14512  16.937   4.697   7.537  0.4778  0.0677  0.0886
 1002YOPC   C1B14513  17.304   4.222   6.598 -0.0083 -0.1368  0.1117
 1002YOPC   C2B14514  17.180   3.825   6.750 -0.1238 -0.2311  0.0176
 1002YOPC   D3B14515  16.939   3.765   7.207  0.0887  0.0747  0.1667
 1002YOPC   C4B14516  16.989   3.851   7.668 -0.1179  0.1697  0.2893
 1003YOPC   NC314517   9.221  11.914   5.962 -0.0556  0.4263 -0.2401
 1003YOPC   PO414518   9.566  11.889   5.755  0.0280  0.2826  0.0952
 1003YOPC   GL114519   9.752  11.714   6.143  0.0043 -0.1549 -0.1207
 1003YOPC   GL214520   9.993  11.518   6.248 -0.0321  0.2256 -0.2651
 1003YOPC   C1A14521   9.824  11.993   6.542 -0.1228 -0.0108  0.1416
 1003YOPC   D2A14522  10.235  11.881   6.639  0.0075  0.0115 -0.3205
 1003YOPC   C3A14523  10.184  11.804   7.122  0.2915  0.0925 -0.0420
 1003YOPC   C4A14524  10.298  11.644   7.447  0.2177  0.1637 -0.1859
 1003YOPC   C1B14525  10.112  11.236   6.627  0.3327 -0.0954  0.1415
 1003YOPC   C2B14526  10.085  11.108   7.017  0.3276  0.1702 -0.1516
 1003YOPC   D3B14527   9.918  10.824   7.329  0.1320  0.2125  0.0623
 1003YOPC   C4B14528   9.623  10.516   7.536 -0.1186  0.3397  0.0086
 1004YOPC   NC314529  17.554   9.718   5.741  0.3509 -0.0752 -0.1982
 1004YOPC   PO414530  17.177   9.956   5.638 -0.1304  0.3858 -0.0929
 1004YOPC   GL114531  17.216  10.210   5.964  0.1714  0.0968  0.3215
 1004YOPC   GL214532  16.864  10.198   6.146  0.0733  0.3124 -0.0926
 1004YOPC   C1A14533  17.259  10.447   6.442 -0.5218 -0.0164  0.1104
 1004YOPC   D2A14534  17.244  10.655   6.866  0.0587 -0.0962  0.1564
 1004YOPC   C3A14535  17.461  10.573   7.190  0.0535  0.1202 -0.0674
 1004YOPC   C4A14536  17.434  10.688   7.607  0.1554 -0.0799 -0.0446
 1004YOPC   C1B14537  16.727   9.980   6.543 -0.0300 -0.2860 -0.0253
 1004YOPC   C2B14538  16.729   9.697   6.848 -0.1494  0.2132  0.3287
 1004YOPC   D3B14539  17.081   9.473   7.004  0.4233  0.1675 -0.1528
 1004YOPC   C4B14540  17.395   9.653   7.222  0.0329  0.0349 -0.2139
 1005YOPC   NC314541  14.551   9.336   5.214  0.0179  0.1924  0.1218
 1005YOPC   PO414542  14.603   9.620   5.551  0.0486 -0.1542 -0.3276
 1005YOPC   GL114543  14.345   9.617   5.789  0.0974 -0.1451 -0.0561
 1005YOPC   GL214544  14.309   9.326   5.968 -0.0824  0.1049  0.2457
 1005YOPC   C1A14545  14.085   9.813   6.109 -0.1500  0.2536  0.1227
 1005YOPC   D2A14546  14.140   9.879   6.516 -0.2156  0.0519  0.1063
 1005YOPC   C3A14547  13.908   9.938   6.864  0.0133  0.2220  0.1439
 1005YOPC   C4A14548  14.137  10.319   7.115  0.1549  0.1252 -0.4214
 1005YOPC   C1B14549  14.256   9.378   6.475  0.1249 -0.1892  0.1416
 1005YOPC   C2B14550  14.194   9.502   6.908 -0.2228 -0.2033 -0.1211
 1005YOPC   D3B14551  14.406   9.768   7.217 -0.1430 -0.0294  0.1984
 1005YOPC   C4B14552  14.579   9.642   7.628 -0.1304  0.0142 -0.0795
 1006YOPC   NC314553   5.309   1.649   6.482  0.3250  0.3338  0.3035
 1006YOPC   PO414554   4.855   1.449   6.427 -0.1219  0.0769 -0.0523
 1006YOPC   GL114555   4.581   1.526   6.760  0.3363 -0.0452  0.2892
 1006YOPC   GL214556   4.542   1.224   7.022 -0.1293  0.1920  0.2712
 1006YOPC   C1A14557   4.456   1.728   7.219  0.0092  0.0155 -0.1482
 1006YOPC   D2A14558   4.385   2.066   7.552  0.0272  0.0015  0.1633
 1006YOPC   C3A14559   4.718   2.088   7.746  0.1902  0.2671 -0.4568
 1006YOPC   C4A14560   4.896   1.713   7.917 -0.0692 -0.0046  0.2523
 1006YOPC   C1B14561   4.206   1.351   7.312  0.3492 -0.0947  0.0213
 1006YOPC   C2B14562   4.010   1.386   7.655 -0.2631 -0.2118  0.0214
 1006YOPC   D3B14563   4.236   1.656   7.698 -0.0024  0.1355  0.3748
 1006YOPC   C4B14564   4.434   1.661   7.993  0.1100 -0.5841 -0.0504
 1007YOPC   NC314565   1.421   2.329   5.864  0.3510 -0.1063 -0.0746
 1007YOPC   PO414566   1.061   2.635   5.749 -0.3386  0.0461 -0.1919
 1007YOPC   GL114567   1.026   2.467   6.182  0.0993  0.3487 -0.1459
 1007YOPC   GL214568   0.977   2.793   6.407  0.1402 -0.2049  0.1362
 1007YOPC   C1A14569   0.966   2.147   6.483 -0.0478  0.2276  0.5565
 1007YOPC   D2A14570   1.155   1.925   6.764 -0.2286 -0.0255 -0.1678
 1007YOPC   C3A14571   1.397   1.990   7.188 -0.0685  0.3520 -0.3992
 1007YOPC   C4A14572   1.338   1.990   7.649 -0.1883  0.3678 -0.1645
 1007YOPC   C1B14573   1.111   2.589   6.803 -0.3246  0.1475  0.0434
 1007YOPC   C2B14574   1.484   2.394   6.905  0.0749  0.0221 -0.3676
 1007YOPC   D3B14575   1.634   2.456   7.248 -0.0056  0.2313 -0.0323
 1007YOPC   C4B14576   1.536   2.421   7.561  0.1141 -0.5580 -0.0988
 1008YOPC   NC314577   0.048  14.623   5.852  0.0838  0.0792 -0.2443
 1008YOPC   PO414578  -0.005  14.190   5.624 -0.3206  0.2324  0.0250
 1008YOPC   GL114579   0.016  14.119   6.116  0.1412 -0.2361  0.1825
 1008YOPC   GL214580   0.340  14.077   6.308  0.2021 -0.1818  0.0910
 1008YOPC   C1A14581  -0.151  14.062   6.512 -0.2053 -0.0980 -0.0063
 1008YOPC   D2A14582  -0.175  14.131   7.005  0.0055 -0.1769 -0.1243
 1008YOPC   C3A14583  -0.089  13.789   7.370  0.1912  0.0344  0.0458
 1008YOPC   C4A14584   0.174  13.620   7.651 -0.1190  0.1763  0.1369
 1008YOPC   C1B14585   0.271  14.037   6.751  0.0256  0.1446 -0.1628
 1008YOPC   C2B14586   0.371  14.138   7.095  0.3664  0.2481  0.3456
 1008YOPC   D3B14587   0.211  14.216   7.389  0.3947 -0.1352 -0.2647
 1008YOPC   C4B14588   0.231  14.524   7.745 -0.0650 -0.1082  0.1321
 1009YOPC   NC314589   2.845   9.295   6.268 -0.0001 -0.0005 -0.0975
 1009YOPC   PO414590   2.638   8.988   6.322  0.1675 -0.0475  0.0174
 1009YOPC   GL114591   2.662   8.796   6.582 -0.2540 -0.0885 -0.1751
 1009YOPC   GL214592   2.538   8.578   6.723  0.1433 -0.1648  0.0695
 1009YOPC   C1A14593   2.927   8.742   6.969  0.0911 -0.0890 -0.0060
 1009YOPC   D2A14594   3.386   8.786   7.077  0.0980 -0.0216  0.0348
 1009YOPC   C3A14595   3.659   8.371   7.167 -0.2233  0.0492  0.0254
 1009YOPC   C4A14596   4.103   8.320   7.151  0.1138 -0.2493  0.1447
 1009YOPC   C1B14597   2.125   8.357   6.667 -0.1642  0.1514 -0.1947
 1009YOPC   C2B14598   1.693   8.386   6.795 -0.0431 -0.0934 -0.0515
 1009YOPC   D3B14599   1.653   8.604   7.273 -0.0670  0.1400  0.0904
 1009YOPC   C4B14600   1.843   8.799   7.712 -0.3054 -0.0679  0.0417
 1010YOPC   NC314601   4.884   1.972   6.290 -0.0405  0.2412 -0.3042
 1010YOPC   PO414602   4.425   1.850   6.406  0.4598 -0.0618 -0.1473
 1010YOPC   GL114603   4.370   2.005   6.774 -0.0142 -0.1781  0.3114
 1010YOPC   GL214604   4.141   2.180   6.944 -0.2284 -0.1369  0.1022
 1010YOPC   C1A14605   4.626   2.175   7.087  0.1744  0.1204  0.0070
 1010YOPC   D2A14606   4.581   2.471   7.284 -0.0422  0.1354  0.2299
 1010YOPC   C3A14607   4.484   2.529   7.667  0.0802  0.0091  0.2477
 1010YOPC   C4A14608   4.581   2.625   8.157  0.0517  0.1694  0.0553
 1010YOPC   C1B14609   4.116   2.410   7.272  0.2083  0.0356 -0.1349
 1010YOPC   C2B14610   3.932   2.266   7.623  0.1115 -0.2125  0.0278
 1010YOPC   D3B14611   4.144   2.269   7.988 -0.0440  0.0238 -0.0064
 1010YOPC   C4B14612   4.300   2.117   8.351  0.1077 -0.0821 -0.0765
 1011YOPC   NC314613  17.465   9.204   5.314 -0.2205 -0.2329 -0.0355
 1011YOPC   PO414614  17.806   9.283   5.612 -0.0200  0.0921  0.0244
 1011YOPC   GL114615  17.703   9.280   6.097  0.0622 -0.1417 -0.0314
 1011YOPC   GL214616  17.759   9.547   6.179 -0.0742 -0.1798 -0.0200
 1011YOPC   C1A14617  17.913   9.068   6.385 -0.0602  0.2552  0.2202
 1011YOPC   D2A14618  18.358   9.006   6.292 -0.2611  0.0646 -0.0606
 1011YOPC   C3A14619  18.381   9.299   6.565  0.1272  0.0271  0.0079
 1011YOPC   C4A14620  18.212   9.519   6.849 -0.2177  0.0653 -0.2893
 1011YOPC   C1B14621  17.965   9.650   6.499  0.1035  0.1171  0.0616
 1011YOPC   C2B14622  17.698   9.772   6.863  0.1695 -0.3079 -0.2520
 1011YOPC   D3B14623  17.860   9.593   7.239  0.1472 -0.1683  0.2172
 1011YOPC   C4B14624  18.342   9.694   7.289  0.3023 -0.1738  0.0103
 1012YOPC   NC314625   7.131  16.162   6.044 -0.0653  0.0924 -0.3200
 1012YOPC   PO414626   7.534  16.371   6.190 -0.1143 -0.1262  0.1692
 1012YOPC   GL114627   7.394  16.613   6.521 -0.1867 -0.3121  0.0781
 1012YOPC   GL214628   7.158  16.796   6.264  0.1040 -0.0181  0.0460
 1012YOPC   C1A14629   7.212  16.696   6.975 -0.0038  0.0551 -0.1193
 1012YOPC   D2A14630   7.177  16.770   7.300 -0.1994 -0.2294 -0.3491
 1012YOPC   C3A14631   7.471  17.092   7.409  0.1067 -0.0796 -0.1179
 1012YOPC   C4A14632   7.941  17.409   7.308 -0.1090  0.2264 -0.4053
 1012YOPC   C1B14633   7.403  17.173   6.547 -0.0180  0.0273  0.0217
 1012YOPC   C2B14634   7.673  17.276   6.880  0.1296  0.5033  0.0931
 1012YOPC   D3B14635   8.031  17.379   6.808  0.3038 -0.0225  0.0461
 1012YOPC   C4B14636   8.113  17.730   6.989  0.1997 -0.0469 -0.0672
 1013YOPC   NC314637   0.365   7.194   5.315 -0.0550  0.0538 -0.2778
 1013YOPC   PO414638   0.179   7.597   5.415 -0.0986  0.1878 -0.4141
 1013YOPC   GL114639   0.134   7.625   5.876 -0.0131  0.3273 -0.1517
 1013YOPC   GL214640   0.296   7.782   6.045  0.0610  0.1075  0.1377
 1013YOPC   C1A14641  -0.132   7.443   6.214 -0.0450 -0.1174  0.1855
 1013YOPC   D2A14642   0.031   7.076   6.585  0.1125  0.2270 -0.0117
 1013YOPC   C3A14643   0.005   7.245   7.013 -0.2262  0.1789 -0.0055
 1013YOPC   C4A14644  -0.125   7.276   7.387  0.1213  0.1234  0.2540
 1013YOPC   C1B14645   0.632   7.560   6.367  0.0684  0.0142 -0.3016
 1013YOPC   C2B14646   0.911   7.500   6.788 -0.2078  0.2678  0.1081
 1013YOPC   D3B14647   0.756   7.435   7.184  0.1505  0.0965 -0.0288
 1013YOPC   C4B14648   0.836   7.470   7.609 -0.0188  0.3001  0.0645
 1014YOPC   NC314649   4.791  17.952   5.763  0.0275 -0.0296  0.4135
 1014YOPC   PO414650   4.461  17.754   5.833  0.3047 -0.1016  0.0331
 1014YOPC   GL114651   4.467  17.887   6.171 -0.3805  0.0227  0.4187
 1014YOPC   GL214652   4.284  18.024   6.413 -0.2899  0.1775  0.3737
 1014YOPC   C1A14653   4.677  17.781   6.525 -0.0321  0.1575  0.1992
 1014YOPC   D2A14654   4.793  17.425   6.786 -0.0237 -0.2743  0.0308
 1014YOPC   C3A14655   4.701  17.102   6.707  0.0079 -0.1058 -0.0257
 1014YOPC   C4A14656   4.748  16.869   6.445 -0.3057  0.0696  0.1554
 1014YOPC   C1B14657   4.027  17.758   6.715 -0.0689 -0.2052  0.0830
 1014YOPC   C2B14658   3.862  17.704   7.215  0.1652 -0.2036  0.1020
 1014YOPC   D3B14659   3.522  17.616   7.265  0.1416 -0.3234 -0.1459
 1014YOPC   C4B14660   3.214  17.597   7.491  0.1678  0.1201  0.1093
 1015YOPC   NC314661   2.826  14.017   5.760  0.1809 -0.0417 -0.0726
 1015YOPC   PO414662   3.260  13.953   6.035  0.1246  0.0081 -0.0284
 1015YOPC   GL114663   2.883  14.000   6.233 -0.0572  0.3568 -0.0778
 1015YOPC   GL214664   2.852  13.779   6.533 -0.2834 -0.0228 -0.1092
 1015YOPC   C1A14665   2.562  14.271   6.393  0.4561  0.1325 -0.3002
 1015YOPC   D2A14666   2.499  14.422   6.866 -0.1993 -0.1003 -0.3378
 1015YOPC   C3A14667   2.071  14.275   6.949  0.1121  0.5171 -0.0032
 1015YOPC   C4A14668   1.770  14.226   7.231 -0.0266 -0.0324 -0.0551
 1015YOPC   C1B14669   2.739  13.999   6.855  0.1078 -0.1514 -0.1149
 1015YOPC   C2B14670   2.607  14.012   7.332 -0.0030  0.0867 -0.4604
 1015YOPC   D3B14671   2.199  14.191   7.445  0.2217 -0.4074 -0.0213
 1015YOPC   C4B14672   1.791  14.560   7.625 -0.3972 -0.1046 -0.1197
 1016YOPC   NC314673   4.207  17.308   5.961 -0.2439  0.1126 -0.0410
 1016YOPC   PO414674   3.883  17.035   5.847 -0.0441  0.0317  0.1689
 1016YOPC   GL114675   3.741  17.214   6.192  0.3126  0.2067  0.1797
 1016YOPC   GL214676   3.481  16.975   6.300 -0.2576 -0.1102  0.1957
 1016YOPC   C1A14677   3.709  17.386   6.480 -0.0094 -0.0503 -0.1170
 1016YOPC   D2A14678   3.590  17.594   6.753  0.4047 -0.1327 -0.0312
 1016YOPC   C3A14679   3.211  17.804   6.653 -0.2712  0.1924 -0.0071
 1016YOPC   C4A14680   2.968  18.087   6.749  0.0202 -0.0735 -0.1586
 1016YOPC   C1B14681   3.277  17.172   6.583 -0.1012 -0.1479  0.4206
 1016YOPC   C2B14682   3.163  17.365   7.019  0.1777  0.1502 -0.0743
 1016YOPC   D3B14683   2.802  17.260   7.291  0.0465  0.2443  0.1919
 1016YOPC   C4B14684   2.680  16.994   7.592  0.3033  0.0644 -0.3909
 1017YOPC   NC314685   6.807   3.440   6.038 -0.2457  0.0181 -0.1260
 1017YOPC   PO414686   6.985   3.881   5.969 -0.0247  0.2654 -0.1355
 1017YOPC   GL114687   6.882   3.950   6.441 -0.1610  0.1476 -0.1488
 1017YOPC   GL214688   6.635   3.684   6.469 -0.2592 -0.1924  0.3368
 1017YOPC   C1A14689   6.838   4.108   6.827  0.0688  0.2803  0.2808
 1017YOPC   D2A14690   6.777   3.947   7.216 -0.2047  0.0856  0.1393
 1017YOPC   C3A14691   6.941   4.052   7.494  0.4908  0.2391 -0.0893
 1017YOPC   C4A14692   6.977   4.150   7.998  0.3519  0.0912  0.1356
 1017YOPC   C1B14693   6.719   3.607   6.857  0.1149  0.0522 -0.2336
 1017YOPC   C2B14694   6.627   3.402   7.057 -0.1251  0.1059  0.3033
 1017YOPC   D3B14695   6.746   3.424   7.377 -0.3064  0.1861  0.0262
 1017YOPC   C4B14696   6.576   3.546   7.733 -0.1065 -0.1794  0.2091
 1018YOPC   NC314697   0.025   3.940   5.937  0.0040  0.0991 -0.2870
 1018YOPC   PO414698  -0.103   3.578   5.749  0.0113  0.2485 -0.0794
 1018YOPC   GL114699  -0.165   3.426   6.129  0.0316 -0.0996 -0.0118
 1018YOPC   GL214700  -0.463   3.335   6.336 -0.0041  0.1935  0.1830
 1018YOPC   C1A14701   0.004   3.367   6.623 -0.1629 -0.0876 -0.0400
 1018YOPC   D2A14702   0.160   3.005   6.792 -0.1043  0.2539 -0.0140
 1018YOPC   C3A14703   0.175   2.951   7.261 -0.4272  0.2079  0.4153
 1018YOPC   C4A14704   0.246   2.847   7.693 -0.2309  0.2181  0.3195
 1018YOPC   C1B14705  -0.455   3.598   6.678  0.1843 -0.1905  0.3168
 1018YOPC   C2B14706  -0.690   3.470   6.968  0.2730 -0.0975  0.1604
 1018YOPC   D3B14707  -0.590   2.992   7.198  0.3493  0.4208 -0.2047
 1018YOPC   C4B14708  -0.620   2.614   7.394 -0.1110 -0.1918 -0.2834
 1019YOPC   NC314709   2.203   5.487   5.988 -0.0068  0.0282  0.0063
 1019YOPC   PO414710   1.980   5.807   5.838  0.1629  0.0440  0.0078
 1019YOPC   GL114711   1.925   5.885   6.295  0.2958 -0.1968  0.2459
 1019YOPC   GL214712   1.698   5.837   6.538  0.1338  0.1797  0.1132
 1019YOPC   C1A14713   2.203   6.015   6.605  0.1037 -0.1954 -0.1408
 1019YOPC   D2A14714   2.255   6.409   6.412  0.0932  0.0521 -0.1445
 1019YOPC   C3A14715   2.246   6.767   6.698  0.1612  0.1432 -0.0998
 1019YOPC   C4A14716   2.155   6.955   7.085 -0.4721  0.0204 -0.1506
 1019YOPC   C1B14717   1.606   6.030   6.793 -0.0756  0.0758 -0.3146
 1019YOPC   C2B14718   1.529   6.240   7.251 -0.0546  0.0199  0.4459
 1019YOPC   D3B14719   1.847   6.256   7.529  0.1225  0.2209 -0.0071
 1019YOPC   C4B14720   1.921   6.151   7.874  0.1236  0.0777 -0.0600
 1020YOPC   NC314721   5.410  13.168   5.991 -0.3403  0.2779 -0.0772
 1020YOPC   PO414722   5.059  12.825   6.052  0.2771 -0.0528  0.2344
 1020YOPC   GL114723   5.332  12.954   6.468 -0.0060  0.2157  0.3237
 1020YOPC   GL214724   5.547  13.103   6.489  0.1707 -0.0894  0.0054
 1020YOPC   C1A14725   5.195  12.844   6.895  0.0923 -0.1270  0.2265
 1020YOPC   D2A14726   5.046  13.224   7.090 -0.0604 -0.1402 -0.2084
 1020YOPC   C3A14727   5.024  13.151   7.518 -0.4984 -0.2586 -0.2138
 1020YOPC   C4A14728   5.181  13.046   7.952  0.0029  0.0527  0.2490
 1020YOPC   C1B14729   5.736  13.477   6.738  0.2257 -0.3841  0.0586
 1020YOPC   C2B14730   5.837  13.918   7.010  0.1607 -0.2797  0.2091
 1020YOPC   D3B14731   5.553  14.211   7.116  0.2937 -0.0160  0.0750
 1020YOPC   C4B14732   5.396  14.612   7.197 -0.1208 -0.1778  0.3132
 1021YOPC   NC314733  13.107   5.261   5.967 -0.1371  0.0447 -0.1259
 1021YOPC   PO414734  12.963   5.695   5.880  0.1414 -0.1028  0.0588
 1021YOPC   GL114735  13.193   5.564   6.379  0.2000  0.2597  0.0730
 1021YOPC   GL214736  12.896   5.731   6.648  0.1147 -0.1553  0.1032
 1021YOPC   C1A14737  13.307   5.527   6.853  0.0058 -0.2919  0.0404
 1021YOPC   D2A14738  13.357   5.653   7.336 -0.2569 -0.1486 -0.1171
 1021YOPC   C3A14739  12.946   5.719   7.590  0.2673 -0.1814  0.2911
 1021YOPC   C4A14740  12.501   5.731   7.613 -0.0696 -0.1588 -0.2174
 1021YOPC   C1B14741  12.885   5.540   7.119 -0.4437  0.0006 -0.3288
 1021YOPC   C2B14742  12.856   5.240   7.549  0.4711 -0.3817  0.0614
 1021YOPC   D3B14743  12.592   4.893   7.495 -0.0661 -0.0097  0.0708
 1021YOPC   C4B14744  12.414   4.676   7.837 -0.1477  0.1618  0.1267
 1022YOPC   NC314745   9.281   1.097   6.019  0.1601  0.0105 -0.0025
 1022YOPC   PO414746   8.860   0.791   6.068  0.0497 -0.0156 -0.2328
 1022YOPC   GL114747   8.894   0.899   6.494 -0.0267  0.1696 -0.1526
 1022YOPC   GL214748   8.960   1.250   6.449  0.1765 -0.3783  0.1668
 1022YOPC   C1A14749   8.966   1.039   6.925  0.2054 -0.2015  0.0287
 1022YOPC   D2A14750   8.797   1.273   7.180  0.2650 -0.0803 -0.2133
 1022YOPC   C3A14751   8.766   1.161   7.639  0.0410  0.3487 -0.0209
 1022YOPC   C4A14752   8.650   1.074   8.059  0.1406  0.0008  0.2805
 1022YOPC   C1B14753   9.050   1.505   6.806 -0.1006  0.4600 -0.0469
 1022YOPC   C2B14754   9.134   1.631   7.266  0.1137 -0.2261  0.2237
 1022YOPC   D3B14755   9.010   2.004   7.386 -0.1714 -0.1070  0.1635
 1022YOPC   C4B14756   8.791   2.336   7.534  0.0649 -0.3202  0.1503
 1023YOPC   NC314757   4.645  16.102   5.961  0.0915  0.3032 -0.3057
 1023YOPC   PO414758   4.762  15.696   5.937 -0.0564 -0.2343  0.0146
 1023YOPC   GL114759   4.561  15.701   6.308  0.0689 -0.0353  0.3223
 1023YOPC   GL214760   4.702  15.863   6.545  0.0801 -0.1364 -0.0336
 1023YOPC   C1A14761   4.654  15.388   6.585 -0.4394 -0.0365  0.1618
 1023YOPC   D2A14762   5.011  15.232   6.780 -0.1012 -0.2365 -0.1338
 1023YOPC   C3A14763   5.003  14.966   7.138 -0.3567  0.1716 -0.0649
 1023YOPC   C4A14764   4.977  14.733   7.479 -0.0110 -0.0806 -0.2536
 1023YOPC   C1B14765   4.935  15.727   6.836  0.0115 -0.1320  0.5358
 1023YOPC   C2B14766   4.973  15.470   7.210 -0.2108  0.2632 -0.1736
 1023YOPC   D3B14767   5.062  15.305   7.578 -0.0758  0.1740 -0.0755
 1023YOPC   C4B14768   4.793  15.450   7.967 -0.0151 -0.1017 -0.0323
 1024YOPC   NC314769  14.442   2.379   5.103 -0.0485  0.0994  0.4057
 1024YOPC   PO414770  14.027   2.424   5.083 -0.1228  0.0449 -0.1952
 1024YOPC   GL114771  14.116   2.340   5.524 -0.0507  0.0915 -0.0067
 1024YOPC   GL214772  14.009   2.506   5.733  0.5633  0.3198 -0.1400
 1024YOPC   C1A14773  14.451   2.068   5.739 -0.1476  0.0216  0.0314
 1024YOPC   D2A14774  14.696   1.944   6.034 -0.0122  0.0991 -0.2542
 1024YOPC   C3A14775  14.714   2.254   6.337 -0.3492  0.0959 -0.1322
 1024YOPC   C4A14776  14.675   2.639   6.482  0.2134 -0.0494 -0.0294
 1024YOPC   C1B14777  14.277   2.552   6.150 -0.1743 -0.0753  0.1366
 1024YOPC   C2B14778  14.189   2.419   6.606 -0.2790  0.1606  0.0471
 1024YOPC   D3B14779  14.431   2.152   6.834  0.0888  0.4636  0.0587
 1024YOPC   C4B14780  14.696   2.136   7.149 -0.1632  0.3601 -0.0495
 1025YOPC   NC314781  16.112   9.769   5.838  0.2884 -0.0920 -0.1974
 1025YOPC   PO414782  16.423   9.447   5.867 -0.1814 -0.1148  0.1567
 1025YOPC   GL114783  16.227   9.317   6.246 -0.0003  0.0640  0.0528
 1025YOPC   GL214784  15.867   9.404   6.164 -0.2636  0.3387 -0.0614
 1025YOPC   C1A14785  16.150   8.993   6.626 -0.2616  0.0607  0.1872
 1025YOPC   D2A14786  15.689   8.891   6.852 -0.4615 -0.0863 -0.2082
 1025YOPC   C3A14787  15.694   8.496   7.038 -0.1012  0.2687 -0.0454
 1025YOPC   C4A14788  15.464   8.284   7.221  0.1873  0.1578  0.0229
 1025YOPC   C1B14789  15.763   9.333   6.603  0.1314  0.2994  0.3818
 1025YOPC   C2B14790  15.651   9.525   6.858  0.0574  0.2042 -0.3216
 1025YOPC   D3B14791  15.578   9.254   7.209  0.0335  0.1167  0.0047
 1025YOPC   C4B14792  15.393   9.040   7.652  0.0166  0.0675  0.1109
 1026YOPC   NC314793  14.850   0.977   4.810 -0.0855 -0.0705 -0.1598
 1026YOPC   PO414794  14.644   0.786   5.288 -0.1842 -0.1271  0.0525
 1026YOPC   GL114795  14.834   0.664   5.701 -0.0811 -0.0506 -0.1845
 1026YOPC   GL214796  15.141   0.755   5.662  0.0065 -0.2639  0.3071
 1026YOPC   C1A14797  14.740   0.450   6.007 -0.1253 -0.1775  0.3730
 1026YOPC   D2A14798  14.874   0.575   6.422 -0.1097 -0.1573 -0.1066
 1026YOPC   C3A14799  14.740   0.804   6.455 -0.2303  0.1735 -0.3810
 1026YOPC   C4A14800  14.552   0.896   6.079  0.2776 -0.4114 -0.0489
 1026YOPC   C1B14801  15.050   0.950   6.064 -0.0205  0.0360  0.1591
 1026YOPC   C2B14802  14.851   1.448   6.104 -0.1459  0.0313 -0.0484
 1026YOPC   D3B14803  14.427   1.541   5.830 -0.0907  0.3710 -0.1189
 1026YOPC   C4B14804  14.085   1.445   5.713  0.2615  0.1052  0.0070
 1027YOPC   NC314805   9.610  17.457   5.668  0.1721  0.1762 -0.1007
 1027YOPC   PO414806   9.781  17.935   5.513  0.0415  0.2015  0.2258
 1027YOPC   GL114807   9.847  17.838   5.915 -0.2393 -0.1242 -0.0458
 1027YOPC   GL214808  10.183  17.650   5.827 -0.2145  0.0337  0.0707
 1027YOPC   C1A14809   9.946  17.643   6.245  0.0013 -0.0577  0.1982
 1027YOPC   D2A14810   9.861  17.256   6.405  0.1178 -0.0341 -0.0004
 1027YOPC   C3A14811  10.220  17.041   6.624 -0.0278  0.2922 -0.5176
 1027YOPC   C4A14812  10.408  16.862   7.048  0.2178 -0.0131  0.1460
 1027YOPC   C1B14813  10.557  17.544   6.033  0.4165 -0.0032 -0.1370
 1027YOPC   C2B14814  10.742  17.435   6.430  0.0624 -0.1372  0.1705
 1027YOPC   D3B14815  10.846  17.447   6.853 -0.0739 -0.0857 -0.2755
 1027YOPC   C4B14816  10.780  17.626   7.304 -0.2815  0.0676 -0.1736
 1028YOPC   NC314817   8.995   6.455   6.202 -0.1782 -0.1239  0.1779
 1028YOPC   PO414818   8.702   6.053   6.154 -0.1371 -0.3006  0.0722
 1028YOPC   GL114819   8.243   5.967   6.388  0.2863  0.0829  0.1808
 1028YOPC   GL214820   8.108   6.189   6.519  0.1014 -0.0932  0.0974
 1028YOPC   C1A14821   8.061   5.829   6.838 -0.0726  0.0379 -0.2253
 1028YOPC   D2A14822   7.952   5.818   7.325  0.0432  0.1680  0.1766
 1028YOPC   C3A14823   8.071   5.902   7.745 -0.2254 -0.1441  0.1744
 1028YOPC   C4A14824   7.938   5.910   8.145 -0.1275  0.3380  0.0769
 1028YOPC   C1B14825   8.335   6.196   6.994  0.0349 -0.0850 -0.0135
 1028YOPC   C2B14826   8.362   6.199   7.437 -0.0118  0.1344  0.4145
 1028YOPC   D3B14827   8.624   5.995   7.668  0.0573  0.0880 -0.1789
 1028YOPC   C4B14828   8.606   5.757   8.004 -0.0763  0.0064 -0.1665
 1029YOPC   NC314829   9.361   7.195   5.686  0.2384  0.1795 -0.1966
 1029YOPC   PO414830   9.729   7.215   6.003  0.1235  0.1330 -0.0304
 1029YOPC   GL114831   9.986   7.261   6.374  0.0284 -0.0086 -0.1856
 1029YOPC   GL214832  10.334   7.133   6.485 -0.1804  0.1305 -0.3461
 1029YOPC   C1A14833   9.920   7.233   6.847 -0.0710 -0.1825 -0.0202
 1029YOPC   D2A14834  10.111   7.179   7.219  0.2052 -0.0743  0.1588
 1029YOPC   C3A14835   9.944   6.920   7.550 -0.0108  0.0010  0.1045
 1029YOPC   C4A14836   9.937   6.632   7.924  0.0722  0.1345 -0.2121
 1029YOPC   C1B14837  10.496   6.993   6.901  0.3262  0.2076 -0.1377
 1029YOPC   C2B14838  10.471   6.702   7.136 -0.2140  0.0814 -0.2229
 1029YOPC   D3B14839  10.836   6.502   7.455 -0.3005 -0.0026 -0.1147
 1029YOPC   C4B14840  11.237   6.279   7.474 -0.1124 -0.0757 -0.2183
 1030YOPC   NC314841  16.562  11.951   5.173  0.1192 -0.0091  0.3288
 1030YOPC   PO414842  16.925  11.717   5.096  0.3410  0.2096 -0.3404
 1030YOPC   GL114843  17.047  11.972   5.405  0.1570 -0.1619 -0.0868
 1030YOPC   GL214844  16.923  12.285   5.420  0.1009 -0.0972  0.2889
 1030YOPC   C1A14845  16.871  11.875   5.802  0.2938  0.1332 -0.3601
 1030YOPC   D2A14846  16.777  12.002   6.330 -0.0500  0.2904 -0.1568
 1030YOPC   C3A14847  17.078  12.013   6.554 -0.0851 -0.2687 -0.1847
 1030YOPC   C4A14848  17.455  11.885   6.804  0.0487  0.0290  0.0843
 1030YOPC   C1B14849  16.728  12.324   5.844 -0.2576 -0.1506 -0.1366
 1030YOPC   C2B14850  16.721  12.529   6.228 -0.1568  0.0023  0.2583
 1030YOPC   D3B14851  17.062  12.521   6.525 -0.1164  0.1745 -0.2131
 1030YOPC   C4B14852  17.476  12.312   6.596  0.0602 -0.0077 -0.2597
 1031YOPC   NC314853  14.836   8.318   5.570  0.0545 -0.0048  0.0066
 1031YOPC   PO414854  14.531   8.250   5.920  0.0932  0.0401 -0.2652
 1031YOPC   GL114855  14.331   8.200   6.385 -0.1083 -0.1283  0.1644
 1031YOPC   GL214856  14.176   8.519   6.492 -0.1056  0.0012  0.1806
 1031YOPC   C1A14857  14.184   8.005   6.759 -0.2106  0.1695 -0.1494
 1031YOPC   D2A14858  13.948   7.671   6.939  0.1308  0.0812  0.2067
 1031YOPC   C3A14859  13.730   7.765   7.328 -0.1638 -0.0598 -0.3461
 1031YOPC   C4A14860  13.434   7.873   7.814  0.2525  0.0689  0.0833
 1031YOPC   C1B14861  14.236   8.584   6.957  0.1153 -0.1133 -0.2561
 1031YOPC   C2B14862  14.459   8.173   7.138 -0.2393 -0.1793 -0.1487
 1031YOPC   D3B14863  14.539   8.322   7.577 -0.0636 -0.2394  0.1382
 1031YOPC   C4B14864  14.589   8.685   7.758  0.1675 -0.2390  0.1679
 1032YOPC   NC314865  16.676   5.503   5.806 -0.3865 -0.3271  0.1586
 1032YOPC   PO414866  16.293   5.776   5.630 -0.1015  0.0827  0.0833
 1032YOPC   GL114867  16.172   5.508   6.000 -0.0303  0.0375 -0.3261
 1032YOPC   GL214868  16.387   5.366   6.221 -0.2328  0.1310  0.3087
 1032YOPC   C1A14869  16.082   5.790   6.373 -0.1772 -0.4463 -0.0558
 1032YOPC   D2A14870  16.081   5.847   6.770 -0.1794  0.1031 -0.1509
 1032YOPC   C3A14871  15.870   5.498   6.909  0.0291 -0.0092 -0.0851
 1032YOPC   C4A14872  15.674   5.356   7.248 -0.1074  0.0188  0.2817
 1032YOPC   C1B14873  16.313   5.420   6.676 -0.0774  0.1627  0.0406
 1032YOPC   C2B14874  16.308   5.492   7.109 -0.0163 -0.1417  0.1940
 1032YOPC   D3B14875  16.596   5.423   7.407  0.4511 -0.1349  0.0070
 1032YOPC   C4B14876  16.835   5.195   7.591  0.3917 -0.1706 -0.1245
 1033YOPC   NC314877  11.683   4.960   5.691 -0.2181 -0.1020  0.2865
 1033YOPC   PO414878  11.388   4.914   5.987 -0.0919  0.0205  0.0234
 1033YOPC   GL114879  11.358   4.633   6.344 -0.2585 -0.2561 -0.1582
 1033YOPC   GL214880  11.160   4.485   6.421  0.2545 -0.3055  0.0656
 1033YOPC   C1A14881  11.694   4.667   6.786 -0.5030  0.1073 -0.0183
 1033YOPC   D2A14882  11.847   4.856   7.227 -0.1732 -0.2515 -0.2328
 1033YOPC   C3A14883  12.078   4.918   7.495 -0.0008  0.0205 -0.0554
 1033YOPC   C4A14884  12.030   4.961   7.934 -0.2771  0.3829  0.0764
 1033YOPC   C1B14885  11.258   4.436   6.865 -0.1026  0.0877  0.1099
 1033YOPC   C2B14886  11.588   4.359   7.192  0.2058  0.0647  0.2077
 1033YOPC   D3B14887  11.582   3.960   7.477 -0.1847  0.0846  0.0847
 1033YOPC   C4B14888  11.365   3.570   7.787  0.0932 -0.0376  0.1764
 1034YOPC   NC314889   6.189   3.111   5.761 -0.1296 -0.1614 -0.2803
 1034YOPC   PO414890   6.648   2.990   5.995  0.0753  0.3919 -0.0583
 1034YOPC   GL114891   6.698   3.184   6.416 -0.1318  0.0683 -0.1486
 1034YOPC   GL214892   6.449   3.242   6.660  0.1844  0.1140  0.1526
 1034YOPC   C1A14893   6.975   3.101   6.789  0.1035  0.1592 -0.3041
 1034YOPC   D2A14894   7.060   3.071   7.261 -0.0804 -0.1094  0.1579
 1034YOPC   C3A14895   7.271   3.123   7.578 -0.1348 -0.0065  0.0033
 1034YOPC   C4A14896   7.175   3.179   8.026 -0.2089  0.3660  0.1405
 1034YOPC   C1B14897   6.452   2.949   7.018 -0.0904 -0.0812 -0.2268
 1034YOPC   C2B14898   6.434   3.049   7.473  0.2157 -0.2057 -0.3514
 1034YOPC   D3B14899   6.771   3.010   7.698 -0.1485  0.2135  0.1279
 1034YOPC   C4B14900   6.724   3.023   8.169  0.0395 -0.1316 -0.0052
 1035YOPC   NC314901   4.088  13.272   5.641  0.3533  0.1529  0.1155
 1035YOPC   PO414902   4.162  13.716   5.837 -0.2707 -0.0129  0.2539
 1035YOPC   GL114903   4.199  13.779   6.326  0.1756 -0.0766 -0.1587
 1035YOPC   GL214904   3.963  13.810   6.351  0.0272 -0.0019  0.1553
 1035YOPC   C1A14905   4.277  13.626   6.741  0.0191  0.0730 -0.0691
 1035YOPC   D2A14906   4.497  13.682   7.156  0.1362  0.0397 -0.0454
 1035YOPC   C3A14907   4.817  13.613   7.461 -0.1202  0.1966  0.1569
 1035YOPC   C4A14908   5.080  13.591   7.876  0.2374 -0.0837  0.0815
 1035YOPC   C1B14909   3.748  13.694   6.779  0.2526  0.3324  0.0162
 1035YOPC   C2B14910   3.896  13.664   7.266 -0.2379 -0.0915 -0.0156
 1035YOPC   D3B14911   4.229  13.735   7.554 -0.0685 -0.1949  0.0200
 1035YOPC   C4B14912   4.539  14.008   7.587  0.2120  0.0468 -0.1621
 1036YOPC   NC314913   8.760   4.398   6.278 -0.3348 -0.3932  0.5101
 1036YOPC   PO414914   8.808   4.809   6.233  0.2516 -0.6469  0.1403
 1036YOPC   GL114915   8.689   4.825   6.650  0.3545  0.0492 -0.3543
 1036YOPC   GL214916   8.747   4.512   6.837 -0.1069 -0.0679 -0.1778
 1036YOPC   C1A14917   8.929   4.974   6.986 -0.0176  0.1523  0.2079
 1036YOPC   D2A14918   9.012   5.005   7.501  0.1819 -0.0372 -0.3619
 1036YOPC   C3A14919   9.276   5.157   7.516 -0.2494 -0.1331 -0.1275
 1036YOPC   C4A14920   9.660   5.189   7.419  0.2775  0.1737 -0.1320
 1036YOPC   C1B14921   9.070   4.549   7.157  0.1594 -0.0662 -0.1933
 1036YOPC   C2B14922   9.048   4.489   7.581 -0.1197 -0.2704  0.0543
 1036YOPC   D3B14923   9.267   4.790   7.883  0.0843 -0.0161  0.3260
 1036YOPC   C4B14924   9.664   5.064   7.960  0.2624 -0.0088  0.0970
 1037YOPC   NC314925  13.876  16.443   4.813 -0.2611  0.1729 -0.0403
 1037YOPC   PO414926  13.409  16.577   5.017  0.0237 -0.3851 -0.1355
 1037YOPC   GL114927  13.513  16.581   5.416 -0.2150 -0.2870 -0.2298
 1037YOPC   GL214928  13.696  16.385   5.574  0.2385 -0.1536 -0.0818
 1037YOPC   C1A14929  13.602  16.928   5.714  0.0451  0.1946  0.3202
 1037YOPC   D2A14930  13.662  17.035   6.158 -0.1716 -0.1877  0.4172
 1037YOPC   C3A14931  13.706  17.401   6.085  0.2219 -0.1729  0.0064
 1037YOPC   C4A14932  13.713  17.738   6.318  0.0862 -0.0942  0.4251
 1037YOPC   C1B14933  13.669  16.570   6.005  0.5444 -0.0370  0.0589
 1037YOPC   C2B14934  13.732  16.551   6.429  0.3981 -0.0450 -0.2005
 1037YOPC   D3B14935  13.735  16.216   6.671  0.1463  0.1054 -0.1281
 1037YOPC   C4B14936  13.902  15.964   7.061  0.2457 -0.4644  0.1866
 1038YOPC   NC314937  11.247  14.222   5.542  0.0095 -0.2400 -0.0575
 1038YOPC   PO414938  10.902  13.990   5.753 -0.0394 -0.3047 -0.2328
 1038YOPC   GL114939  11.106  14.243   6.072  0.2491  0.0946  0.0272
 1038YOPC   GL214940  11.097  14.603   5.996  0.0149  0.0461 -0.1904
 1038YOPC   C1A14941  11.458  14.238   6.349 -0.0316 -0.1639 -0.3033
 1038YOPC   D2A14942  11.687  13.924   6.564  0.0824 -0.0110  0.0042
 1038YOPC   C3A14943  12.071  14.030   6.616 -0.0338 -0.4632  0.0983
 1038YOPC   C4A14944  12.318  14.334   6.704 -0.3285  0.0434  0.2927
 1038YOPC   C1B14945  10.945  14.651   6.327 -0.1608 -0.2593  0.1338
 1038YOPC   C2B14946  11.112  14.572   6.770 -0.0824  0.0773 -0.0796
 1038YOPC   D3B14947  11.355  14.194   6.884  0.1191 -0.1615  0.2993
 1038YOPC   C4B14948  11.382  13.763   6.925 -0.1546 -0.3282  0.0219
 1039YOPC   NC314949   7.946  14.765   6.258 -0.2763 -0.0391 -0.2196
 1039YOPC   PO414950   7.574  14.542   6.043  0.1299 -0.0884  0.0443
 1039YOPC   GL114951   7.503  14.652   6.530 -0.2602 -0.1288 -0.1641
 1039YOPC   GL214952   7.755  14.585   6.726  0.1530 -0.0673 -0.0604
 1039YOPC   C1A14953   7.336  14.760   6.973  0.0533  0.2168 -0.2947
 1039YOPC   D2A14954   6.988  14.977   7.221 -0.2518 -0.1324  0.4074
 1039YOPC   C3A14955   6.692  14.856   7.491  0.0639  0.1961 -0.0501
 1039YOPC   C4A14956   6.502  14.489   7.620  0.1315 -0.0510 -0.0704
 1039YOPC   C1B14957   7.889  14.733   7.028  0.1825  0.0408  0.2268
 1039YOPC   C2B14958   7.713  14.651   7.278 -0.3770  0.0156  0.0486
 1039YOPC   D3B14959   7.608  14.327   7.255 -0.0513 -0.0626 -0.1628
 1039YOPC   C4B14960   7.388  14.121   7.547  0.1559 -0.1306  0.1567
 1040YOPC   NC314961   8.204   1.299   5.858  0.1821 -0.0276 -0.0431
 1040YOPC   PO414962   8.484   1.724   5.731 -0.1089  0.2054 -0.0304
 1040YOPC   GL114963   8.378   1.743   6.032 -0.1934  0.0083  0.1700
 1040YOPC   GL214964   8.165   1.988   6.168  0.2824  0.2202 -0.2394
 1040YOPC   C1A14965   8.549   1.562   6.436 -0.0708  0.0857 -0.3725
 1040YOPC   D2A14966   8.580   1.288   6.747  0.0363 -0.1822 -0.3707
 1040YOPC   C3A14967   8.328   1.401   7.090  0.2218 -0.1648  0.1723
 1040YOPC   C4A14968   8.065   1.413   7.472 -0.0981 -0.1668  0.0686
 1040YOPC   C1B14969   8.209   1.952   6.512 -0.2677  0.1364  0.0699
 1040YOPC   C2B14970   8.171   1.818   6.875  0.0304 -0.1753 -0.0694
 1040YOPC   D3B14971   7.855   1.874   7.370  0.3986 -0.3633  0.1738
 1040YOPC   C4B14972   7.768   1.902   7.829  0.3372  0.0564 -0.0010
 1041YOPC   NC314973   4.800  15.032   5.678  0.0350 -0.0347 -0.1514
 1041YOPC   PO414974   5.326  14.991   5.584  0.0944 -0.0406  0.1905
 1041YOPC   GL114975   5.219  15.014   5.998  0.2136  0.2433 -0.0850
 1041YOPC   GL214976   5.469  15.244   6.133  0.2674 -0.2241  0.2499
 1041YOPC   C1A14977   4.983  14.971   6.331  0.1196  0.2219 -0.2242
 1041YOPC   D2A14978   5.261  14.755   6.696 -0.1135  0.0890 -0.0166
 1041YOPC   C3A14979   5.704  14.892   6.853 -0.3704 -0.1333 -0.1747
 1041YOPC   C4A14980   6.163  15.038   6.818 -0.0087 -0.2039  0.2549
 1041YOPC   C1B14981   5.452  15.202   6.554 -0.4248  0.0890  0.1149
 1041YOPC   C2B14982   5.437  15.251   7.093 -0.0428 -0.2510  0.0665
 1041YOPC   D3B14983   5.616  14.956   7.463 -0.2085 -0.5119  0.1780
 1041YOPC   C4B14984   5.898  14.988   7.897 -0.0077  0.1116  0.1565
 1042YOPC   NC314985  15.547  14.822   5.177 -0.0072  0.0913 -0.1110
 1042YOPC   PO414986  15.157  15.079   5.006  0.0471  0.0017 -0.0464
 1042YOPC   GL114987  15.141  15.088   5.417  0.2024  0.1908  0.0595
 1042YOPC   GL214988  15.127  14.844   5.612 -0.0254 -0.1081 -0.1379
 1042YOPC   C1A14989  14.928  15.273   5.759 -0.1474 -0.1793  0.0237
 1042YOPC   D2A14990  14.851  15.495   6.155 -0.2077  0.0123  0.0235
 1042YOPC   C3A14991  14.542  15.485   6.539 -0.0517 -0.2341 -0.1196
 1042YOPC   C4A14992  14.555  15.318   7.013  0.4610 -0.1718  0.0734
 1042YOPC   C1B14993  15.146  14.912   6.099  0.0441 -0.1191 -0.2357
 1042YOPC   C2B14994  14.885  15.066   6.438  0.0860 -0.1947 -0.0074
 1042YOPC   D3B14995  15.022  15.284   6.718 -0.1561  0.0044 -0.3557
 1042YOPC   C4B14996  15.325  15.570   7.048  0.0502 -0.0239  0.0547
 1043YOPC   NC314997   5.635   1.240   6.278 -0.2583 -0.3255  0.1661
 1043YOPC   PO414998   5.261   1.167   6.536  0.1952 -0.2349  0.0940
 1043YOPC   GL114999   4.995   1.091   6.835  0.1101  0.0925 -0.0556
 1043YOPC   GL215000   5.162   0.759   6.856  0.1548  0.0053 -0.0398
 1043YOPC   C1A15001   4.924   0.900   7.341 -0.0651  0.2503 -0.1301
 1043YOPC   D2A15002   5.090   0.842   7.675 -0.1446 -0.1056 -0.2775
 1043YOPC   C3A15003   4.853   0.940   7.984 -0.1577 -0.4835 -0.2313
 1043YOPC   C4A15004   4.709   1.303   8.177 -0.2467 -0.1144 -0.1303
 1043YOPC   C1B15005   5.465   0.894   7.136 -0.0915 -0.1367 -0.1264
 1043YOPC   C2B15006   5.755   0.832   7.464 -0.0420 -0.3013 -0.2944
 1043YOPC   D3B15007   6.141   1.183   7.602  0.0721 -0.1186  0.0296
 1043YOPC   C4B15008   6.363   1.380   7.886 -0.0831  0.1138  0.0489
 1044YOPC   NC315009   2.442   1.531   5.739  0.3794 -0.5301 -0.1021
 1044YOPC   PO415010   2.770   1.658   5.994 -0.0984  0.0343  0.0614
 1044YOPC   GL115011   2.798   1.339   6.398  0.2773  0.0313  0.0299
 1044YOPC   GL215012   2.611   1.099   6.516  0.1377  0.1914 -0.0347
 1044YOPC   C1A15013   2.765   1.451   6.827  0.2947 -0.1084 -0.2811
 1044YOPC   D2A15014   2.966   1.480   7.196  0.1483 -0.2961 -0.2069
 1044YOPC   C3A15015   2.946   1.892   7.532  0.2363 -0.0067  0.3771
 1044YOPC   C4A15016   2.741   1.961   7.913 -0.1520  0.4489 -0.0181
 1044YOPC   C1B15017   2.282   1.403   6.735 -0.2668 -0.3235 -0.0151
 1044YOPC   C2B15018   2.251   1.705   6.859  0.0717  0.0760  0.0542
 1044YOPC   D3B15019   2.462   2.026   6.850  0.2233  0.1009  0.1308
 1044YOPC   C4B15020   2.923   2.101   7.050 -0.1981 -0.2580  0.0882
 1045YOPC   NC315021  12.105  14.318   5.138 -0.0476  0.0695 -0.1725
 1045YOPC   PO415022  12.207  14.708   5.241 -0.0053  0.1504 -0.1666
 1045YOPC   GL115023  12.247  14.812   5.722 -0.4614 -0.1465  0.3701
 1045YOPC   GL215024  12.493  14.653   5.737  0.0079 -0.1546  0.1687
 1045YOPC   C1A15025  12.174  14.989   6.036 -0.1052  0.4018 -0.0544
 1045YOPC   D2A15026  12.080  15.422   6.126  0.3483 -0.0924  0.0174
 1045YOPC   C3A15027  12.146  15.508   6.591  0.0337  0.0970  0.1060
 1045YOPC   C4A15028  12.166  15.407   7.012  0.1328 -0.0668 -0.1619
 1045YOPC   C1B15029  12.337  14.543   6.180  0.1898  0.0153  0.1141
 1045YOPC   C2B15030  11.898  14.444   6.400  0.1879  0.1840 -0.0955
 1045YOPC   D3B15031  11.816  14.414   6.835 -0.2075 -0.2474 -0.0956
 1045YOPC   C4B15032  11.887  14.674   7.110 -0.0132  0.0431  0.2318
 1046YOPC   NC315033   5.208   3.594   6.528  0.1494 -0.0673  0.1385
 1046YOPC   PO415034   5.609   3.741   6.512 -0.4471  0.2659 -0.2060
 1046YOPC   GL115035   5.621   3.785   6.903 -0.0598  0.3994  0.0627
 1046YOPC   GL215036   5.334   3.798   6.974 -0.0600  0.1855 -0.2270
 1046YOPC   C1A15037   5.791   3.886   7.337  0.2952  0.4981  0.1636
 1046YOPC   D2A15038   5.694   3.846   7.768  0.0195  0.2181  0.1117
 1046YOPC   C3A15039   5.207   3.818   8.054 -0.4063  0.1641  0.1062
 1046YOPC   C4A15040   4.743   3.913   8.062  0.0598 -0.1504  0.1809
 1046YOPC   C1B15041   5.013   3.561   7.262 -0.0740  0.0983 -0.0471
 1046YOPC   C2B15042   4.923   3.508   7.692  0.0480  0.0371 -0.1124
 1046YOPC   D3B15043   4.444   3.475   7.722 -0.0696  0.0471 -0.1541
 1046YOPC   C4B15044   4.213   3.794   7.873 -0.0150  0.0135  0.0947
 1047YOPC   NC315045   1.099   5.285   5.942 -0.3260 -0.0260 -0.2133
 1047YOPC   PO415046   0.728   5.469   6.031  0.3299 -0.2113  0.1071
 1047YOPC   GL115047   0.527   5.368   6.409  0.1900 -0.0588 -0.3585
 1047YOPC   GL215048   0.178   5.455   6.293 -0.0722  0.0190 -0.1070
 1047YOPC   C1A15049   0.363   5.553   6.717  0.3838  0.1753  0.0713
 1047YOPC   D2A15050   0.328   5.950   6.659 -0.0596  0.0999  0.0964
 1047YOPC   C3A15051   0.575   6.339   6.728 -0.1395  0.3281 -0.1364
 1047YOPC   C4A15052   0.741   6.658   6.579  0.2309 -0.1864  0.1268
 1047YOPC   C1B15053  -0.126   5.813   6.478  0.0650  0.1278  0.1086
 1047YOPC   C2B15054  -0.226   5.751   6.836 -0.0220 -0.2433  0.1034
 1047YOPC   D3B15055   0.055   5.541   7.120 -0.1661  0.2262 -0.0367
 1047YOPC   C4B15056   0.397   5.762   7.194 -0.2072  0.0353  0.0725
 1048YOPC   NC315057  13.923  13.215   5.441 -0.1276  0.2570  0.0556
 1048YOPC   PO415058  14.233  13.044   5.280 -0.0301 -0.0279 -0.0652
 1048YOPC   GL115059  14.137  12.799   5.579 -0.3470  0.1587 -0.2772
 1048YOPC   GL215060  13.931  12.874   5.882  0.0888 -0.0443 -0.1211
 1048YOPC   C1A15061  14.416  12.579   5.858 -0.1350 -0.1122 -0.0385
 1048YOPC   D2A15062  14.446  12.484   6.316  0.5366  0.4202 -0.0174
 1048YOPC   C3A15063  14.359  12.610   6.752 -0.3085  0.0375 -0.1990
 1048YOPC   C4A15064  14.389  12.854   7.074  0.2805  0.0876  0.1148
 1048YOPC   C1B15065  14.073  12.825   6.400 -0.2954  0.2578 -0.0410
 1048YOPC   C2B15066  14.214  13.123   6.603  0.1013  0.0489 -0.3036
 1048YOPC   D3B15067  14.064  13.598   6.814 -0.3886 -0.2299  0.0141
 1048YOPC   C4B15068  14.066  13.910   7.096 -0.2405 -0.0597  0.1058
 1049YOPC   NC315069   3.873  16.340   5.979 -0.0213  0.0179  0.1040
 1049YOPC   PO415070   3.793  15.781   6.042 -0.0331  0.3082  0.2806
 1049YOPC   GL115071   3.784  15.817   6.487  0.0487  0.1627 -0.0019
 1049YOPC   GL215072   3.733  16.193   6.429 -0.1000 -0.1607 -0.1078
 1049YOPC   C1A15073   3.696  15.896   6.872  0.0058  0.1143 -0.0340
 1049YOPC   D2A15074   3.777  15.961   7.173  0.4030 -0.1239  0.1982
 1049YOPC   C3A15075   4.016  15.858   7.555 -0.3075  0.0733  0.3502
 1049YOPC   C4A15076   4.230  15.529   7.830  0.3305 -0.3064  0.0051
 1049YOPC   C1B15077   3.930  16.368   6.835  0.2543  0.0892  0.3098
 1049YOPC   C2B15078   4.027  16.376   7.301  0.2341  0.0609  0.1643
 1049YOPC   D3B15079   3.819  16.643   7.428 -0.0073  0.2561 -0.0761
 1049YOPC   C4B15080   3.879  16.927   7.816 -0.0386  0.2989  0.0326
 1050YOPC   NC315081  12.321  13.395   5.166 -0.1421  0.1022  0.0237
 1050YOPC   PO415082  11.974  13.254   5.442  0.0329  0.0227 -0.1164
 1050YOPC   GL115083  11.888  13.291   5.897 -0.1852 -0.0090  0.2573
 1050YOPC   GL215084  11.587  13.264   5.951 -0.0351 -0.1291 -0.4691
 1050YOPC   C1A15085  12.003  13.612   6.320  0.0095  0.0989  0.2761
 1050YOPC   D2A15086  11.997  13.508   6.762 -0.2821  0.1792 -0.0838
 1050YOPC   C3A15087  11.830  13.632   7.118 -0.2202  0.0529 -0.0302
 1050YOPC   C4A15088  11.789  13.464   7.478 -0.1692 -0.1369  0.0658
 1050YOPC   C1B15089  11.569  13.771   6.078  0.2182  0.0111  0.0801
 1050YOPC   C2B15090  11.909  14.050   5.960 -0.3240 -0.2088  0.0118
 1050YOPC   D3B15091  12.259  14.024   6.083  0.0646  0.0700  0.1641
 1050YOPC   C4B15092  12.691  14.088   6.415 -0.2276 -0.0412  0.1890
 1051YOPC   NC315093  17.853   1.513   5.504  0.0789 -0.2232  0.0358
 1051YOPC   PO415094  17.854   1.958   5.729  0.2066  0.2581  0.1788
 1051YOPC   GL115095  17.778   2.054   6.055 -0.0053  0.2926  0.2139
 1051YOPC   GL215096  17.412   1.946   6.043  0.0644 -0.0484  0.3890
 1051YOPC   C1A15097  17.536   1.803   6.462  0.1340  0.0958 -0.2403
 1051YOPC   D2A15098  17.340   1.631   6.811  0.0126 -0.1030  0.3360
 1051YOPC   C3A15099  17.620   1.802   7.225 -0.1167  0.1117 -0.0786
 1051YOPC   C4A15100  17.937   2.137   7.418  0.0929  0.0749  0.0414
 1051YOPC   C1B15101  17.446   2.276   6.351  0.1250  0.4163  0.0438
 1051YOPC   C2B15102  17.571   2.612   6.612 -0.0675  0.0729 -0.1372
 1051YOPC   D3B15103  17.816   2.567   6.889 -0.0465  0.0203 -0.3085
 1051YOPC   C4B15104  18.065   2.219   6.958 -0.0298  0.2194  0.1443
 1052YOPC   NC315105  11.163   6.893   5.706  0.1962 -0.3059 -0.0781
 1052YOPC   PO415106  11.566   6.881   5.751  0.1849 -0.2452  0.2447
 1052YOPC   GL115107  11.446   6.730   6.176 -0.3044  0.0884  0.0050
 1052YOPC   GL215108  11.628   6.520   6.312  0.2252  0.0334  0.1615
 1052YOPC   C1A15109  11.567   6.960   6.578 -0.0428  0.2481  0.0035
 1052YOPC   D2A15110  11.767   7.047   6.995 -0.0885 -0.0562  0.3782
 1052YOPC   C3A15111  11.706   6.952   7.381  0.0183  0.1549  0.0989
 1052YOPC   C4A15112  11.565   7.117   7.736 -0.0362  0.2084  0.2059
 1052YOPC   C1B15113  11.628   6.240   6.693 -0.0563 -0.0721 -0.0709
 1052YOPC   C2B15114  11.522   6.100   6.950 -0.1637  0.0685  0.1456
 1052YOPC   D3B15115  11.649   6.079   7.372 -0.0164  0.0228  0.2098
 1052YOPC   C4B15116  11.589   6.064   7.839 -0.0622 -0.0271 -0.2159
 1053YOPC   NC315117  10.174   2.731   5.438 -0.1044 -0.1243  0.2810
 1053YOPC   PO415118   9.933   2.332   5.594  0.1639  0.3229  0.1116
 1053YOPC   GL115119   9.905   2.594   6.010 -0.2080  0.2283 -0.0820
 1053YOPC   GL215120  10.120   2.850   6.051 -0.0450  0.2033 -0.2279
 1053YOPC   C1A15121   9.773   2.605   6.455  0.0592 -0.1157 -0.0200
 1053YOPC   D2A15122   9.709   2.436   6.838  0.0111 -0.1538 -0.1968
 1053YOPC   C3A15123   9.669   2.608   7.260 -0.5672  0.0391 -0.1096
 1053YOPC   C4A15124   9.902   2.376   7.579  0.1711  0.2510  0.2106
 1053YOPC   C1B15125  10.238   3.102   6.408 -0.2355 -0.1231 -0.2227
 1053YOPC   C2B15126  10.333   2.993   6.728  0.0058 -0.0941 -0.2854
 1053YOPC   D3B15127  10.197   2.692   6.939  0.2034  0.1252 -0.2459
 1053YOPC   C4B15128  10.101   2.280   7.077 -0.0973  0.0438  0.1352
 1054YOPC   NC315129  15.239   1.746   5.494  0.0212 -0.1649 -0.3001
 1054YOPC   PO415130  15.444   2.059   5.307  0.0983  0.4333  0.0679
 1054YOPC   GL115131  15.652   2.058   5.777 -0.2712  0.1528 -0.0076
 1054YOPC   GL215132  15.676   1.794   5.967  0.1038  0.1850 -0.0036
 1054YOPC   C1A15133  15.547   2.191   6.231 -0.0931  0.2380  0.3648
 1054YOPC   D2A15134  15.800   2.230   6.607 -0.4143  0.0870  0.1294
 1054YOPC   C3A15135  15.702   2.329   6.998 -0.2692  0.1122  0.2221
 1054YOPC   C4A15136  15.637   2.449   7.399  0.0221  0.2240  0.4669
 1054YOPC   C1B15137  15.652   1.686   6.459 -0.0922 -0.0841 -0.2840
 1054YOPC   C2B15138  15.561   1.350   6.818  0.1066  0.2501 -0.0948
 1054YOPC   D3B15139  15.699   1.485   7.186 -0.0314 -0.1869 -0.2640
 1054YOPC   C4B15140  16.080   1.412   7.407 -0.0606  0.1045 -0.2078
 1055YOPC   NC315141   3.365   8.436   5.859  0.0234  0.1207  0.2476
 1055YOPC   PO415142   3.525   8.750   6.222 -0.2250 -0.0726  0.0221
 1055YOPC   GL115143   3.609   9.076   6.518 -0.0258  0.2395 -0.1315
 1055YOPC   GL215144   3.820   9.422   6.490  0.0894  0.0468  0.0535
 1055YOPC   C1A15145   3.628   9.208   6.956 -0.0190  0.0523  0.0525
 1055YOPC   D2A15146   3.590   9.167   7.389 -0.4354  0.3806  0.1177
 1055YOPC   C3A15147   3.210   8.907   7.530  0.2130  0.1717 -0.0102
 1055YOPC   C4A15148   2.896   8.941   7.756  0.1676  0.0246 -0.1234
 1055YOPC   C1B15149   3.894   9.644   6.814  0.1382 -0.2352  0.1720
 1055YOPC   C2B15150   3.696  10.021   6.951 -0.1615  0.0613  0.0801
 1055YOPC   D3B15151   3.687  10.128   7.380  0.1607  0.3441  0.3420
 1055YOPC   C4B15152   3.841  10.143   7.842  0.4096  0.0018 -0.2188
 1056YOPC   NC315153   0.024  17.332   5.587 -0.3106  0.2185  0.1932
 1056YOPC   PO415154   0.317  17.649   5.656 -0.0389 -0.0314 -0.2361
 1056YOPC   GL115155   0.439  17.787   6.075 -0.1572  0.1632  0.1528
 1056YOPC   GL215156   0.739  17.661   6.152  0.1022 -0.1995 -0.1056
 1056YOPC   C1A15157   0.302  17.930   6.516 -0.3256 -0.3126 -0.0872
 1056YOPC   D2A15158   0.110  18.323   6.667  0.0844 -0.2329  0.1107
 1056YOPC   C3A15159   0.035  18.426   7.097 -0.0173 -0.3115 -0.0955
 1056YOPC   C4A15160   0.046  18.456   7.559 -0.0682 -0.1576  0.0999
 1056YOPC   C1B15161   0.744  18.058   6.353  0.0338 -0.1955 -0.0031
 1056YOPC   C2B15162   0.665  18.274   6.594 -0.3062  0.1917  0.2343
 1056YOPC   D3B15163   0.560  18.094   6.984  0.4814  0.4034 -0.1700
 1056YOPC   C4B15164   0.630  17.771   6.995 -0.0463 -0.0557  0.0887
 1057YOPC   NC315165  17.357  11.468   5.260 -0.1214  0.1315 -0.0285
 1057YOPC   PO415166  17.673  11.227   5.388 -0.0059 -0.1844  0.2129
 1057YOPC   GL115167  17.736  11.388   5.648 -0.3094  0.0628  0.0889
 1057YOPC   GL215168  17.558  11.261   5.929 -0.2804 -0.0715  0.2507
 1057YOPC   C1A15169  17.843  11.725   5.888 -0.2732 -0.3943 -0.1125
 1057YOPC   D2A15170  17.998  12.155   6.005  0.0711  0.1939 -0.4014
 1057YOPC   C3A15171  17.646  12.386   6.139  0.0097  0.0858 -0.1618
 1057YOPC   C4A15172  17.531  12.711   6.316 -0.0005  0.0819  0.2666
 1057YOPC   C1B15173  17.446  11.132   6.287  0.1565 -0.1216 -0.0678
 1057YOPC   C2B15174  17.575  10.966   6.685  0.0397  0.3403 -0.0373
 1057YOPC   D3B15175  17.546  11.187   7.021  0.2141  0.2829  0.2678
 1057YOPC   C4B15176  17.365  11.374   7.376 -0.0490 -0.1066  0.2171
 1058YOPC   NC315177   7.683   8.886   5.626  0.0423 -0.4557  0.1936
 1058YOPC   PO415178   7.953   9.074   5.900 -0.0134  0.2318  0.0628
 1058YOPC   GL115179   8.145   9.261   6.262  0.2728  0.1423  0.0745
 1058YOPC   GL215180   7.838   9.232   6.371  0.0029 -0.3645  0.2154
 1058YOPC   C1A15181   8.220   9.075   6.597  0.0031 -0.0499  0.2059
 1058YOPC   D2A15182   8.169   9.112   7.016 -0.2974 -0.0187 -0.1926
 1058YOPC   C3A15183   8.070   9.434   7.237 -0.1989  0.4316  0.1145
 1058YOPC   C4A15184   7.904   9.731   7.528  0.1177 -0.1561 -0.2975
 1058YOPC   C1B15185   7.983   9.537   6.748 -0.1726 -0.0283 -0.0116
 1058YOPC   C2B15186   8.486   9.462   6.741  0.1106  0.0016  0.2258
 1058YOPC   D3B15187   8.742   9.321   7.001 -0.1270 -0.1922  0.3505
 1058YOPC   C4B15188   9.241   9.367   7.191 -0.1785 -0.0479 -0.1679
 1059YOPC   NC315189  14.177   3.342   5.468 -0.2064  0.0722 -0.1150
 1059YOPC   PO415190  13.790   3.274   5.360  0.1153 -0.3488  0.0026
 1059YOPC   GL115191  13.670   3.555   5.737  0.1508  0.1420  0.0986
 1059YOPC   GL215192  13.770   3.790   5.778  0.1037 -0.0383 -0.2011
 1059YOPC   C1A15193  13.875   3.531   6.205 -0.3143 -0.1975  0.2338
 1059YOPC   D2A15194  13.900   3.427   6.720  0.0403  0.0290  0.0173
 1059YOPC   C3A15195  13.661   3.592   6.956 -0.0148  0.1248 -0.2932
 1059YOPC   C4A15196  13.268   3.738   6.977  0.0101 -0.0342  0.0034
 1059YOPC   C1B15197  14.098   4.012   5.912 -0.1445 -0.2190  0.1584
 1059YOPC   C2B15198  14.071   4.359   6.184 -0.3027  0.0120  0.1936
 1059YOPC   D3B15199  14.476   4.584   6.383  0.1341 -0.0304  0.2910
 1059YOPC   C4B15200  14.886   4.694   6.388  0.0348 -0.0018 -0.2247
 1060YOPC   NC315201   1.179   0.105   5.748 -0.0158  0.1237 -0.0175
 1060YOPC   PO415202   0.788   0.316   5.652 -0.0479 -0.0762  0.2887
 1060YOPC   GL115203   0.406   0.300   5.918  0.1606  0.2156 -0.1516
 1060YOPC   GL215204   0.454   0.594   6.022 -0.0074  0.0956 -0.1838
 1060YOPC   C1A15205   0.293   0.303   6.398  0.2045 -0.2576 -0.2898
 1060YOPC   D2A15206   0.352   0.618   6.676 -0.1095 -0.1639 -0.1531
 1060YOPC   C3A15207   0.388   0.559   7.115  0.1547 -0.0247 -0.1336
 1060YOPC   C4A15208   0.082   0.490   7.404 -0.0195  0.0540  0.1165
 1060YOPC   C1B15209   0.791   0.712   6.336 -0.0798 -0.0395  0.2283
 1060YOPC   C2B15210   0.829   0.713   6.800 -0.1624  0.3410 -0.1475
 1060YOPC   D3B15211   0.857   0.389   7.128  0.1928  0.1331  0.1566
 1060YOPC   C4B15212   0.942  -0.015   7.056 -0.0122  0.0233 -0.4276
 1061YOPC   NC315213  12.548   5.552   5.558  0.1364 -0.1952 -0.0971
 1061YOPC   PO415214  12.640   5.134   5.654  0.1153  0.0475 -0.0905
 1061YOPC   GL115215  12.356   5.189   5.979 -0.0329 -0.1510  0.0737
 1061YOPC   GL215216  12.432   4.911   6.333  0.0376  0.0966  0.0714
 1061YOPC   C1A15217  12.101   5.362   6.300  0.1902 -0.2003  0.1743
 1061YOPC   D2A15218  12.015   5.575   6.537  0.1228  0.0505  0.0133
 1061YOPC   C3A15219  12.016   5.564   7.036 -0.1654  0.1066 -0.1601
 1061YOPC   C4A15220  12.027   5.701   7.502  0.1197 -0.2966  0.0889
 1061YOPC   C1B15221  12.618   4.772   6.673 -0.0653  0.2333 -0.0355
 1061YOPC   C2B15222  12.752   4.577   7.081  0.0807 -0.1977 -0.1220
 1061YOPC   D3B15223  13.075   4.662   7.321 -0.0373 -0.2885  0.2486
 1061YOPC   C4B15224  13.408   4.568   7.465 -0.0903  0.1165  0.1125
 1062YOPC   NC315225   7.188  17.133   5.848  0.1612 -0.0314  0.2903
 1062YOPC   PO415226   7.535  17.501   6.017 -0.1136  0.1620 -0.0250
 1062YOPC   GL115227   7.506  17.638   6.419 -0.1563  0.0684  0.0910
 1062YOPC   GL215228   7.696  17.776   6.600  0.0433 -0.0444 -0.1097
 1062YOPC   C1A15229   7.265  17.627   6.794  0.0208 -0.2568  0.1044
 1062YOPC   D2A15230   7.199  17.671   7.286 -0.3614 -0.1945  0.1494
 1062YOPC   C3A15231   6.703  17.713   7.300 -0.0616 -0.1734  0.1872
 1062YOPC   C4A15232   6.370  17.376   7.481 -0.1901  0.1813  0.2542
 1062YOPC   C1B15233   7.629  17.785   7.085 -0.1499 -0.2399  0.2635
 1062YOPC   C2B15234   7.938  17.862   7.460  0.1379 -0.2588 -0.1331
 1062YOPC   D3B15235   7.937  17.869   7.837 -0.0396 -0.4004  0.0547
 1062YOPC   C4B15236   7.839  17.634   8.240  0.0726 -0.2562 -0.1895
 1063YOPC   NC315237  16.591   8.898   5.659 -0.1197  0.2898 -0.1196
 1063YOPC   PO415238  16.042   8.957   5.869 -0.1803 -0.0028  0.0300
 1063YOPC   GL115239  15.893   8.888   6.223 -0.0956 -0.1677 -0.0785
 1063YOPC   GL215240  15.621   8.872   6.307  0.1774 -0.4529 -0.0218
 1063YOPC   C1A15241  15.871   8.506   6.508 -0.3840 -0.1639  0.2410
 1063YOPC   D2A15242  15.658   8.046   6.698  0.0723 -0.0177  0.0065
 1063YOPC   C3A15243  15.185   8.090   6.745  0.1515 -0.0851  0.1582
 1063YOPC   C4A15244  14.775   7.922   6.855 -0.1991 -0.0040  0.0387
 1063YOPC   C1B15245  15.339   8.504   6.578 -0.3514 -0.2814 -0.1542
 1063YOPC   C2B15246  15.214   8.553   6.874 -0.1105 -0.2778  0.1665
 1063YOPC   D3B15247  15.335   8.790   7.269  0.0487 -0.1102 -0.0270
 1063YOPC   C4B15248  14.921   9.013   7.539 -0.1381 -0.1013 -0.3090
 1064YOPC   NC315249  10.197   5.182   6.404  0.2199  0.2540 -0.0387
 1064YOPC   PO415250  10.024   5.608   6.296  0.0679  0.3451 -0.2987
 1064YOPC   GL115251  10.052   5.891   6.670  0.2096  0.1653  0.1952
 1064YOPC   GL215252  10.275   5.616   6.787 -0.0675  0.3939 -0.2435
 1064YOPC   C1A15253   9.901   5.873   7.107  0.0796  0.1217  0.0059
 1064YOPC   D2A15254   9.717   5.764   7.482  0.0293  0.1699  0.0929
 1064YOPC   C3A15255   9.740   5.729   7.986  0.0083 -0.0032 -0.3334
 1064YOPC   C4A15256  10.067   5.930   8.369  0.1098 -0.2345  0.2118
 1064YOPC   C1B15257  10.453   5.719   7.197 -0.0917 -0.1673 -0.0738
 1064YOPC   C2B15258  10.449   5.774   7.680  0.2215  0.0249 -0.1712
 1064YOPC   D3B15259  10.730   5.536   7.612 -0.2605  0.0021 -0.0976
 1064YOPC   C4B15260  11.112   5.247   7.648 -0.0752  0.2791 -0.1499
 1065YOPC   NC315261  13.687   2.042   5.140 -0.3136  0.2824 -0.0567
 1065YOPC   PO415262  13.459   2.274   5.403 -0.1493  0.1284 -0.1480
 1065YOPC   GL115263  13.513   2.457   5.741  0.3583 -0.2273  0.0158
 1065YOPC   GL215264  13.287   2.491   6.017 -0.2868 -0.1749 -0.2273
 1065YOPC   C1A15265  13.773   2.478   6.179  0.1427 -0.2978 -0.3685
 1065YOPC   D2A15266  13.694   2.253   6.499  0.1804  0.0787 -0.0653
 1065YOPC   C3A15267  13.805   2.330   6.975  0.4319 -0.1098  0.1061
 1065YOPC   C4A15268  14.188   2.397   7.189 -0.2573 -0.0997  0.1756
 1065YOPC   C1B15269  13.359   2.657   6.452 -0.0114  0.0275  0.2232
 1065YOPC   C2B15270  13.422   2.577   6.852 -0.0039 -0.1561  0.2477
 1065YOPC   D3B15271  13.169   2.656   7.158  0.4023 -0.1855 -0.1875
 1065YOPC   C4B15272  13.103   2.845   7.564  0.2889 -0.2022 -0.1280
 1066YOPC   NC315273  12.651  16.148   5.010  0.1963  0.1255  0.0191
 1066YOPC   PO415274  12.460  16.522   5.102 -0.0237 -0.1294  0.0981
 1066YOPC   GL115275  12.379  16.602   5.580  0.1719  0.2476 -0.0288
 1066YOPC   GL215276  12.630  16.525   5.800 -0.3387  0.0341 -0.3173
 1066YOPC   C1A15277  12.310  16.821   5.950  0.3149  0.4019 -0.0686
 1066YOPC   D2A15278  12.166  17.030   6.329  0.0155 -0.1373  0.0564
 1066YOPC   C3A15279  11.793  17.266   6.425  0.0317  0.1885  0.3276
 1066YOPC   C4A15280  11.357  17.393   6.504 -0.2209  0.3635  0.0094
 1066YOPC   C1B15281  12.823  16.814   6.092  0.1021 -0.2393  0.1620
 1066YOPC   C2B15282  13.298  16.808   6.319  0.2604  0.0232 -0.0485
 1066YOPC   D3B15283  13.444  16.928   6.672  0.2612  0.4287  0.0479
 1066YOPC   C4B15284  13.395  16.721   7.092  0.2845 -0.0636 -0.3545
 1067YOPC   NC315285  14.284   6.101   5.900 -0.0023  0.1519  0.0657
 1067YOPC   PO415286  14.504   5.673   6.054  0.0844 -0.3013  0.0245
 1067YOPC   GL115287  14.656   5.230   6.238  0.0561 -0.0873 -0.2735
 1067YOPC   GL215288  15.003   5.242   6.302 -0.1251  0.2311  0.1018
 1067YOPC   C1A15289  14.620   5.058   6.660  0.1968  0.1380 -0.1564
 1067YOPC   D2A15290  14.545   5.086   7.097  0.1275  0.2146  0.1392
 1067YOPC   C3A15291  14.768   4.747   7.331  0.4020 -0.2316 -0.0301
 1067YOPC   C4A15292  14.739   4.349   7.631  0.1564 -0.0217 -0.0545
 1067YOPC   C1B15293  15.305   4.932   6.447  0.0087  0.0493 -0.1625
 1067YOPC   C2B15294  15.717   4.744   6.755 -0.2659 -0.0238 -0.1425
 1067YOPC   D3B15295  15.614   4.825   7.131 -0.1898  0.1113 -0.4837
 1067YOPC   C4B15296  15.263   5.106   7.385 -0.0574 -0.1297 -0.0756
 1068YOPC   NC315297   8.536   3.386   6.110 -0.0836 -0.1645 -0.0459
 1068YOPC   PO415298   8.164   3.615   6.341 -0.0683  0.1967  0.0516
 1068YOPC   GL115299   8.182   3.803   6.767 -0.0180  0.1081 -0.1401
 1068YOPC   GL215300   8.433   3.723   6.961 -0.0939  0.0489 -0.0100
 1068YOPC   C1A15301   8.018   4.010   7.127  0.0125 -0.1229 -0.0933
 1068YOPC   D2A15302   7.743   3.857   7.452 -0.0367  0.0755  0.2325
 1068YOPC   C3A15303   7.679   3.903   7.873 -0.2247  0.1233 -0.0873
 1068YOPC   C4A15304   7.645   3.983   8.297 -0.0399  0.1441 -0.0959
 1068YOPC   C1B15305   8.268   3.518   7.261  0.1299 -0.1740 -0.2124
 1068YOPC   C2B15306   8.063   3.549   7.676 -0.0481 -0.1032  0.2531
 1068YOPC   D3B15307   8.202   3.182   7.856  0.2533 -0.1975 -0.3446
 1068YOPC   C4B15308   8.156   2.865   8.076 -0.0003 -0.0729  0.1099
 1069YOPC   NC315309   8.340   8.292   5.430 -0.0930  0.3822 -0.0065
 1069YOPC   PO415310   8.580   8.428   5.850  0.1225  0.2195  0.0282
 1069YOPC   GL115311   8.590   8.379   6.234  0.0639  0.3135 -0.0804
 1069YOPC   GL215312   8.755   8.633   6.445  0.0968 -0.2309  0.0332
 1069YOPC   C1A15313   8.374   8.416   6.644  0.1877  0.0825  0.1633
 1069YOPC   D2A15314   8.494   8.470   7.121 -0.2576 -0.0372  0.0841
 1069YOPC   C3A15315   8.484   8.701   7.372  0.3485  0.1119  0.1548
 1069YOPC   C4A15316   8.484   9.149   7.532  0.0039  0.1742 -0.1284
 1069YOPC   C1B15317   8.834   8.327   6.816  0.2089  0.0501 -0.0272
 1069YOPC   C2B15318   8.964   8.166   7.191 -0.2148 -0.3497  0.3997
 1069YOPC   D3B15319   9.442   8.205   7.060  0.2868  0.2038 -0.3232
 1069YOPC   C4B15320   9.750   8.517   7.079  0.2529 -0.1517 -0.1611
 1070YOPC   NC315321  10.386   9.639   5.400 -0.0753 -0.1471  0.1517
 1070YOPC   PO415322  10.022   9.898   5.529  0.1833  0.0522  0.2901
 1070YOPC   GL115323   9.912   9.898   5.981 -0.0654  0.0914 -0.3988
 1070YOPC   GL215324   9.607   9.809   5.986 -0.2162 -0.1291 -0.0253
 1070YOPC   C1A15325   9.852   9.796   6.465 -0.0315  0.0359 -0.1072
 1070YOPC   D2A15326   9.812   9.773   6.906  0.0131 -0.0297 -0.2023
 1070YOPC   C3A15327   9.801   9.490   7.231  0.0553  0.1138 -0.0996
 1070YOPC   C4A15328   9.920   9.502   7.595 -0.4454  0.0445 -0.0611
 1070YOPC   C1B15329   9.462   9.519   6.318 -0.0623 -0.1278  0.0309
 1070YOPC   C2B15330   9.065   9.432   6.554 -0.1348 -0.0527  0.0439
 1070YOPC   D3B15331   8.998   9.028   6.670 -0.2320 -0.2634  0.0946
 1070YOPC   C4B15332   8.662   8.856   6.903 -0.0160  0.2098  0.0782
 1071YOPC   NC315333  16.821  15.751   5.231 -0.0876  0.0935  0.2312
 1071YOPC   PO415334  17.012  16.126   5.274  0.0433 -0.0645  0.2258
 1071YOPC   GL115335  17.225  16.126   5.636 -0.1735  0.0418 -0.0490
 1071YOPC   GL215336  17.248  15.772   5.569 -0.1099 -0.2194 -0.0205
 1071YOPC   C1A15337  17.225  16.231   6.091  0.3472 -0.0180  0.0886
 1071YOPC   D2A15338  17.202  16.282   6.537  0.0064 -0.1431  0.0637
 1071YOPC   C3A15339  17.429  16.640   6.686 -0.3104  0.0377 -0.0995
 1071YOPC   C4A15340  17.741  16.918   6.573  0.3010  0.1341  0.1267
 1071YOPC   C1B15341  17.152  15.716   5.940 -0.0002 -0.1176  0.0313
 1071YOPC   C2B15342  17.127  15.813   6.342 -0.1767 -0.3033 -0.1532
 1071YOPC   D3B15343  17.210  15.870   6.779  0.2961 -0.3947 -0.0546
 1071YOPC   C4B15344  17.344  16.221   7.003 -0.0836  0.0817  0.0601
 1072YOPC   NC315345   6.054   3.203   6.285 -0.0101 -0.1603 -0.1166
 1072YOPC   PO415346   6.342   3.481   6.128  0.1374  0.1303  0.0705
 1072YOPC   GL115347   6.151   3.634   6.516  0.0754  0.1890 -0.0205
 1072YOPC   GL215348   5.947   3.368   6.758  0.2492 -0.0641 -0.1777
 1072YOPC   C1A15349   6.240   3.716   7.020  0.0879 -0.5095  0.0034
 1072YOPC   D2A15350   6.339   3.879   7.462 -0.0960 -0.1583 -0.2420
 1072YOPC   C3A15351   6.069   4.191   7.695  0.2860  0.0448 -0.1377
 1072YOPC   C4A15352   6.119   4.406   8.169  0.4426  0.0386 -0.2130
 1072YOPC   C1B15353   6.076   3.247   7.091  0.0981 -0.5189 -0.1751
 1072YOPC   C2B15354   5.998   3.403   7.521 -0.0128  0.0968  0.1283
 1072YOPC   D3B15355   6.107   3.133   7.956  0.0812 -0.1172 -0.1590
 1072YOPC   C4B15356   6.388   3.480   8.178  0.2233  0.0941  0.1945
 1073YOPC   NC315357   1.879  14.965   5.574 -0.1355  0.0952  0.1357
 1073YOPC   PO415358   2.308  14.843   5.771  0.0919  0.0213  0.1882
 1073YOPC   GL115359   2.555  14.944   6.233 -0.2319 -0.1766  0.0149
 1073YOPC   GL215360   2.516  15.193   6.371  0.2568 -0.0803 -0.1653
 1073YOPC   C1A15361   2.749  14.736   6.604  0.3584  0.1410  0.2193
 1073YOPC   D2A15362   2.763  14.880   7.049  0.0886 -0.2498  0.0009
 1073YOPC   C3A15363   2.459  14.743   7.361  0.1688 -0.2139 -0.2710
 1073YOPC   C4A15364   2.262  14.690   7.689  0.0629 -0.0030  0.1991
 1073YOPC   C1B15365   2.593  15.222   6.815  0.0953  0.0121  0.2264
 1073YOPC   C2B15366   2.474  15.292   7.294  0.2324 -0.0047 -0.0899
 1073YOPC   D3B15367   1.872  15.507   7.352 -0.1847 -0.0336 -0.0975
 1073YOPC   C4B15368   1.676  15.692   7.712  0.0739  0.1555 -0.1239
 1074YOPC   NC315369  12.062   9.303   5.831  0.1734 -0.2463  0.1369
 1074YOPC   PO415370  12.385   9.645   5.687  0.2388  0.0972  0.0629
 1074YOPC   GL115371  12.337   9.838   6.091  0.1821  0.2415  0.1947
 1074YOPC   GL215372  12.237  10.167   6.161 -0.0652 -0.0588  0.0512
 1074YOPC   C1A15373  12.268   9.940   6.568 -0.0700  0.0058 -0.0512
 1074YOPC   D2A15374  12.045  10.240   6.856  0.1898  0.2337 -0.1383
 1074YOPC   C3A15375  11.969  10.298   7.343  0.1719  0.1058 -0.2469
 1074YOPC   C4A15376  11.751  10.398   7.776  0.0720 -0.0518 -0.0315
 1074YOPC   C1B15377  12.135  10.459   6.415  0.2453  0.1823  0.4152
 1074YOPC   C2B15378  12.153  10.872   6.541  0.3027  0.0587 -0.1210
 1074YOPC   D3B15379  11.757  11.163   6.559 -0.2984 -0.0463 -0.2359
 1074YOPC   C4B15380  11.555  11.340   6.888 -0.0648  0.2595  0.0273
 1075YOPC   NC315381  12.326   7.815   5.856 -0.0235  0.0129  0.0663
 1075YOPC   PO415382  12.741   7.587   5.902 -0.1276 -0.3017 -0.1433
 1075YOPC   GL115383  12.893   7.470   6.368  0.0178  0.2221  0.0194
 1075YOPC   GL215384  13.054   7.646   6.518 -0.1577  0.2579  0.0843
 1075YOPC   C1A15385  12.659   7.357   6.683 -0.2440 -0.0954  0.2094
 1075YOPC   D2A15386  12.506   7.574   7.050 -0.0232 -0.1013  0.0578
 1075YOPC   C3A15387  12.708   7.596   7.420  0.1780 -0.0163  0.2725
 1075YOPC   C4A15388  13.213   7.514   7.482  0.2348  0.0250  0.5009
 1075YOPC   C1B15389  12.998   8.014   6.825 -0.0659 -0.0255 -0.7021
 1075YOPC   C2B15390  13.170   8.063   7.287  0.1830 -0.4515 -0.2513
 1075YOPC   D3B15391  12.810   8.079   7.503  0.1194  0.0026 -0.0195
 1075YOPC   C4B15392  12.533   8.429   7.602 -0.0443 -0.0870 -0.0923
 1076YOPC   NC315393  13.320  10.445   5.438  0.2305 -0.1462 -0.1389
 1076YOPC   PO415394  13.230  10.931   5.490 -0.0965 -0.1867 -0.2166
 1076YOPC   GL115395  12.968  10.944   5.927 -0.0813 -0.1099 -0.0533
 1076YOPC   GL215396  12.970  10.579   5.995 -0.2524 -0.4311  0.1460
 1076YOPC   C1A15397  13.112  10.885   6.351  0.0194  0.0233  0.0704
 1076YOPC   D2A15398  13.160  10.797   6.780  0.1015 -0.0680  0.0599
 1076YOPC   C3A15399  13.606  10.725   6.948 -0.3424 -0.1598  0.0677
 1076YOPC   C4A15400  13.947  10.787   7.276  0.1605  0.4083 -0.0191
 1076YOPC   C1B15401  13.285  10.427   6.275  0.3653 -0.0047  0.2847
 1076YOPC   C2B15402  13.662  10.667   6.433  0.0113 -0.3676  0.0027
 1076YOPC   D3B15403  13.938  10.410   6.664 -0.0840 -0.3794 -0.0397
 1076YOPC   C4B15404  14.385  10.273   6.641 -0.0473 -0.1665 -0.2381
 1077YOPC   NC315405  16.906   0.081   5.481  0.1090 -0.1264 -0.0191
 1077YOPC   PO415406  16.678  -0.182   5.265 -0.2000 -0.2693 -0.3206
 1077YOPC   GL115407  16.682  -0.330   5.685  0.1936  0.0968  0.2884
 1077YOPC   GL215408  17.052  -0.384   5.815 -0.1359  0.2617  0.1913
 1077YOPC   C1A15409  16.687  -0.278   6.224 -0.3503 -0.0323 -0.0081
 1077YOPC   D2A15410  16.521   0.007   6.669  0.2159 -0.1607 -0.1617
 1077YOPC   C3A15411  16.474   0.468   6.704 -0.1822  0.0638  0.3020
 1077YOPC   C4A15412  16.497   0.954   6.766  0.2034  0.2704  0.2072
 1077YOPC   C1B15413  17.218  -0.406   6.148  0.0159  0.4229  0.3605
 1077YOPC   C2B15414  17.531  -0.182   6.359 -0.1841  0.0443 -0.0199
 1077YOPC   D3B15415  17.736  -0.374   6.663  0.1468 -0.0598  0.0695
 1077YOPC   C4B15416  17.837  -0.718   6.872 -0.1885 -0.0817 -0.3255
 1078YOPC   NC315417  13.572  14.412   5.295 -0.0765 -0.1064 -0.3669
 1078YOPC   PO415418  13.922  14.335   5.581 -0.0957 -0.1266 -0.0083
 1078YOPC   GL115419  14.076  14.607   5.957 -0.0568 -0.0195  0.0357
 1078YOPC   GL215420  14.189  14.409   6.174 -0.1773  0.0099  0.0378
 1078YOPC   C1A15421  13.957  14.898   6.202  0.3354  0.0630 -0.4488
 1078YOPC   D2A15422  14.262  15.023   6.543  0.2718  0.0266 -0.3972
 1078YOPC   C3A15423  14.084  14.937   6.961  0.1379 -0.1796  0.0084
 1078YOPC   C4A15424  13.913  14.856   7.348 -0.0851 -0.0752  0.1146
 1078YOPC   C1B15425  14.163  14.496   6.581  0.2199 -0.4032  0.0715
 1078YOPC   C2B15426  14.128  14.377   6.972 -0.0717 -0.1924 -0.0644
 1078YOPC   D3B15427  13.712  14.379   7.129 -0.0484 -0.2429 -0.0500
 1078YOPC   C4B15428  13.599  14.106   7.313 -0.1564  0.0531 -0.2612
 1079YOPC   NC315429  11.312   8.654   5.873 -0.2044 -0.1423 -0.2067
 1079YOPC   PO415430  11.260   8.987   6.105  0.1112 -0.6202 -0.3499
 1079YOPC   GL115431  11.234   8.899   6.529 -0.2166  0.0437  0.0507
 1079YOPC   GL215432  10.974   8.569   6.488  0.3597  0.3469 -0.1679
 1079YOPC   C1A15433  11.392   8.915   6.882  0.2391  0.0247 -0.1317
 1079YOPC   D2A15434  11.442   8.907   7.325  0.0019  0.3446  0.0426
 1079YOPC   C3A15435  11.600   8.458   7.426  0.0646  0.3526  0.1704
 1079YOPC   C4A15436  11.458   8.049   7.420  0.3475 -0.0820 -0.0991
 1079YOPC   C1B15437  11.302   8.435   6.729 -0.0058 -0.3480 -0.0281
 1079YOPC   C2B15438  11.238   8.310   7.093 -0.1009  0.0628  0.0049
 1079YOPC   D3B15439  11.078   8.370   7.480  0.1537 -0.1078  0.0623
 1079YOPC   C4B15440  10.804   8.210   7.739  0.0962  0.1360  0.2714
 1080YOPC   NC315441   5.268   2.828   6.215 -0.4650 -0.2601 -0.0008
 1080YOPC   PO415442   5.006   3.169   6.286  0.0446 -0.0244  0.1942
 1080YOPC   GL115443   4.952   3.291   6.809 -0.0285  0.0838  0.3133
 1080YOPC   GL215444   4.549   3.300   6.892  0.0019 -0.3711  0.3453
 1080YOPC   C1A15445   5.120   3.058   7.130 -0.0704 -0.0337  0.0538
 1080YOPC   D2A15446   5.359   2.836   7.344 -0.1363 -0.0895  0.0511
 1080YOPC   C3A15447   5.732   2.900   7.332  0.0630  0.4783  0.0904
 1080YOPC   C4A15448   5.952   2.857   7.560  0.0484 -0.3205  0.1264
 1080YOPC   C1B15449   4.655   2.978   7.256  0.0006  0.3249  0.1143
 1080YOPC   C2B15450   4.962   2.963   7.563  0.0641 -0.2533 -0.1385
 1080YOPC   D3B15451   4.856   3.081   7.934  0.1167  0.1349 -0.2090
 1080YOPC   C4B15452   4.837   3.428   8.227 -0.1674  0.2051  0.1484
 1081YOPC   NC315453  17.814  17.381   5.126  0.2507  0.1231  0.1339
 1081YOPC   PO415454  18.042  17.544   5.400  0.0310 -0.1804 -0.0293
 1081YOPC   GL115455  18.075  17.159   5.600  0.0511 -0.0711  0.0184
 1081YOPC   GL215456  18.294  17.126   5.983 -0.1951 -0.0171  0.2324
 1081YOPC   C1A15457  17.833  17.031   5.905 -0.0499  0.1423  0.0303
 1081YOPC   D2A15458  17.695  17.343   6.160 -0.0677 -0.0981 -0.0432
 1081YOPC   C3A15459  17.536  17.593   6.468  0.3076 -0.1673 -0.2828
 1081YOPC   C4A15460  17.248  17.898   6.582  0.3965  0.2945  0.2407
 1081YOPC   C1B15461  18.148  17.082   6.378  0.2110  0.0201  0.0448
 1081YOPC   C2B15462  18.049  17.290   6.754 -0.2108  0.3558 -0.0844
 1081YOPC   D3B15463  17.641  17.373   6.940 -0.0696 -0.2208 -0.3770
 1081YOPC   C4B15464  17.403  17.761   7.142  0.0707 -0.1907  0.4215
 1082YOPC   NC315465   3.279  11.635   5.599  0.0722  0.1884  0.2009
 1082YOPC   PO415466   2.940  12.020   5.775 -0.3969  0.0441  0.1886
 1082YOPC   GL115467   2.942  12.149   6.186 -0.1408  0.0872 -0.0033
 1082YOPC   GL215468   2.793  11.998   6.417 -0.0998  0.3950  0.2867
 1082YOPC   C1A15469   3.207  12.278   6.620  0.1624 -0.0545  0.1178
 1082YOPC   D2A15470   3.187  12.299   7.087 -0.0702 -0.2255  0.1925
 1082YOPC   C3A15471   2.726  12.037   7.265 -0.0253 -0.3720 -0.1896
 1082YOPC   C4A15472   2.376  11.851   7.266  0.2111  0.2121 -0.0717
 1082YOPC   C1B15473   2.553  11.814   6.793 -0.2447  0.3189  0.1100
 1082YOPC   C2B15474   2.213  11.614   6.885 -0.3963 -0.3409  0.0457
 1082YOPC   D3B15475   2.111  11.362   7.251 -0.0273  0.0116  0.3020
 1082YOPC   C4B15476   2.238  11.497   7.625  0.0002  0.2542  0.0379
 1083YOPC   NC315477   2.506  15.353   5.842 -0.0209  0.0435  0.0687
 1083YOPC   PO415478   2.164  15.380   5.671  0.1005  0.1438 -0.2323
 1083YOPC   GL115479   2.195  15.761   5.946  0.1100 -0.1636  0.2342
 1083YOPC   GL215480   2.441  15.733   6.193 -0.0021  0.0928 -0.2551
 1083YOPC   C1A15481   2.061  16.130   6.115  0.0303 -0.2150  0.0276
 1083YOPC   D2A15482   1.693  16.263   6.321 -0.0466  0.5199  0.0917
 1083YOPC   C3A15483   1.321  16.419   6.192 -0.2818 -0.2274  0.4561
 1083YOPC   C4A15484   0.887  16.378   6.144 -0.2654  0.2703 -0.1352
 1083YOPC   C1B15485   2.279  15.637   6.587 -0.0232 -0.2595 -0.2002
 1083YOPC   C2B15486   2.158  15.664   7.012 -0.3519  0.2122  0.1496
 1083YOPC   D3B15487   2.095  15.987   7.341  0.0192  0.4496 -0.1603
 1083YOPC   C4B15488   2.166  16.339   7.517 -0.1831  0.1146 -0.0310
 1084YOPC   NC315489   1.130  17.041   5.567  0.0099  0.0229  0.1127
 1084YOPC   PO415490   1.164  17.420   5.729  0.0898 -0.0377  0.2473
 1084YOPC   GL115491   1.199  17.312   6.093 -0.5477 -0.0953 -0.2103
 1084YOPC   GL215492   0.971  17.053   6.109  0.0222 -0.0770  0.0015
 1084YOPC   C1A15493   1.484  17.210   6.459  0.3447 -0.2990 -0.1889
 1084YOPC   D2A15494   1.649  17.045   6.801  0.0489 -0.3295 -0.0719
 1084YOPC   C3A15495   1.963  17.108   6.889 -0.2339 -0.2566  0.1160
 1084YOPC   C4A15496   2.347  16.934   7.079 -0.0157  0.2014  0.0005
 1084YOPC   C1B15497   0.696  17.203   6.369  0.0363 -0.1337 -0.1644
 1084YOPC   C2B15498   0.577  17.521   6.568  0.3144  0.0914 -0.0441
 1084YOPC   D3B15499   0.305  17.329   6.883  0.1270 -0.2664  0.3449
 1084YOPC   C4B15500   0.093  17.602   7.250 -0.3547  0.0707  0.2141
 1085YOPC   NC315501   3.134   0.330   6.136  0.2137  0.0372  0.0206
 1085YOPC   PO415502   3.250   0.679   6.353  0.0088  0.0578  0.0736
 1085YOPC   GL115503   3.119   0.866   6.665  0.1086 -0.0068  0.3551
 1085YOPC   GL215504   3.303   0.907   6.861  0.0568  0.2335 -0.2040
 1085YOPC   C1A15505   2.845   0.958   6.902  0.0518 -0.1739  0.3276
 1085YOPC   D2A15506   2.336   0.771   7.058 -0.0336  0.3382  0.0291
 1085YOPC   C3A15507   2.092   0.757   7.554 -0.1409 -0.3394  0.0819
 1085YOPC   C4A15508   2.107   0.913   7.977 -0.1273 -0.3997 -0.1745
 1085YOPC   C1B15509   3.168   1.033   7.229 -0.1715 -0.2491 -0.0288
 1085YOPC   C2B15510   2.855   0.968   7.628 -0.0551  0.0882  0.2406
 1085YOPC   D3B15511   2.524   0.989   7.635 -0.2038 -0.0217 -0.0461
 1085YOPC   C4B15512   2.125   1.260   7.657  0.2020  0.2687  0.1944
 1086YOPC   NC315513  15.289  10.068   5.917  0.2995 -0.2077 -0.2296
 1086YOPC   PO415514  15.599   9.845   6.013  0.2411  0.1138  0.0331
 1086YOPC   GL115515  15.684   9.835   6.390 -0.1076 -0.1348 -0.1039
 1086YOPC   GL215516  16.060   9.778   6.369 -0.3681 -0.0702 -0.0980
 1086YOPC   C1A15517  15.787  10.078   6.639  0.0746 -0.1315  0.5041
 1086YOPC   D2A15518  15.938  10.153   6.993  0.1036  0.0932  0.0503
 1086YOPC   C3A15519  16.007  10.473   7.275  0.0974  0.3030  0.3063
 1086YOPC   C4A15520  15.751  10.697   7.616 -0.0412  0.2011  0.2123
 1086YOPC   C1B15521  16.256   9.583   6.705 -0.2732 -0.0162  0.1157
 1086YOPC   C2B15522  16.284   9.584   7.068  0.0165  0.1402 -0.0521
 1086YOPC   D3B15523  16.542   9.590   7.411 -0.2319 -0.1308  0.2045
 1086YOPC   C4B15524  16.985   9.389   7.444  0.0727 -0.1065  0.0702
 1087YOPC   NC315525  16.217  16.453   5.311  0.2549 -0.5394  0.2044
 1087YOPC   PO415526  16.003  16.236   4.854  0.2514 -0.2852 -0.1602
 1087YOPC   GL115527  15.805  16.213   5.286  0.4447  0.0171  0.1334
 1087YOPC   GL215528  15.588  15.925   5.401  0.0633 -0.4366  0.1124
 1087YOPC   C1A15529  15.828  16.365   5.826  0.2527 -0.0110 -0.0888
 1087YOPC   D2A15530  16.059  16.194   6.193 -0.1649 -0.2205 -0.0901
 1087YOPC   C3A15531  16.103  16.060   6.654  0.0150 -0.1008  0.0792
 1087YOPC   C4A15532  16.268  15.914   7.109  0.0852 -0.0491  0.1830
 1087YOPC   C1B15533  15.669  15.899   5.834 -0.1469 -0.0381 -0.0439
 1087YOPC   C2B15534  15.767  15.760   6.271  0.0148  0.0993  0.0846
 1087YOPC   D3B15535  15.658  15.812   6.687 -0.3198  0.2464 -0.2746
 1087YOPC   C4B15536  15.726  15.866   7.135 -0.0400  0.0454 -0.0549
 1088YOPC   NC315537  17.384  10.361   5.447 -0.0368  0.1071 -0.0278
 1088YOPC   PO415538  17.734  10.177   5.640  0.1794  0.3355 -0.1068
 1088YOPC   GL115539  17.679  10.034   6.066  0.1764 -0.0570  0.2586
 1088YOPC   GL215540  18.027   9.980   6.035  0.1589 -0.0871 -0.1662
 1088YOPC   C1A15541  17.724  10.078   6.451 -0.3172  0.0522  0.3401
 1088YOPC   D2A15542  17.653  10.345   6.817  0.2908 -0.0412  0.2405
 1088YOPC   C3A15543  17.780  10.102   7.232  0.2625 -0.2403  0.1261
 1088YOPC   C4A15544  18.075   9.996   7.564 -0.0154 -0.0312 -0.4996
 1088YOPC   C1B15545  18.456   9.889   6.210 -0.0190  0.2630  0.2290
 1088YOPC   C2B15546  18.619   9.788   6.638 -0.0115  0.0550  0.0653
 1088YOPC   D3B15547  18.385   9.977   6.859  0.1564  0.2173 -0.2369
 1088YOPC   C4B15548  18.132  10.250   6.880 -0.3864 -0.1955 -0.0456
 1089YOPC   NC315549   8.940   0.408   5.790  0.1191 -0.2196 -0.0616
 1089YOPC   PO415550   9.310   0.606   6.029  0.0065 -0.3681  0.1416
 1089YOPC   GL115551   9.333   0.623   6.396 -0.1322 -0.0966 -0.1694
 1089YOPC   GL215552   9.049   0.445   6.536 -0.1358  0.0689 -0.1699
 1089YOPC   C1A15553   9.453   0.660   6.764 -0.1085 -0.0112 -0.3715
 1089YOPC   D2A15554   9.411   0.532   7.167 -0.0218  0.3772  0.2514
 1089YOPC   C3A15555   9.522   0.694   7.536 -0.1015  0.0506 -0.1746
 1089YOPC   C4A15556   9.738   0.464   7.930 -0.0070  0.1079  0.1038
 1089YOPC   C1B15557   9.218   0.163   6.881  0.2130 -0.0182 -0.3076
 1089YOPC   C2B15558   9.333   0.027   7.246 -0.1055 -0.0226  0.0549
 1089YOPC   D3B15559   9.103   0.283   7.535 -0.2050  0.3077 -0.0332
 1089YOPC   C4B15560   9.238   0.402   7.948 -0.1483 -0.1108  0.1778
 1090YOPC   NC315561   2.928  12.499   5.752  0.2446 -0.2621 -0.2453
 1090YOPC   PO415562   2.620  12.795   5.936  0.0732  0.1753 -0.0769
 1090YOPC   GL115563   2.816  12.626   6.258  0.1716  0.0660 -0.1748
 1090YOPC   GL215564   2.501  12.513   6.474 -0.1702 -0.2652 -0.2656
 1090YOPC   C1A15565   3.122  12.728   6.660 -0.1202 -0.0640  0.0350
 1090YOPC   D2A15566   2.980  12.739   7.026 -0.3386 -0.0604  0.0743
 1090YOPC   C3A15567   2.733  13.010   7.158 -0.0265  0.1961 -0.0398
 1090YOPC   C4A15568   2.310  13.229   7.188  0.1302  0.0899 -0.0254
 1090YOPC   C1B15569   2.686  12.344   6.908 -0.0373  0.0479 -0.0206
 1090YOPC   C2B15570   2.615  12.539   7.310 -0.0642  0.0323  0.0311
 1090YOPC   D3B15571   2.480  12.682   7.692 -0.0442  0.0546 -0.1855
 1090YOPC   C4B15572   2.406  12.439   8.080  0.2129  0.2836 -0.1658
 1091YOPC   NC315573   6.462  16.702   5.934 -0.1504  0.0321  0.0209
 1091YOPC   PO415574   6.705  17.016   6.119 -0.1274 -0.2244  0.0096
 1091YOPC   GL115575   6.779  17.054   6.525  0.1282 -0.0460  0.1476
 1091YOPC   GL215576   6.561  16.976   6.637  0.1014 -0.1873 -0.3104
 1091YOPC   C1A15577   6.966  17.161   6.988  0.1362  0.0283 -0.0895
 1091YOPC   D2A15578   6.833  17.156   7.412 -0.1765  0.1289  0.2614
 1091YOPC   C3A15579   7.087  17.346   7.624 -0.2614  0.1747 -0.1588
 1091YOPC   C4A15580   6.890  17.459   7.955  0.1749 -0.1966 -0.1360
 1091YOPC   C1B15581   6.312  17.066   6.993  0.2983 -0.2740 -0.0282
 1091YOPC   C2B15582   6.014  17.010   7.264 -0.0427  0.0811  0.4877
 1091YOPC   D3B15583   5.916  17.156   7.679 -0.1622 -0.0677  0.0787
 1091YOPC   C4B15584   5.717  17.003   8.030 -0.1093 -0.1192 -0.1122
 1092YOPC   NC315585  17.527   0.203   5.554 -0.3265  0.1864  0.2593
 1092YOPC   PO415586  17.880   0.450   5.710  0.2103 -0.2620 -0.1949
 1092YOPC   GL115587  17.893   0.829   5.883 -0.3059  0.0058  0.0611
 1092YOPC   GL215588  17.593   1.014   5.788 -0.2723  0.0381  0.0703
 1092YOPC   C1A15589  18.023   1.083   6.259 -0.1260  0.1067 -0.0400
 1092YOPC   D2A15590  17.979   1.562   6.418 -0.0268  0.0871  0.0073
 1092YOPC   C3A15591  17.868   1.660   6.824 -0.0400 -0.1187  0.1303
 1092YOPC   C4A15592  18.176   1.655   7.109  0.0631 -0.0655  0.1282
 1092YOPC   C1B15593  17.521   0.872   6.234 -0.1908  0.1272 -0.3063
 1092YOPC   C2B15594  17.330   0.719   6.472  0.0643 -0.1169 -0.1137
 1092YOPC   D3B15595  17.433   0.302   6.478  0.0304  0.1240 -0.2241
 1092YOPC   C4B15596  17.802   0.380   6.381 -0.4347 -0.2586 -0.2217
 1093YOPC   NC315597   2.266  10.075   5.830 -0.0682  0.1764 -0.1125
 1093YOPC   PO415598   2.223  10.490   5.754 -0.0351  0.0083  0.1619
 1093YOPC   GL115599   2.297  10.375   6.235  0.0994  0.1520  0.2579
 1093YOPC   GL215600   2.337   9.996   6.353  0.0661  0.1932  0.2175
 1093YOPC   C1A15601   2.342  10.317   6.707  0.2027  0.0602  0.0718
 1093YOPC   D2A15602   2.383  10.294   7.140  0.2993  0.2852 -0.3188
 1093YOPC   C3A15603   2.214  10.507   7.446 -0.0846  0.3798 -0.1065
 1093YOPC   C4A15604   2.310  10.681   7.926  0.0240 -0.2139  0.0586
 1093YOPC   C1B15605   2.223   9.693   6.514 -0.1119  0.0974 -0.1568
 1093YOPC   C2B15606   1.959   9.495   6.878  0.1669  0.3441  0.1532
 1093YOPC   D3B15607   2.198   9.329   7.286 -0.0187 -0.1638 -0.1514
 1093YOPC   C4B15608   2.387   9.041   7.677 -0.2427 -0.1080 -0.1133
 1094YOPC   NC315609   1.182   8.415   5.873 -0.1025 -0.2730  0.1068
 1094YOPC   PO415610   0.741   8.236   5.791 -0.4993 -0.1016  0.0411
 1094YOPC   GL115611   0.606   8.277   6.130  0.1739 -0.0511 -0.2996
 1094YOPC   GL215612   0.493   8.556   6.367  0.0958 -0.1089  0.1545
 1094YOPC   C1A15613   0.360   8.075   6.443 -0.0214 -0.0413 -0.1037
 1094YOPC   D2A15614   0.192   7.991   6.936  0.2139  0.0518 -0.3091
 1094YOPC   C3A15615  -0.054   7.750   7.116  0.2098  0.0486  0.0387
 1094YOPC   C4A15616  -0.480   7.540   7.116  0.2613 -0.0352 -0.0667
 1094YOPC   C1B15617   0.416   8.435   6.878 -0.0119 -0.0283 -0.0580
 1094YOPC   C2B15618   0.439   8.398   7.301  0.0445 -0.0633  0.0409
 1094YOPC   D3B15619   0.315   8.647   7.575 -0.0551  0.0468 -0.3263
 1094YOPC   C4B15620   0.235   8.667   8.011 -0.0907  0.4552  0.3426
 1095YOPC   NC315621  18.329   0.741   5.635  0.0018  0.0895  0.3501
 1095YOPC   PO415622  18.652   1.043   5.580 -0.2290  0.3998 -0.0863
 1095YOPC   GL115623  18.613   1.038   6.064  0.5062 -0.1901  0.1004
 1095YOPC   GL215624  18.872   1.258   6.147  0.3422 -0.2868 -0.1874
 1095YOPC   C1A15625  18.483   0.867   6.490  0.4258  0.0672 -0.1832
 1095YOPC   D2A15626  18.102   0.588   6.694  0.0693 -0.2446  0.2513
 1095YOPC   C3A15627  17.720   0.773   6.779  0.0752  0.2466  0.0909
 1095YOPC   C4A15628  17.660   1.242   6.559  0.1672  0.0389  0.0597
 1095YOPC   C1B15629  18.482   1.357   6.389  0.0702  0.0178  0.0132
 1095YOPC   C2B15630  18.159   1.211   6.729 -0.2396  0.5997  0.1563
 1095YOPC   D3B15631  17.867   1.269   7.046 -0.0832  0.1056  0.1171
 1095YOPC   C4B15632  17.330   1.280   7.189  0.3912 -0.0871  0.0305
 1096YOPC   NC315633   3.368  14.757   5.932  0.0668 -0.2951  0.3731
 1096YOPC   PO415634   3.876  14.820   5.945  0.3389 -0.0237 -0.1890
 1096YOPC   GL115635   3.816  14.808   6.307 -0.4171  0.2454 -0.3827
 1096YOPC   GL215636   3.611  14.707   6.364 -0.1618  0.1060 -0.1860
 1096YOPC   C1A15637   3.702  15.256   6.660  0.3711  0.0069 -0.0738
 1096YOPC   D2A15638   3.846  15.443   7.020  0.2866  0.3612  0.1027
 1096YOPC   C3A15639   3.569  15.512   7.383 -0.0546  0.0438  0.5487
 1096YOPC   C4A15640   3.482  16.023   7.556 -0.0649  0.5069  0.1274
 1096YOPC   C1B15641   3.429  14.818   6.771  0.0578  0.1276 -0.3163
 1096YOPC   C2B15642   3.203  14.719   7.170  0.1881 -0.1267 -0.5710
 1096YOPC   D3B15643   3.335  14.981   7.556  0.3109 -0.0214  0.0540
 1096YOPC   C4B15644   3.266  15.095   7.991  0.2772  0.0384  0.1103
 1097YOPC   NC315645   2.623  17.221   5.622 -0.1275  0.0225  0.1531
 1097YOPC   PO415646   2.492  17.112   5.947  0.0797 -0.0107  0.0676
 1097YOPC   GL115647   2.106  16.920   5.982  0.3246  0.1152 -0.1321
 1097YOPC   GL215648   2.181  16.635   6.159 -0.4052  0.0181  0.0573
 1097YOPC   C1A15649   1.698  16.732   6.211  0.0300 -0.1927 -0.7175
 1097YOPC   D2A15650   1.370  16.762   6.537  0.2488 -0.1047  0.0989
 1097YOPC   C3A15651   1.094  16.984   6.626  0.2405  0.1967  0.2091
 1097YOPC   C4A15652   0.693  17.024   6.886  0.0573 -0.1218 -0.1347
 1097YOPC   C1B15653   2.015  16.603   6.602  0.0246 -0.1711  0.2758
 1097YOPC   C2B15654   1.619  16.501   6.848  0.0782  0.0245 -0.1316
 1097YOPC   D3B15655   1.440  16.745   7.171  0.0462 -0.2470 -0.2427
 1097YOPC   C4B15656   1.715  17.200   7.346  0.0730  0.0491  0.1385
 1098YOPC   NC315657  18.407   5.214   5.180  0.1654 -0.0755 -0.2226
 1098YOPC   PO415658  18.038   5.071   5.419  0.2058  0.1840 -0.0678
 1098YOPC   GL115659  17.903   5.159   5.874  0.2909 -0.0099 -0.0424
 1098YOPC   GL215660  18.110   5.230   6.127  0.2090 -0.1009  0.1270
 1098YOPC   C1A15661  17.584   4.991   6.288 -0.0635 -0.0310 -0.2891
 1098YOPC   D2A15662  17.565   5.012   6.750  0.0779  0.1008 -0.0520
 1098YOPC   C3A15663  17.227   5.084   6.979  0.1249  0.0408 -0.0422
 1098YOPC   C4A15664  17.261   5.200   7.418  0.1336  0.3896 -0.0782
 1098YOPC   C1B15665  17.912   5.386   6.448  0.1398  0.1523 -0.1294
 1098YOPC   C2B15666  17.966   5.326   6.861 -0.2705 -0.1297 -0.1806
 1098YOPC   D3B15667  18.046   5.626   7.289 -0.0853 -0.1607  0.1394
 1098YOPC   C4B15668  18.353   5.962   7.409 -0.3039  0.0925  0.0986
 1099YOPC   NC315669   6.201  11.534   5.771 -0.0514  0.2162  0.2837
 1099YOPC   PO415670   5.808  11.555   6.003  0.0136  0.1511 -0.0246
 1099YOPC   GL115671   5.502  11.554   6.268 -0.0563 -0.0657 -0.1127
 1099YOPC   GL215672   5.174  11.651   6.382 -0.1874  0.0586  0.1017
 1099YOPC   C1A15673   5.803  11.454   6.657 -0.0865 -0.2416  0.0797
 1099YOPC   D2A15674   6.039  11.321   6.965  0.0907  0.2258  0.0353
 1099YOPC   C3A15675   5.847  11.177   7.421  0.0428 -0.1891 -0.0222
 1099YOPC   C4A15676   5.985  11.321   7.880  0.0244 -0.2159  0.1593
 1099YOPC   C1B15677   5.110  11.745   6.803 -0.0350 -0.0585  0.0402
 1099YOPC   C2B15678   5.266  11.999   6.996  0.0610 -0.1038 -0.2778
 1099YOPC   D3B15679   5.052  11.872   7.389 -0.0030 -0.1635  0.0185
 1099YOPC   C4B15680   5.205  11.774   7.764 -0.1342 -0.0304 -0.1698
 1100YOPC   NC315681   9.471   9.843   5.489  0.0093 -0.0607  0.1593
 1100YOPC   PO415682   9.533  10.240   5.668 -0.3158 -0.1195 -0.2522
 1100YOPC   GL115683   9.509  10.257   6.115  0.2519  0.0685 -0.3469
 1100YOPC   GL215684   9.635  10.551   6.344 -0.1284 -0.1607  0.5222
 1100YOPC   C1A15685   9.333  10.051   6.370  0.0604 -0.0632 -0.0042
 1100YOPC   D2A15686   9.563  10.190   6.737  0.2250  0.0130 -0.2171
 1100YOPC   C3A15687   9.356  10.326   7.143  0.0512  0.1536  0.0272
 1100YOPC   C4A15688   9.181  10.301   7.520  0.0927 -0.0152  0.1722
 1100YOPC   C1B15689   9.651  10.693   6.798 -0.2378 -0.2135  0.0689
 1100YOPC   C2B15690   9.525  10.998   7.005 -0.0543  0.0998 -0.1217
 1100YOPC   D3B15691   9.444  10.972   7.504 -0.0327  0.1686 -0.1695
 1100YOPC   C4B15692   9.794  10.885   7.946 -0.3012  0.0438 -0.1106
 1101YOPC   NC315693   5.437   8.633   5.976 -0.0064  0.2282 -0.2389
 1101YOPC   PO415694   5.621   8.940   6.217 -0.1566 -0.0096 -0.0148
 1101YOPC   GL115695   5.693   9.302   6.520  0.0925  0.1337 -0.3232
 1101YOPC   GL215696   5.979   9.479   6.544 -0.0532  0.1336 -0.0290
 1101YOPC   C1A15697   5.739   9.306   6.991  0.2087  0.0583 -0.2248
 1101YOPC   D2A15698   5.669   9.430   7.423  0.0404 -0.0769 -0.2249
 1101YOPC   C3A15699   5.453   9.278   7.752  0.1171  0.2423 -0.1466
 1101YOPC   C4A15700   5.455   9.017   8.072 -0.1994  0.2671  0.1050
 1101YOPC   C1B15701   6.132   9.703   6.932 -0.0785  0.1355  0.1176
 1101YOPC   C2B15702   6.082   9.710   7.333  0.0263  0.1312 -0.0677
 1101YOPC   D3B15703   6.478   9.561   7.623 -0.0123 -0.0045  0.2127
 1101YOPC   C4B15704   6.746   9.579   8.035  0.2127 -0.4969 -0.0938
 1102YOPC   NC315705  16.155   6.308   5.532 -0.0180  0.0457  0.2711
 1102YOPC   PO415706  15.839   5.909   5.674  0.0830 -0.2542  0.0941
 1102YOPC   GL115707  15.703   5.864   6.055  0.1918  0.0277  0.2726
 1102YOPC   GL215708  15.583   5.546   6.240  0.1339 -0.0573 -0.0561
 1102YOPC   C1A15709  15.611   5.937   6.523 -0.1498 -0.1508 -0.2400
 1102YOPC   D2A15710  15.327   6.209   6.726 -0.2806  0.3047  0.1009
 1102YOPC   C3A15711  15.149   6.135   6.992  0.1440  0.0260 -0.0105
 1102YOPC   C4A15712  14.985   6.047   7.354 -0.3632  0.1682  0.1194
 1102YOPC   C1B15713  15.444   5.390   6.548 -0.0354  0.2123  0.0123
 1102YOPC   C2B15714  15.368   5.147   6.881  0.3635 -0.2829  0.0200
 1102YOPC   D3B15715  15.016   4.909   6.933 -0.0065  0.0003  0.2099
 1102YOPC   C4B15716  14.709   4.558   6.827 -0.2364 -0.3635  0.1647
 1103YOPC   NC315717  17.003   2.308   5.588  0.0298 -0.1235 -0.0271
 1103YOPC   PO415718  16.982   1.898   5.758  0.0569 -0.3568  0.0209
 1103YOPC   GL115719  16.942   1.964   6.193  0.2630  0.2086  0.3231
 1103YOPC   GL215720  16.953   1.642   6.407  0.3116  0.2371 -0.1652
 1103YOPC   C1A15721  17.044   2.040   6.711 -0.2935  0.0580  0.1419
 1103YOPC   D2A15722  17.107   1.982   7.155  0.1262  0.0161 -0.1651
 1103YOPC   C3A15723  16.972   2.117   7.568  0.1219  0.1283  0.1400
 1103YOPC   C4A15724  16.990   2.543   7.718  0.1381 -0.2553 -0.0167
 1103YOPC   C1B15725  17.220   1.257   6.323 -0.0811 -0.0774 -0.2668
 1103YOPC   C2B15726  17.142   1.145   6.703  0.1981  0.0520 -0.3471
 1103YOPC   D3B15727  16.870   1.484   6.918  0.1813  0.1642  0.0109
 1103YOPC   C4B15728  16.653   1.789   6.977  0.0061 -0.0876  0.1378
 1104YOPC   NC315729   9.535   5.827   6.315 -0.0594  0.1723 -0.0107
 1104YOPC   PO415730   9.441   5.391   6.205  0.0026  0.3071 -0.0716
 1104YOPC   GL115731   9.518   5.418   6.595  0.0197 -0.2615 -0.1244
 1104YOPC   GL215732   9.264   5.334   6.725 -0.0111  0.0635  0.2409
 1104YOPC   C1A15733   9.767   5.422   6.951 -0.1771 -0.0682 -0.2429
 1104YOPC   D2A15734  10.045   5.453   7.242 -0.2386  0.0051  0.0112
 1104YOPC   C3A15735  10.337   5.260   7.359  0.0357  0.2412 -0.3357
 1104YOPC   C4A15736  10.758   5.120   7.242 -0.1569  0.1505 -0.1876
 1104YOPC   C1B15737   9.256   5.411   7.096 -0.1667  0.1375  0.1497
 1104YOPC   C2B15738   9.268   5.610   7.441  0.2122 -0.1569  0.1409
 1104YOPC   D3B15739   9.105   5.956   7.404  0.1575  0.0144 -0.1287
 1104YOPC   C4B15740   8.958   6.354   7.565  0.0564 -0.3048  0.0646
 1105YOPC   NC315741  14.959   7.521   5.560  0.0800 -0.2714 -0.0570
 1105YOPC   PO415742  15.344   7.566   5.604  0.1986  0.0797 -0.1019
 1105YOPC   GL115743  15.276   7.435   6.073 -0.0218  0.1612  0.3154
 1105YOPC   GL215744  15.057   7.135   6.066  0.0360 -0.0529  0.0112
 1105YOPC   C1A15745  15.334   7.417   6.448 -0.2179  0.0150  0.1060
 1105YOPC   D2A15746  15.203   7.550   6.801  0.2626  0.0596  0.2637
 1105YOPC   C3A15747  15.382   7.492   7.157 -0.0753  0.1591 -0.2374
 1105YOPC   C4A15748  15.735   7.693   7.289 -0.0468 -0.1587  0.0434
 1105YOPC   C1B15749  14.881   7.263   6.531  0.1738  0.1563 -0.1552
 1105YOPC   C2B15750  14.800   7.319   7.033 -0.0897 -0.1183 -0.2660
 1105YOPC   D3B15751  14.643   7.133   7.458 -0.1358  0.3359 -0.1238
 1105YOPC   C4B15752  14.979   7.158   7.766 -0.1961  0.0318 -0.2169
 1106YOPC   NC315753   4.527  14.386   5.564 -0.2017  0.1599  0.0716
 1106YOPC   PO415754   4.367  14.603   5.760  0.0672 -0.0970 -0.0611
 1106YOPC   GL115755   4.383  14.790   6.192  0.0752 -0.0523 -0.0636
 1106YOPC   GL215756   4.700  14.607   6.327  0.1760  0.0657  0.2614
 1106YOPC   C1A15757   4.284  15.093   6.536  0.0545  0.2128  0.0806
 1106YOPC   D2A15758   4.289  15.239   6.919 -0.1016 -0.4324 -0.0235
 1106YOPC   C3A15759   4.050  15.214   7.349 -0.1694  0.1760 -0.1663
 1106YOPC   C4A15760   3.796  15.135   7.670 -0.0663 -0.0701  0.0871
 1106YOPC   C1B15761   4.701  14.779   6.701 -0.2695 -0.0784 -0.2399
 1106YOPC   C2B15762   4.580  14.814   7.162 -0.1186  0.2181 -0.0310
 1106YOPC   D3B15763   4.186  14.683   7.439 -0.0194  0.0102 -0.3214
 1106YOPC   C4B15764   3.693  14.592   7.504 -0.0790  0.1545 -0.1949
 1107YOPC   NC315765   7.214   2.557   5.947  0.2036  0.0193 -0.0831
 1107YOPC   PO415766   7.563   2.722   6.071 -0.0655  0.0050  0.2337
 1107YOPC   GL115767   7.693   2.746   6.415 -0.1428 -0.4500 -0.2709
 1107YOPC   GL215768   7.530   2.962   6.622  0.1508 -0.0357  0.3291
 1107YOPC   C1A15769   7.512   2.480   6.780  0.1737 -0.0063  0.1073
 1107YOPC   D2A15770   7.417   2.172   7.131  0.0902 -0.0567  0.2273
 1107YOPC   C3A15771   7.648   2.299   7.516  0.2755  0.3032 -0.2189
 1107YOPC   C4A15772   7.858   2.395   7.935  0.0734 -0.1133  0.0599
 1107YOPC   C1B15773   7.497   3.017   7.017  0.0557 -0.1440 -0.0963
 1107YOPC   C2B15774   7.459   2.675   7.251 -0.0688 -0.0867 -0.0604
 1107YOPC   D3B15775   7.271   2.643   7.660  0.0522  0.0821  0.2247
 1107YOPC   C4B15776   7.553   2.809   7.959 -0.0262 -0.0593  0.1702
 1108YOPC   NC315777   2.982   4.391   6.137 -0.0940  0.3330 -0.0731
 1108YOPC   PO415778   2.778   4.049   6.316  0.3206  0.3517 -0.1492
 1108YOPC   GL115779   2.605   3.827   6.601 -0.0177 -0.1511  0.0305
 1108YOPC   GL215780   2.318   4.016   6.672  0.2579  0.0706  0.1582
 1108YOPC   C1A15781   2.484   3.478   6.844 -0.0273  0.1561  0.0065
 1108YOPC   D2A15782   2.554   3.018   7.042  0.0224  0.2427  0.0639
 1108YOPC   C3A15783   2.130   2.845   7.132  0.1986  0.1080  0.0028
 1108YOPC   C4A15784   1.733   2.970   6.955 -0.0736 -0.1844 -0.0364
 1108YOPC   C1B15785   1.840   4.009   6.841 -0.0153  0.0724 -0.1061
 1108YOPC   C2B15786   1.364   4.026   6.930 -0.2442  0.1317 -0.2291
 1108YOPC   D3B15787   1.113   4.359   7.186 -0.4216  0.2713 -0.1657
 1108YOPC   C4B15788   0.959   4.263   7.561  0.0910 -0.0859 -0.4631
 1109YOPC   NC315789   3.866  18.104   5.826  0.0504 -0.0577  0.0626
 1109YOPC   PO415790   3.980  18.296   6.138  0.1125  0.0056 -0.0390
 1109YOPC   GL115791   3.919  18.330   6.601  0.2634 -0.0199  0.2642
 1109YOPC   GL215792   4.182  18.338   6.774  0.1810  0.0416 -0.2435
 1109YOPC   C1A15793   3.701  18.072   6.875 -0.1506  0.1501 -0.3880
 1109YOPC   D2A15794   3.610  18.145   7.349 -0.2310 -0.0321 -0.1830
 1109YOPC   C3A15795   3.426  18.460   7.629  0.0582  0.0588  0.1442
 1109YOPC   C4A15796   3.509  18.804   7.971  0.4248  0.1328  0.3344
 1109YOPC   C1B15797   4.202  18.120   7.010  0.2001 -0.1294 -0.0841
 1109YOPC   C2B15798   4.160  18.005   7.460  0.0778  0.3110 -0.0276
 1109YOPC   D3B15799   4.206  17.627   7.602  0.0092 -0.0836 -0.1840
 1109YOPC   C4B15800   4.300  17.208   7.806  0.0621  0.0242 -0.0059
 1110YOPC   NC315801  15.974  10.420   5.372  0.1410  0.2659  0.0550
 1110YOPC   PO415802  16.019  10.291   5.749  0.1046 -0.2562 -0.3698
 1110YOPC   GL115803  15.967  10.223   6.124  0.3870 -0.2030  0.0271
 1110YOPC   GL215804  16.274  10.283   6.286  0.2931  0.3298 -0.2377
 1110YOPC   C1A15805  15.895  10.512   6.401 -0.3016  0.1523  0.1023
 1110YOPC   D2A15806  15.923  10.667   6.687  0.0487 -0.0363  0.1882
 1110YOPC   C3A15807  16.278  10.741   6.941  0.1384  0.2619 -0.0136
 1110YOPC   C4A15808  16.460  11.083   7.184 -0.1687  0.3057 -0.0995
 1110YOPC   C1B15809  16.353  10.192   6.719 -0.0602  0.2995 -0.2174
 1110YOPC   C2B15810  16.475  10.093   7.057  0.0110  0.1959 -0.0769
 1110YOPC   D3B15811  16.193   9.950   7.393 -0.4771  0.1544 -0.0336
 1110YOPC   C4B15812  15.957   9.850   7.699 -0.1643 -0.2306  0.1689
 1111YOPC   NC315813  10.966   9.423   6.112  0.1062 -0.0320  0.0673
 1111YOPC   PO415814  11.168   9.830   6.021 -0.1706 -0.0780  0.0357
 1111YOPC   GL115815  11.170   9.841   6.404 -0.0510  0.1280 -0.0872
 1111YOPC   GL215816  11.489   9.955   6.400  0.3833 -0.0800  0.3294
 1111YOPC   C1A15817  11.358   9.428   6.665 -0.0501 -0.0777  0.0750
 1111YOPC   D2A15818  11.200   9.356   7.032 -0.1590 -0.1766 -0.2396
 1111YOPC   C3A15819  11.198   9.655   7.394 -0.0721 -0.1251  0.3295
 1111YOPC   C4A15820  10.863   9.555   7.703  0.2120  0.0078  0.0220
 1111YOPC   C1B15821  11.759   9.700   6.566 -0.2381 -0.2246 -0.2326
 1111YOPC   C2B15822  12.113   9.484   6.471  0.0979 -0.1752  0.0599
 1111YOPC   D3B15823  12.217   9.234   6.726 -0.3503 -0.1045 -0.0628
 1111YOPC   C4B15824  12.316   9.215   7.157 -0.0387  0.3694 -0.0263
 1112YOPC   NC315825  11.455   0.329   4.995 -0.0623  0.0592 -0.1431
 1112YOPC   PO415826  11.130   0.527   5.280 -0.2336 -0.0467 -0.0243
 1112YOPC   GL115827  11.091   0.261   5.650  0.2830 -0.0705 -0.0090
 1112YOPC   GL215828  10.860   0.348   5.852  0.0916  0.4106  0.0233
 1112YOPC   C1A15829  11.295   0.043   6.028  0.0252  0.0537 -0.0411
 1112YOPC   D2A15830  11.275  -0.208   6.405  0.0426 -0.0874 -0.1561
 1112YOPC   C3A15831  11.536  -0.593   6.638 -0.2131  0.2043 -0.1043
 1112YOPC   C4A15832  11.759  -0.921   6.996 -0.0448 -0.0370 -0.0842
 1112YOPC   C1B15833  10.668   0.384   6.204  0.3639 -0.0181  0.1238
 1112YOPC   C2B15834  10.282   0.338   6.381  0.0518 -0.2196 -0.0481
 1112YOPC   D3B15835  10.165   0.069   6.601 -0.3295  0.0279  0.0999
 1112YOPC   C4B15836  10.127   0.060   6.978  0.1784  0.1358  0.0070
 1113YOPC   NC315837  11.789  16.908   4.721 -0.1609 -0.0089 -0.0774
 1113YOPC   PO415838  11.764  17.229   4.833  0.2836 -0.0043  0.3836
 1113YOPC   GL115839  11.713  17.108   5.247  0.0123 -0.0461 -0.4165
 1113YOPC   GL215840  11.591  17.319   5.576  0.0131  0.0278 -0.0519
 1113YOPC   C1A15841  11.881  16.833   5.700 -0.2518  0.0579  0.0745
 1113YOPC   D2A15842  11.769  16.835   6.090  0.0308  0.0166 -0.2731
 1113YOPC   C3A15843  11.413  16.716   6.294 -0.1017  0.1755 -0.2495
 1113YOPC   C4A15844  11.176  16.924   6.521  0.2006  0.3160  0.0223
 1113YOPC   C1B15845  12.080  17.319   5.784  0.2501  0.1016  0.0749
 1113YOPC   C2B15846  12.283  17.503   6.132 -0.1591 -0.0558  0.0926
 1113YOPC   D3B15847  12.206  17.560   6.635  0.0372 -0.1675  0.0583
 1113YOPC   C4B15848  12.379  17.762   7.036 -0.2844  0.0555 -0.2637
 1114YOPC   NC315849   7.927  16.578   5.885  0.1334 -0.1353 -0.0823
 1114YOPC   PO415850   8.190  16.150   5.890  0.2245  0.0834  0.1965
 1114YOPC   GL115851   8.334  16.322   6.149  0.3020 -0.1337  0.3495
 1114YOPC   GL215852   8.055  16.211   6.355 -0.0047  0.1272 -0.0295
 1114YOPC   C1A15853   8.351  16.611   6.426  0.2970  0.2925  0.1338
 1114YOPC   D2A15854   7.937  16.870   6.406  0.1524  0.2978 -0.1620
 1114YOPC   C3A15855   7.721  16.799   6.870  0.0009 -0.0492  0.3955
 1114YOPC   C4A15856   7.959  16.942   7.163 -0.3292  0.0574 -0.1018
 1114YOPC   C1B15857   8.054  16.469   6.761  0.0130  0.4720  0.2503
 1114YOPC   C2B15858   8.082  16.305   7.127 -0.1052  0.2781 -0.2066
 1114YOPC   D3B15859   8.067  16.612   7.532 -0.2081 -0.1331  0.1069
 1114YOPC   C4B15860   7.971  16.974   7.725 -0.2045  0.2737  0.2200
 1115YOPC   NC315861  13.556   9.126   5.402 -0.0259 -0.3586 -0.0441
 1115YOPC   PO415862  13.365   9.531   5.272 -0.3471  0.1091 -0.0625
 1115YOPC   GL115863  13.751   9.562   5.585 -0.2496  0.1075 -0.2266
 1115YOPC   GL215864  13.771   9.303   5.839  0.2313  0.2344 -0.0621
 1115YOPC   C1A15865  13.883   9.975   5.690  0.1170  0.4022 -0.0876
 1115YOPC   D2A15866  13.722  10.227   6.067  0.2976 -0.1563 -0.3620
 1115YOPC   C3A15867  13.724  10.062   6.414  0.0327 -0.0746 -0.0060
 1115YOPC   C4A15868  13.466  10.291   6.813  0.0007 -0.2530  0.2369
 1115YOPC   C1B15869  13.571   9.073   6.172 -0.2406 -0.2431  0.1682
 1115YOPC   C2B15870  13.488   8.948   6.576  0.1287  0.1590 -0.1379
 1115YOPC   D3B15871  13.915   9.014   6.706 -0.1041  0.3159  0.0288
 1115YOPC   C4B15872  14.368   8.942   6.693 -0.2457 -0.3726  0.2560
 1116YOPC   NC315873   6.361   9.715   6.263  0.0144  0.1065 -0.0566
 1116YOPC   PO415874   6.379   9.280   6.359  0.1600  0.3764  0.0223
 1116YOPC   GL115875   6.447   9.295   6.805 -0.1050 -0.2441  0.1361
 1116YOPC   GL215876   6.263   9.105   6.982 -0.1546  0.1348 -0.1938
 1116YOPC   C1A15877   6.697   9.509   7.085 -0.0550  0.0681 -0.0572
 1116YOPC   D2A15878   6.883   9.576   7.266 -0.4085 -0.0527 -0.1311
 1116YOPC   C3A15879   6.902   9.896   7.567  0.0780  0.0248  0.0297
 1116YOPC   C4A15880   7.141   9.927   7.813 -0.0111  0.2717 -0.2063
 1116YOPC   C1B15881   6.118   9.195   7.372 -0.2369  0.1341 -0.3304
 1116YOPC   C2B15882   6.009   9.316   7.736  0.2058  0.1068 -0.2136
 1116YOPC   D3B15883   6.057   9.105   8.141 -0.0164 -0.0988 -0.3415
 1116YOPC   C4B15884   5.967   8.666   8.172 -0.3752 -0.2103 -0.1098
 1117YOPC   NC315885   4.766  10.867   6.009  0.0126  0.0320  0.2277
 1117YOPC   PO415886   4.449  10.607   6.127 -0.2481  0.1535  0.0838
 1117YOPC   GL115887   4.649  10.930   6.462  0.1242  0.0656 -0.0399
 1117YOPC   GL215888   4.929  10.735   6.535  0.2423  0.3572  0.0474
 1117YOPC   C1A15889   4.572  10.901   6.970 -0.2178 -0.2167 -0.0164
 1117YOPC   D2A15890   4.703  10.828   7.420 -0.0694 -0.0291 -0.0769
 1117YOPC   C3A15891   4.686  10.522   7.764 -0.2740  0.4090 -0.0237
 1117YOPC   C4A15892   4.619  10.242   8.052  0.0626 -0.1944 -0.1211
 1117YOPC   C1B15893   5.151  10.689   6.906  0.1992 -0.0954 -0.3497
 1117YOPC   C2B15894   5.157  10.964   7.219  0.0198  0.1556 -0.0500
 1117YOPC   D3B15895   5.413  11.070   7.545  0.0392  0.2365  0.2300
 1117YOPC   C4B15896   5.486  11.332   7.976 -0.0050 -0.0799  0.0225
 1118YOPC   NC315897   1.716   6.251   5.581  0.1892  0.3104 -0.2699
 1118YOPC   PO415898   1.482   6.067   5.895  0.2374 -0.1542 -0.1763
 1118YOPC   GL115899   1.407   6.167   6.282 -0.0474  0.0876  0.4087
 1118YOPC   GL215900   1.074   6.138   6.523  0.2811 -0.1003  0.2088
 1118YOPC   C1A15901   1.661   6.422   6.494  0.0547 -0.2165  0.0581
 1118YOPC   D2A15902   1.958   6.382   6.861 -0.1383 -0.0533 -0.1680
 1118YOPC   C3A15903   2.369   6.430   7.045  0.3206 -0.2656 -0.0766
 1118YOPC   C4A15904   2.623   6.433   7.354  0.0441  0.1127 -0.2014
 1118YOPC   C1B15905   1.253   6.355   6.841 -0.0668 -0.0329  0.1343
 1118YOPC   C2B15906   1.221   6.618   7.227  0.1487 -0.1494 -0.0425
 1118YOPC   D3B15907   1.283   6.489   7.702 -0.1165 -0.0703 -0.0334
 1118YOPC   C4B15908   1.541   6.479   8.034 -0.1553  0.5112  0.1296
 1119YOPC   NC315909  12.244   8.096   6.267  0.3485 -0.0045 -0.0229
 1119YOPC   PO415910  11.948   7.806   6.175  0.2529 -0.0456 -0.1429
 1119YOPC   GL115911  11.761   7.853   6.470 -0.0981  0.3150 -0.0515
 1119YOPC   GL215912  11.690   8.138   6.570  0.0925 -0.1426 -0.1084
 1119YOPC   C1A15913  11.579   7.830   6.903  0.2253  0.1918  0.1053
 1119YOPC   D2A15914  11.201   7.799   6.967 -0.2622 -0.0938 -0.3276
 1119YOPC   C3A15915  10.943   7.928   7.337 -0.0807  0.4283 -0.3161
 1119YOPC   C4A15916  10.553   7.761   7.407 -0.3181 -0.0600 -0.2082
 1119YOPC   C1B15917  11.828   8.475   6.870 -0.1059 -0.0781 -0.0365
 1119YOPC   C2B15918  11.830   8.794   7.054  0.1309 -0.0110  0.2464
 1119YOPC   D3B15919  11.920   9.039   7.485 -0.2459  0.1710  0.1417
 1119YOPC   C4B15920  12.071   9.469   7.657 -0.0739 -0.1455  0.0951
 1120YOPC   NC315921  12.750  18.009   5.206  0.3831  0.3239  0.2997
 1120YOPC   PO415922  12.366  18.001   5.230  0.0634  0.1542  0.1833
 1120YOPC   GL115923  12.409  17.974   5.661 -0.1543 -0.1996 -0.1383
 1120YOPC   GL215924  12.097  17.834   5.810  0.0000  0.2605  0.1473
 1120YOPC   C1A15925  12.491  18.071   6.133  0.2482  0.1582 -0.0901
 1120YOPC   D2A15926  12.401  18.028   6.521  0.2223  0.0940  0.1338
 1120YOPC   C3A15927  12.489  18.293   6.901  0.1760 -0.2643  0.1321
 1120YOPC   C4A15928  12.552  18.456   7.286  0.1360  0.0059 -0.1777
 1120YOPC   C1B15929  12.017  17.862   6.306 -0.0546 -0.1355  0.1959
 1120YOPC   C2B15930  11.978  17.969   6.809 -0.0260 -0.2413 -0.0408
 1120YOPC   D3B15931  12.055  18.196   7.168  0.0043  0.2007  0.1694
 1120YOPC   C4B15932  12.107  18.453   7.522 -0.0227 -0.4675 -0.0127
 1121YOPC   NC315933   3.600   5.732   6.676 -0.0324 -0.1621 -0.0354
 1121YOPC   PO415934   3.748   5.376   6.555 -0.0435 -0.1881 -0.3346
 1121YOPC   GL115935   3.407   5.410   6.923  0.2408 -0.1469  0.2510
 1121YOPC   GL215936   3.184   5.603   6.947 -0.1027 -0.1152 -0.1513
 1121YOPC   C1A15937   3.443   5.447   7.287 -0.0827  0.1667 -0.2636
 1121YOPC   D2A15938   3.420   5.183   7.672 -0.1837 -0.0650  0.1295
 1121YOPC   C3A15939   3.810   5.256   7.899 -0.0423 -0.1055  0.3210
 1121YOPC   C4A15940   4.100   5.063   8.343 -0.1279  0.1671 -0.0382
 1121YOPC   C1B15941   2.926   5.517   7.263  0.0264 -0.1194 -0.0110
 1121YOPC   C2B15942   2.571   5.487   7.581 -0.1935  0.0881 -0.0847
 1121YOPC   D3B15943   2.179   5.289   7.516  0.0646 -0.1811 -0.1110
 1121YOPC   C4B15944   1.769   5.300   7.292  0.2206  0.3693 -0.0937
 1122YOPC   NC315945   4.558  12.672   6.130 -0.3039 -0.1440  0.3509
 1122YOPC   PO415946   4.242  12.448   5.977  0.0157  0.1067  0.3167
 1122YOPC   GL115947   4.214  12.360   6.391  0.2249  0.1762 -0.1426
 1122YOPC   GL215948   4.535  12.378   6.524 -0.1119 -0.1206  0.0700
 1122YOPC   C1A15949   4.178  12.641   6.884 -0.0926  0.1602  0.0168
 1122YOPC   D2A15950   4.198  12.735   7.321  0.1998  0.0985 -0.1961
 1122YOPC   C3A15951   4.415  12.543   7.687  0.2504 -0.0009  0.0884
 1122YOPC   C4A15952   4.619  12.203   7.822  0.2610 -0.1764  0.3539
 1122YOPC   C1B15953   4.650  12.600   6.926 -0.1111  0.0674  0.0403
 1122YOPC   C2B15954   4.686  12.841   7.234 -0.1573 -0.2429  0.4364
 1122YOPC   D3B15955   4.841  12.748   7.612 -0.1361 -0.3155  0.1242
 1122YOPC   C4B15956   4.897  12.541   8.063  0.0781 -0.0739  0.2132
 1123YOPC   NC315957  14.335  11.737   5.381 -0.0924 -0.0168 -0.2194
 1123YOPC   PO415958  13.954  11.425   5.607 -0.1866 -0.0472  0.2143
 1123YOPC   GL115959  13.764  11.178   5.990  0.2496  0.0019 -0.0455
 1123YOPC   GL215960  13.377  11.260   6.005 -0.3047  0.0664 -0.0525
 1123YOPC   C1A15961  13.665  11.134   6.426 -0.2511 -0.0555 -0.1187
 1123YOPC   D2A15962  13.563  11.312   6.779  0.0682 -0.1678 -0.2706
 1123YOPC   C3A15963  13.323  11.246   7.098  0.0725 -0.4976 -0.0644
 1123YOPC   C4A15964  12.954  11.087   7.362  0.0558  0.1284 -0.1378
 1123YOPC   C1B15965  13.238  11.417   6.398  0.0776 -0.0663  0.0760
 1123YOPC   C2B15966  12.999  11.334   6.778 -0.0405 -0.1458  0.3601
 1123YOPC   D3B15967  12.994  11.704   6.993  0.0210 -0.0145 -0.0740
 1123YOPC   C4B15968  12.897  11.897   7.410 -0.1590  0.0436  0.0472
 1124YOPC   NC315969   7.165  13.374   5.388 -0.3736 -0.0813 -0.1667
 1124YOPC   PO415970   7.258  13.495   5.766 -0.2376 -0.0118 -0.1535
 1124YOPC   GL115971   7.420  13.362   6.153  0.0206  0.2108 -0.1106
 1124YOPC   GL215972   7.375  13.578   6.419  0.0802 -0.2429 -0.0678
 1124YOPC   C1A15973   7.558  13.123   6.517  0.1308 -0.0889  0.0861
 1124YOPC   D2A15974   7.855  13.022   6.832 -0.2037 -0.2363  0.0089
 1124YOPC   C3A15975   8.043  13.296   7.043 -0.2099  0.2506 -0.5494
 1124YOPC   C4A15976   8.085  13.723   6.936 -0.2419  0.1003 -0.0176
 1124YOPC   C1B15977   7.052  13.658   6.769 -0.0277 -0.1772 -0.1868
 1124YOPC   C2B15978   6.717  13.636   6.968  0.2755  0.0447  0.1876
 1124YOPC   D3B15979   6.723  13.382   7.325 -0.3848 -0.0779 -0.2054
 1124YOPC   C4B15980   6.720  13.087   7.659  0.0190 -0.1626 -0.0463
 1125YOPC   NC315981  15.203  13.154   4.911  0.0362  0.0507  0.0635
 1125YOPC   PO415982  15.632  13.243   4.963 -0.0930 -0.1400 -0.1248
 1125YOPC   GL115983  15.500  13.303   5.429  0.2040  0.0489 -0.0039
 1125YOPC   GL215984  15.803  13.504   5.503  0.1393 -0.0405  0.2015
 1125YOPC   C1A15985  15.241  13.475   5.689 -0.1368  0.1909 -0.3921
 1125YOPC   D2A15986  14.829  13.403   5.830 -0.1909  0.0633  0.0337
 1125YOPC   C3A15987  14.738  13.592   6.227 -0.0763  0.2117  0.0204
 1125YOPC   C4A15988  14.916  13.904   6.561 -0.1455  0.3440 -0.0863
 1125YOPC   C1B15989  15.678  13.720   5.902 -0.0483  0.0136 -0.0453
 1125YOPC   C2B15990  15.771  13.903   6.263  0.0395  0.0553  0.2478
 1125YOPC   D3B15991  15.503  13.869   6.540 -0.1157 -0.1057 -0.0963
 1125YOPC   C4B15992  15.500  13.548   6.763 -0.1146  0.0204 -0.0814
 1126YOPC   NC315993  16.286   2.500   5.650  0.0866 -0.2645  0.0836
 1126YOPC   PO415994  16.678   2.696   5.715  0.0248 -0.0097 -0.0783
 1126YOPC   GL115995  16.700   2.717   6.184  0.0063 -0.1134  0.0648
 1126YOPC   GL215996  16.670   2.354   6.407  0.1077 -0.3447 -0.2011
 1126YOPC   C1A15997  16.518   2.864   6.585 -0.0431  0.2057  0.4881
 1126YOPC   D2A15998  16.465   2.787   7.055 -0.2337  0.1433 -0.0611
 1126YOPC   C3A15999  16.455   2.901   7.428 -0.0781 -0.1392 -0.2446
 1126YOPC   C4A16000  16.383   3.190   7.729  0.0489 -0.1207 -0.1068
 1126YOPC   C1B16001  16.376   2.123   6.605 -0.2237 -0.2635 -0.0240
 1126YOPC   C2B16002  16.187   1.971   6.876  0.0284 -0.1570 -0.0431
 1126YOPC   D3B16003  15.915   1.749   6.867 -0.3889  0.1280  0.1829
 1126YOPC   C4B16004  15.448   1.871   6.886  0.0795 -0.2299 -0.1311
 1127YOPC   NC316005   9.372  15.416   6.116  0.1200 -0.2732  0.0537
 1127YOPC   PO416006   9.516  15.176   5.866  0.1516  0.1937  0.4130
 1127YOPC   GL116007   9.850  15.331   6.208 -0.0741 -0.1607 -0.2305
 1127YOPC   GL216008  10.090  15.160   6.306 -0.1714  0.1019  0.0466
 1127YOPC   C1A16009  10.077  15.570   6.548  0.1660  0.3407 -0.0126
 1127YOPC   D2A16010  10.071  15.706   6.954 -0.1888  0.0659 -0.2785
 1127YOPC   C3A16011   9.940  15.345   7.207  0.2303 -0.2230 -0.0320
 1127YOPC   C4A16012   9.746  14.913   7.138  0.1262  0.0924 -0.1750
 1127YOPC   C1B16013   9.703  14.924   6.441 -0.2512 -0.1395  0.3521
 1127YOPC   C2B16014   9.400  14.870   6.669  0.0090 -0.0995 -0.1929
 1127YOPC   D3B16015   9.342  14.635   6.997  0.3945  0.0677  0.0201
 1127YOPC   C4B16016   9.598  14.469   7.329 -0.1555  0.0476  0.0882
 1128ERGO   ROH16017  15.738  14.228   8.968  0.1404 -0.0538  0.1608
 1128ERGO    R116018  15.852  14.077   8.757 -0.0579 -0.0880  0.0754
 1128ERGO    R216019  15.717  14.024   8.522 -0.1543  0.1672  0.0692
 1128ERGO    R316020  15.939  14.133   8.408 -0.0475 -0.0260  0.0882
 1128ERGO    R416021  15.776  14.042   8.182 -0.1811  0.2565  0.0694
 1128ERGO    R516022  15.985  13.992   8.220 -0.2299  0.0074  0.0179
 1128ERGO    C116023  16.018  14.155   7.877 -0.0965  0.1272  0.0872
 1128ERGO    C216024  16.160  14.354   7.620 -0.0317  0.2725 -0.0812
 1129ERGO   ROH16025  10.943  13.077   6.673 -0.0456  0.0482 -0.1213
 1129ERGO    R116026  10.995  13.245   6.896 -0.0733 -0.0698 -0.0260
 1129ERGO    R216027  10.998  13.520   6.877 -0.0240 -0.0643  0.1101
 1129ERGO    R316028  10.817  13.504   7.079 -0.0751 -0.1304  0.0605
 1129ERGO    R416029  10.932  13.773   7.103 -0.0515 -0.1444  0.1932
 1129ERGO    R516030  10.920  13.622   7.261 -0.1032 -0.2099  0.1332
 1129ERGO    C116031  10.724  13.905   7.424 -0.1156 -0.2531  0.1950
 1129ERGO    C216032  10.705  14.213   7.527 -0.3063  0.1102 -0.0880
 1130ERGO   ROH16033  16.711   9.445   6.343 -0.1793 -0.0436 -0.2802
 1130ERGO    R116034  16.642   9.235   6.520 -0.0787  0.0538 -0.1218
 1130ERGO    R216035  16.802   9.162   6.734 -0.0545  0.3066 -0.0458
 1130ERGO    R316036  16.573   9.201   6.876 -0.0897  0.2948 -0.1003
 1130ERGO    R416037  16.742   9.038   7.051 -0.1259  0.3186 -0.0548
 1130ERGO    R516038  16.538   8.994   6.990 -0.1040  0.3017 -0.0991
 1130ERGO    C116039  16.493   9.003   7.369 -0.2002  0.3145 -0.1113
 1130ERGO    C216040  16.399   8.943   7.672 -0.0665  0.2526  0.0325
 1131ERGO   ROH16041   9.016   2.052  10.133 -0.0076  0.0396 -0.0487
 1131ERGO    R116042   9.007   2.125   9.859 -0.0438 -0.0422 -0.0690
 1131ERGO    R216043   9.086   1.954   9.657  0.0245 -0.0648 -0.0181
 1131ERGO    R316044   8.838   2.007   9.559  0.0008 -0.1984 -0.0355
 1131ERGO    R416045   9.020   2.066   9.337  0.0229  0.1800  0.0653
 1131ERGO    R516046   8.870   2.200   9.420 -0.1279 -0.0313  0.1545
 1131ERGO    C116047   8.749   2.181   9.059 -0.0003  0.1972  0.0975
 1131ERGO    C216048   8.651   2.057   8.758 -0.0446 -0.0243  0.2933
 1132ERGO   ROH16049   0.765   3.648   6.474 -0.3539  0.4917 -0.1908
 1132ERGO    R116050   0.563   3.663   6.671 -0.3134  0.0211 -0.1030
 1132ERGO    R216051   0.487   3.445   6.822  0.2941 -0.1575 -0.0264
 1132ERGO    R316052   0.540   3.611   7.031 -0.0213  0.0212 -0.0822
 1132ERGO    R416053   0.294   3.469   7.108  0.1797 -0.3409 -0.0862
 1132ERGO    R516054   0.324   3.686   7.103 -0.1639 -0.2903 -0.1696
 1132ERGO    C116055   0.232   3.640   7.470 -0.1830 -0.2799 -0.1734
 1132ERGO    C216056   0.089   3.398   7.657  0.0350 -0.2436  0.3338
 1133ERGO   ROH16057  11.746   9.312   9.821  0.0601  0.0277 -0.0684
 1133ERGO    R116058  11.833   9.327   9.552  0.0250  0.0184 -0.0808
 1133ERGO    R216059  11.935   9.109   9.416  0.1491  0.0471 -0.0406
 1133ERGO    R316060  11.741   9.172   9.236  0.0900 -0.1149 -0.0335
 1133ERGO    R416061  11.952   9.045   9.077  0.1372 -0.0343 -0.0256
 1133ERGO    R516062  11.861   9.239   9.040  0.0212 -0.0994 -0.0675
 1133ERGO    C116063  11.780   9.065   8.711  0.0747 -0.2336 -0.0101
 1133ERGO    C216064  11.875   8.959   8.492  0.1772 -0.0872  0.1073
 1134ERGO   ROH16065  10.164   2.352   6.357  0.1407 -0.0697 -0.2022
 1134ERGO    R116066  10.194   2.215   6.603  0.2202  0.1866 -0.0651
 1134ERGO    R216067  10.192   1.939   6.621 -0.0132  0.2015  0.2554
 1134ERGO    R316068  10.431   1.978   6.746  0.1277  0.1397  0.0099
 1134ERGO    R416069  10.318   1.741   6.875  0.0883  0.3128  0.2923
 1134ERGO    R516070  10.389   1.921   6.974  0.2988  0.3413  0.0925
 1134ERGO    C116071  10.615   1.662   7.140  0.2798  0.3196  0.0834
 1134ERGO    C216072  10.762   1.567   7.475  0.1348 -0.0673 -0.0797
 1135ERGO   ROH16073   1.001   8.591   6.355  0.1128  0.2875  0.2250
 1135ERGO    R116074   0.909   8.441   6.577 -0.0004  0.1782  0.1054
 1135ERGO    R216075   1.080   8.334   6.766 -0.0883 -0.0241  0.0702
 1135ERGO    R316076   0.921   8.470   6.939 -0.0645 -0.0722  0.1302
 1135ERGO    R416077   1.089   8.300   7.109  0.0196 -0.0643  0.0636
 1135ERGO    R516078   0.871   8.311   7.111  0.0150 -0.1043  0.1267
 1135ERGO    C116079   0.946   8.408   7.473  0.1048 -0.1329  0.1163
 1135ERGO    C216080   0.833   8.308   7.771 -0.0283 -0.4248  0.1131
 1136ERGO   ROH16081  11.256  10.880   6.260  0.0398  0.0514  0.1395
 1136ERGO    R116082  11.228  10.959   6.530 -0.0343 -0.0205  0.1526
 1136ERGO    R216083  10.989  11.049   6.635 -0.0625 -0.0572  0.1118
 1136ERGO    R316084  11.032  10.852   6.818 -0.1061 -0.1016  0.0756
 1136ERGO    R416085  10.952  11.087   6.976 -0.0443 -0.1026  0.1193
 1136ERGO    R516086  11.132  10.966   7.004 -0.0706 -0.1550  0.0929
 1136ERGO    C116087  10.971  10.925   7.348 -0.0746 -0.1707  0.0898
 1136ERGO    C216088  10.782  10.789   7.639 -0.2698  0.3266  0.1268
 1137ERGO   ROH16089  12.748  16.050   9.334 -0.0627  0.2250  0.0338
 1137ERGO    R116090  12.746  16.052   9.051 -0.0122  0.2849  0.0339
 1137ERGO    R216091  12.963  15.970   8.901 -0.0842  0.0501  0.0539
 1137ERGO    R316092  12.779  15.807   8.784 -0.2665  0.2962 -0.0101
 1137ERGO    R416093  12.909  15.944   8.560  0.0199  0.1029  0.0331
 1137ERGO    R516094  12.695  15.935   8.600 -0.0142  0.4037 -0.0547
 1137ERGO    C116095  12.705  15.776   8.253 -0.0907  0.3646 -0.0392
 1137ERGO    C216096  12.763  15.839   8.044  0.0247  0.2909  0.0554
 1138ERGO   ROH16097   6.402   1.778   6.517  0.2246  0.0690  0.0779
 1138ERGO    R116098   6.477   1.713   6.782 -0.0264 -0.0759  0.1174
 1138ERGO    R216099   6.314   1.569   6.952 -0.0921 -0.3872 -0.1944
 1138ERGO    R316100   6.532   1.409   6.974  0.0474 -0.1854 -0.0753
 1138ERGO    R416101   6.365   1.338   7.203  0.0027 -0.3212 -0.1525
 1138ERGO    R516102   6.575   1.397   7.209 -0.0544 -0.1277 -0.0549
 1138ERGO    C116103   6.600   1.053   7.370  0.1887 -0.0933 -0.0163
 1138ERGO    C216104   6.563   0.907   7.694  0.1778 -0.5176 -0.0336
 1139ERGO   ROH16105   7.124  10.684   6.703 -0.1360 -0.1298 -0.0642
 1139ERGO    R116106   7.093  10.662   6.984  0.0572 -0.2107 -0.0491
 1139ERGO    R216107   7.309  10.635   7.156  0.2023  0.1251 -0.1765
 1139ERGO    R316108   7.197  10.852   7.277 -0.0892 -0.0659 -0.0881
 1139ERGO    R416109   7.363  10.728   7.484  0.4064  0.2840 -0.2518
 1139ERGO    R516110   7.152  10.779   7.500  0.3118 -0.1274 -0.0165
 1139ERGO    C116111   7.291  10.986   7.789  0.2517  0.1971 -0.2127
 1139ERGO    C216112   7.425  10.942   8.078  0.1208 -0.1844  0.1928
 1140ERGO   ROH16113  11.276   1.112   9.840  0.0752  0.0022  0.0121
 1140ERGO    R116114  11.135   1.000   9.621 -0.0482  0.0212  0.0804
 1140ERGO    R216115  10.891   1.097   9.536  0.0043  0.1693  0.0895
 1140ERGO    R316116  11.018   1.114   9.296 -0.0241 -0.0142  0.0599
 1140ERGO    R416117  10.741   1.191   9.239  0.0252  0.1611  0.0762
 1140ERGO    R516118  10.857   1.036   9.137 -0.1037  0.0404  0.1166
 1140ERGO    C116119  10.773   1.262   8.841  0.0106 -0.0159  0.0410
 1140ERGO    C216120  10.655   1.316   8.501 -0.0928  0.0494  0.1240
 1141ERGO   ROH16121  13.101   8.815   6.281  0.0240  0.0057 -0.0326
 1141ERGO    R116122  13.030   8.706   6.532 -0.0290  0.1447  0.0143
 1141ERGO    R216123  13.162   8.490   6.643 -0.2049  0.0538  0.0533
 1141ERGO    R316124  13.191   8.658   6.854 -0.0096  0.0923 -0.0037
 1141ERGO    R416125  13.311   8.407   6.944 -0.1792  0.0269  0.0329
 1141ERGO    R516126  13.157   8.520   7.046 -0.0592  0.1767  0.0466
 1141ERGO    C116127  13.426   8.517   7.317  0.0192  0.0474 -0.0326
 1141ERGO    C216128  13.592   8.281   7.500 -0.3132  0.0413 -0.0956
 1142ERGO   ROH16129   3.354  13.856   6.607  0.0287 -0.2152 -0.0715
 1142ERGO    R116130   3.270  13.829   6.876  0.2258 -0.1679 -0.0037
 1142ERGO    R216131   3.427  13.910   7.090  0.2287  0.2214 -0.1446
 1142ERGO    R316132   3.205  14.052   7.156  0.0401 -0.0783 -0.1174
 1142ERGO    R416133   3.373  14.062   7.395  0.0808  0.1946 -0.1569
 1142ERGO    R516134   3.165  13.997   7.386  0.1665 -0.0994 -0.1008
 1142ERGO    C116135   3.132  14.284   7.635 -0.1823 -0.1022 -0.1385
 1142ERGO    C216136   3.171  14.486   7.682 -0.0819 -0.0006  0.0260
 1143ERGO   ROH16137  13.788  11.348   9.354  0.0433  0.0263 -0.1662
 1143ERGO    R116138  13.675  11.357   9.095  0.0132  0.1226 -0.1507
 1143ERGO    R216139  13.819  11.434   8.872  0.0330  0.0544 -0.1658
 1143ERGO    R316140  13.734  11.195   8.775 -0.1303  0.1152 -0.1726
 1143ERGO    R416141  13.801  11.351   8.537  0.1264  0.0152 -0.1611
 1143ERGO    R516142  13.612  11.250   8.577  0.0190  0.1897 -0.2413
 1143ERGO    C116143  13.710  11.078   8.251  0.0273  0.0495 -0.1647
 1143ERGO    C216144  13.793  11.018   7.911 -0.1205 -0.3229  0.3198
 1144ERGO   ROH16145  18.033  12.662   9.564 -0.1308 -0.1898  0.0563
 1144ERGO    R116146  18.083  12.487   9.346 -0.1680 -0.1318  0.0006
 1144ERGO    R216147  17.907  12.457   9.136 -0.0565  0.1700 -0.1424
 1144ERGO    R316148  18.126  12.519   8.986  0.1185  0.0133  0.0440
 1144ERGO    R416149  17.952  12.368   8.805  0.1719  0.1233 -0.1002
 1144ERGO    R516150  18.161  12.325   8.850  0.1060 -0.0179  0.0851
 1144ERGO    C116151  18.183  12.374   8.472  0.4694 -0.0509  0.0993
 1144ERGO    C216152  18.155  12.416   8.098 -0.0654  0.0603  0.0400
 1145ERGO   ROH16153   0.976   9.565   6.250 -0.1662  0.0963 -0.1312
 1145ERGO    R116154   0.900   9.470   6.505 -0.1311  0.1244 -0.1109
 1145ERGO    R216155   0.735   9.613   6.674 -0.0534  0.1703 -0.0795
 1145ERGO    R316156   0.589   9.384   6.674 -0.1137  0.2079 -0.0331
 1145ERGO    R416157   0.483   9.541   6.899  0.2593  0.0793  0.2519
 1145ERGO    R516158   0.556   9.335   6.906  0.2227  0.0486 -0.0099
 1145ERGO    C116159   0.199   9.283   7.030  0.3848  0.0615  0.4886
 1145ERGO    C216160  -0.128   9.202   7.275 -0.0803  0.2775  0.1015
 1146ERGO   ROH16161  16.024  10.095   9.564  0.1145  0.0499  0.1366
 1146ERGO    R116162  15.881  10.024   9.330  0.1631 -0.1374  0.1632
 1146ERGO    R216163  15.850  10.196   9.117 -0.1244 -0.1671  0.1802
 1146ERGO    R316164  15.956   9.990   8.975  0.1367 -0.0139  0.1452
 1146ERGO    R416165  15.815  10.153   8.776 -0.3274 -0.3041  0.2157
 1146ERGO    R516166  15.789   9.939   8.811  0.0854 -0.3521  0.2908
 1146ERGO    C116167  15.895   9.934   8.444 -0.2005 -0.2400  0.2036
 1146ERGO    C216168  16.047   9.959   8.180  0.1466 -0.1802 -0.3141
 1147ERGO   ROH16169   6.028   7.656   6.662 -0.3188  0.0451  0.1309
 1147ERGO    R116170   5.992   7.595   6.936 -0.2437 -0.0014  0.1309
 1147ERGO    R216171   5.867   7.363   7.021 -0.1009 -0.0811  0.1285
 1147ERGO    R316172   6.097   7.331   7.164 -0.0606  0.0353  0.0907
 1147ERGO    R416173   5.888   7.207   7.329  0.0324 -0.0916  0.1145
 1147ERGO    R516174   6.029   7.361   7.392 -0.0423 -0.0178  0.1031
 1147ERGO    C116175   6.115   7.086   7.642  0.1480  0.0115  0.0709
 1147ERGO    C216176   6.045   6.946   7.986  0.2214 -0.0037  0.1271
 1148ERGO   ROH16177  13.239   3.357   9.915 -0.0541  0.2920  0.0056
 1148ERGO    R116178  13.151   3.350   9.646 -0.0295  0.1670  0.0002
 1148ERGO    R216179  13.043   3.570   9.519 -0.0919  0.0878 -0.0883
 1148ERGO    R316180  13.237   3.518   9.335 -0.0580  0.0848 -0.0517
 1148ERGO    R416181  13.050   3.696   9.197  0.0631  0.2210 -0.0342
 1148ERGO    R516182  13.119   3.502   9.127  0.0012  0.2231 -0.0953
 1148ERGO    C116183  13.235   3.721   8.838  0.1850  0.2957  0.0317
 1148ERGO    C216184  13.172   3.647   8.499  0.2246 -0.3383 -0.1947
 1149ERGO   ROH16185   2.777   8.471  10.168  0.3662  0.3347  0.0648
 1149ERGO    R116186   2.796   8.350   9.913  0.3483  0.2627  0.0977
 1149ERGO    R216187   2.602   8.382   9.719  0.1862 -0.0357  0.2057
 1149ERGO    R316188   2.812   8.463   9.567 -0.0009  0.1589  0.0436
 1149ERGO    R416189   2.627   8.336   9.377  0.1080 -0.2944  0.2321
 1149ERGO    R516190   2.839   8.289   9.405  0.1969  0.0545  0.1851
 1149ERGO    C116191   2.839   8.385   9.036 -0.1132 -0.2624  0.0953
 1149ERGO    C216192   2.770   8.291   8.807 -0.1851 -0.2279  0.1101
 1150ERGO   ROH16193   2.592  12.377   9.582  0.2653 -0.0181 -0.0673
 1150ERGO    R116194   2.576  12.398   9.300  0.2691  0.0442 -0.0629
 1150ERGO    R216195   2.339  12.456   9.168  0.2308 -0.1094 -0.0629
 1150ERGO    R316196   2.488  12.656   9.058  0.0798  0.0403 -0.0006
 1150ERGO    R416197   2.403  12.492   8.831  0.2080  0.0403 -0.0522
 1150ERGO    R516198   2.607  12.549   8.880  0.1654  0.1839 -0.0318
 1150ERGO    C116199   2.579  12.700   8.530  0.0529  0.2682  0.0126
 1150ERGO    C216200   2.700  13.040   8.304  0.0338 -0.1643  0.0917
 1151ERGO   ROH16201  15.068   5.810   9.724 -0.1132  0.1634 -0.0174
 1151ERGO    R116202  15.158   5.892   9.469 -0.1860  0.1752 -0.0406
 1151ERGO    R216203  15.262   5.715   9.283  0.1123  0.2309  0.0605
 1151ERGO    R316204  15.071   5.822   9.123 -0.0248 -0.1248 -0.0222
 1151ERGO    R416205  15.257   5.693   8.938  0.1291 -0.0244  0.0751
 1151ERGO    R516206  15.190   5.899   8.931 -0.1286 -0.1152 -0.0780
 1151ERGO    C116207  15.074   5.781   8.587  0.0101 -0.5069  0.0061
 1151ERGO    C216208  15.022   5.926   8.350  0.3094  0.0331 -0.0576
 1152ERGO   ROH16209  11.593  11.690   9.664 -0.1855 -0.0686  0.0622
 1152ERGO    R116210  11.715  11.733   9.413 -0.0889  0.1932  0.1510
 1152ERGO    R216211  11.704  11.548   9.208  0.3604  0.2139  0.1012
 1152ERGO    R316212  11.606  11.758   9.066  0.0958  0.0816  0.0825
 1152ERGO    R416213  11.659  11.551   8.866  0.1129  0.0323  0.1298
 1152ERGO    R516214  11.732  11.756   8.863 -0.0453  0.0922 -0.0085
 1152ERGO    C116215  11.540  11.750   8.533 -0.2797 -0.1978  0.1289
 1152ERGO    C216216  11.658  11.617   8.173  0.1579  0.0189  0.1525
 1153ERGO   ROH16217   0.487   4.973   6.685  0.0321  0.0401 -0.0533
 1153ERGO    R116218   0.456   5.123   6.923  0.1905 -0.0314  0.0129
 1153ERGO    R216219   0.273   5.056   7.119  0.0876  0.0993 -0.0384
 1153ERGO    R316220   0.492   5.061   7.280  0.0813 -0.2406 -0.0101
 1153ERGO    R416221   0.267   5.030   7.464 -0.0525  0.5390 -0.0021
 1153ERGO    R516222   0.421   5.183   7.474  0.3317  0.1836 -0.1690
 1153ERGO    C116223   0.469   5.021   7.815 -0.1401  0.4760  0.0457
 1153ERGO    C216224   0.614   4.992   8.120  0.0812 -0.1148 -0.0604
 1154ERGO   ROH16225   1.381   1.001   6.344  0.1640 -0.3031 -0.1166
 1154ERGO    R116226   1.424   0.915   6.611  0.1023 -0.2548 -0.0914
 1154ERGO    R216227   1.434   1.091   6.824  0.1610 -0.2063 -0.1379
 1154ERGO    R316228   1.242   0.928   6.926  0.0805 -0.0956 -0.1084
 1154ERGO    R416229   1.351   1.068   7.159  0.1913 -0.1431 -0.1252
 1154ERGO    R516230   1.332   0.853   7.134  0.0673 -0.1372 -0.1151
 1154ERGO    C116231   1.121   0.902   7.449  0.1334 -0.0024 -0.0903
 1154ERGO    C216232   0.913   1.018   7.596  0.3525  0.1682  0.1115
 1155ERGO   ROH16233  10.776  13.043   9.864 -0.0847 -0.0060  0.1407
 1155ERGO    R116234  10.760  13.216   9.641 -0.2490  0.0117  0.1637
 1155ERGO    R216235  10.949  13.216   9.439 -0.1874  0.2877  0.2102
 1155ERGO    R316236  10.731  13.180   9.280 -0.1043  0.0252  0.1518
 1155ERGO    R416237  10.944  13.264   9.097 -0.1053  0.0317  0.1711
 1155ERGO    R516238  10.747  13.355   9.117 -0.1695 -0.0878  0.0294
 1155ERGO    C116239  10.736  13.259   8.749  0.0204 -0.3637  0.0936
 1155ERGO    C216240  10.610  13.226   8.453  0.3332 -0.0597 -0.5192
 1156ERGO   ROH16241  13.185  16.721   5.800  0.0949 -0.0326 -0.0140
 1156ERGO    R116242  13.150  16.473   5.932 -0.0670  0.0754  0.1514
 1156ERGO    R216243  13.272  16.240   5.846 -0.3219 -0.0906  0.2257
 1156ERGO    R316244  13.362  16.232   6.103 -0.2001 -0.0186  0.1858
 1156ERGO    R416245  13.383  15.956   6.008 -0.1499 -0.0272  0.2205
 1156ERGO    R516246  13.281  16.023   6.188 -0.0900 -0.0332  0.2572
 1156ERGO    C116247  13.532  15.782   6.342  0.0646  0.0773  0.1801
 1156ERGO    C216248  13.737  15.717   6.519  0.1660 -0.0059 -0.1776
 1157ERGO   ROH16249   3.260  10.740   9.861  0.0324  0.2551 -0.1080
 1157ERGO    R116250   3.250  10.569   9.635  0.4863  0.0072  0.0453
 1157ERGO    R216251   3.110  10.634   9.405 -0.0268 -0.7187  0.1090
 1157ERGO    R316252   3.350  10.587   9.286  0.0879  0.1385 -0.0651
 1157ERGO    R416253   3.151  10.536   9.076  0.0972 -0.6632  0.1079
 1157ERGO    R516254   3.308  10.400   9.141  0.6731 -0.0731  0.0242
 1157ERGO    C116255   3.400  10.435   8.773  0.2772  0.1739 -0.0564
 1157ERGO    C216256   3.435  10.267   8.505 -0.0735 -0.2026 -0.3375
 1158ERGO   ROH16257  14.374  13.274   5.843 -0.0670 -0.1843 -0.0618
 1158ERGO    R116258  14.429  13.215   6.114  0.0587  0.1741 -0.0033
 1158ERGO    R216259  14.520  12.968   6.197 -0.4175  0.0980  0.3435
 1158ERGO    R316260  14.720  13.114   6.308  0.0305 -0.1335 -0.1179
 1158ERGO    R416261  14.682  12.888   6.491 -0.3503  0.3009  0.3624
 1158ERGO    R516262  14.680  13.099   6.544  0.1916  0.4265 -0.0441
 1158ERGO    C116263  14.965  12.978   6.767  0.1096  0.2017 -0.0598
 1158ERGO    C216264  15.037  12.988   7.147  0.2478 -0.0761 -0.3085
 1159ERGO   ROH16265  10.853   7.577   9.810 -0.3498  0.0779 -0.0617
 1159ERGO    R116266  10.741   7.476   9.571 -0.2359  0.1115 -0.1290
 1159ERGO    R216267  10.618   7.638   9.384 -0.0778  0.1456 -0.1986
 1159ERGO    R316268  10.795   7.522   9.214 -0.0125  0.0971 -0.0997
 1159ERGO    R416269  10.609   7.666   9.040  0.0848  0.1071 -0.2072
 1159ERGO    R516270  10.663   7.455   9.026  0.0614  0.0931 -0.1550
 1159ERGO    C116271  10.771   7.572   8.679  0.2407  0.0392 -0.1194
 1159ERGO    C216272  10.799   7.645   8.338 -0.2520  0.1244  0.1189
 1160ERGO   ROH16273  12.701   5.442   6.246  0.4603 -0.0100  0.0179
 1160ERGO    R116274  12.733   5.266   6.466  0.2736  0.1841  0.2055
 1160ERGO    R216275  12.952   5.099   6.493  0.0081 -0.1691  0.2746
 1160ERGO    R316276  12.974   5.220   6.735  0.3448  0.0845  0.1245
 1160ERGO    R416277  13.170   5.004   6.744 -0.0080 -0.2325  0.2642
 1160ERGO    R516278  13.012   5.041   6.889  0.1325  0.1996  0.3130
 1160ERGO    C116279  13.317   5.063   7.117  0.2986 -0.0314  0.1172
 1160ERGO    C216280  13.451   5.072   7.411 -0.1680 -0.3447  0.2042
 1161ERGO   ROH16281   3.105   3.624   6.533 -0.0257  0.2012 -0.0057
 1161ERGO    R116282   3.009   3.638   6.799  0.0651  0.3092  0.0232
 1161ERGO    R216283   3.024   3.424   6.974 -0.2569  0.2348 -0.0266
 1161ERGO    R316284   3.149   3.606   7.133  0.1041 -0.0103 -0.0222
 1161ERGO    R416285   2.983   3.448   7.316 -0.3111  0.3967 -0.0440
 1161ERGO    R516286   2.985   3.665   7.296  0.1834  0.3951 -0.0853
 1161ERGO    C116287   3.077   3.632   7.665 -0.0036  0.2610 -0.0500
 1161ERGO    C216288   3.111   3.764   7.963  0.3729 -0.2429  0.0376
 1162ERGO   ROH16289  11.190   3.573   9.838 -0.2204 -0.0531 -0.0679
 1162ERGO    R116290  11.311   3.472   9.603 -0.2072 -0.0615 -0.0537
 1162ERGO    R216291  11.170   3.328   9.414 -0.2206  0.0557 -0.1104
 1162ERGO    R316292  11.269   3.516   9.244 -0.0785  0.0304 -0.0626
 1162ERGO    R416293  11.249   3.273   9.082 -0.3680  0.0798 -0.1526
 1162ERGO    R516294  11.426   3.396   9.108 -0.2236 -0.0936 -0.1464
 1162ERGO    C116295  11.387   3.417   8.729 -0.3203  0.0702 -0.1324
 1162ERGO    C216296  11.325   3.407   8.332 -0.1052  0.3974 -0.0179
 1163ERGO   ROH16297  15.115   6.663   6.404  0.2388 -0.4275  0.2573
 1163ERGO    R116298  14.961   6.765   6.618  0.3830  0.1505  0.1038
 1163ERGO    R216299  14.825   6.601   6.795 -0.3213  0.6312  0.0429
 1163ERGO    R316300  14.965   6.740   6.981  0.0021  0.2268  0.1173
 1163ERGO    R416301  14.775   6.580   7.136 -0.2462  0.4406  0.0441
 1163ERGO    R516302  14.803   6.795   7.149  0.1531  0.3886  0.2150
 1163ERGO    C116303  14.877   6.699   7.510  0.1011 -0.0499  0.1147
 1163ERGO    C216304  14.674   6.775   7.840 -0.1234  0.2157 -0.1308
 1164ERGO   ROH16305  16.003  10.855   5.940  0.2198  0.0756 -0.2184
 1164ERGO    R116306  16.018  10.949   6.207  0.0066  0.1532 -0.2308
 1164ERGO    R216307  16.234  10.896   6.371 -0.1827  0.0779  0.0013
 1164ERGO    R316308  16.238  11.167   6.398 -0.0548  0.0906 -0.0843
 1164ERGO    R416309  16.433  11.070   6.595 -0.1361  0.0471 -0.0165
 1164ERGO    R516310  16.265  11.203   6.634 -0.0821  0.1480 -0.0869
 1164ERGO    C116311  16.552  11.424   6.750  0.0111  0.0410 -0.1073
 1164ERGO    C216312  16.710  11.748   6.732  0.1463 -0.2278  0.2007
 1165ERGO   ROH16313  12.608   4.806   9.804 -0.0789 -0.4075  0.0356
 1165ERGO    R116314  12.556   4.928   9.554 -0.0395 -0.2921  0.0843
 1165ERGO    R216315  12.718   4.890   9.333 -0.0080 -0.1932  0.0931
 1165ERGO    R316316  12.484   4.817   9.215  0.0083 -0.1346  0.0211
 1165ERGO    R416317  12.649   4.921   8.996  0.1091 -0.1973  0.0674
 1165ERGO    R516318  12.447   4.984   9.048  0.1098 -0.1353 -0.0032
 1165ERGO    C116319  12.390   4.870   8.688  0.1927 -0.1446 -0.0151
 1165ERGO    C216320  12.375   4.912   8.329 -0.0151  0.0032 -0.1962
 1166ERGO   ROH16321  11.740   0.214   5.837 -0.0660 -0.1331  0.0423
 1166ERGO    R116322  11.788   0.343   6.084 -0.0640 -0.0322 -0.0113
 1166ERGO    R216323  11.631   0.551   6.177 -0.0790 -0.0173 -0.0828
 1166ERGO    R316324  11.609   0.392   6.396 -0.0463  0.0697 -0.0149
 1166ERGO    R416325  11.492   0.649   6.478 -0.3484  0.0101 -0.2125
 1166ERGO    R516326  11.650   0.539   6.580 -0.2924  0.2134 -0.0644
 1166ERGO    C116327  11.390   0.557   6.859 -0.4746  0.1078 -0.2242
 1166ERGO    C216328  11.011   0.571   6.956 -0.1849  0.0076 -0.1390
 1167ERGO   ROH16329  15.222   8.289   9.847  0.0313 -0.0207  0.0095
 1167ERGO    R116330  15.329   8.240   9.589 -0.1239 -0.0092 -0.0584
 1167ERGO    R216331  15.231   8.042   9.422 -0.2082 -0.0183  0.0014
 1167ERGO    R316332  15.207   8.247   9.246 -0.3385 -0.0204  0.0162
 1167ERGO    R416333  15.222   8.008   9.079 -0.0634  0.0091 -0.0059
 1167ERGO    R516334  15.347   8.186   9.063 -0.2196  0.1268  0.0550
 1167ERGO    C116335  15.194   8.181   8.713 -0.1017  0.0231  0.0040
 1167ERGO    C216336  15.234   8.190   8.439  0.0069 -0.0451  0.1344
 1168ERGO   ROH16337  16.552   8.605   9.768 -0.2328 -0.0324 -0.0940
 1168ERGO    R116338  16.456   8.604   9.501 -0.1291  0.2764 -0.1378
 1168ERGO    R216339  16.484   8.821   9.332  0.4386  0.2882 -0.0610
 1168ERGO    R316340  16.600   8.638   9.169  0.0989  0.0654 -0.0607
 1168ERGO    R416341  16.526   8.859   8.991  0.3596  0.1132 -0.0903
 1168ERGO    R516342  16.473   8.649   8.967  0.0381  0.1892 -0.0083
 1168ERGO    C116343  16.659   8.709   8.639 -0.0051 -0.1980 -0.1070
 1168ERGO    C216344  16.629   8.657   8.305 -0.2482 -0.1153  0.0103
 1169ERGO   ROH16345  15.283  12.229   5.805  0.2681  0.2729 -0.0106
 1169ERGO    R116346  15.334  12.053   6.021  0.4055  0.2779 -0.0381
 1169ERGO    R216347  15.439  12.139   6.261  0.0640  0.3759  0.0820
 1169ERGO    R316348  15.220  12.014   6.364  0.1908 -0.0516 -0.1419
 1169ERGO    R416349  15.379  12.090   6.598 -0.1688  0.2299  0.0217
 1169ERGO    R516350  15.304  11.890   6.551  0.2488  0.0853 -0.0763
 1169ERGO    C116351  15.139  11.944   6.891 -0.1853 -0.2565 -0.2235
 1169ERGO    C216352  14.976  12.028   7.198  0.0984 -0.0913 -0.2383
 1170ERGO   ROH16353   8.474   0.688   6.647 -0.0340 -0.0526  0.0514
 1170ERGO    R116354   8.529   0.749   6.918 -0.1591  0.1025  0.0422
 1170ERGO    R216355   8.373   0.924   7.066 -0.5032 -0.1662  0.0019
 1170ERGO    R316356   8.357   0.714   7.237 -0.1059 -0.1714  0.0444
 1170ERGO    R416357   8.391   0.947   7.410 -0.2578 -0.0942 -0.0132
 1170ERGO    R516358   8.512   0.766   7.411 -0.0255  0.0494 -0.0843
 1170ERGO    C116359   8.386   0.764   7.771  0.2581 -0.0571  0.0179
 1170ERGO    C216360   8.304   0.665   8.016  0.0887  0.2769 -0.1973
 1171ERGO   ROH16361   8.673   6.701   6.914  0.0223  0.1942  0.0464
 1171ERGO    R116362   8.504   6.614   7.124  0.0180  0.0872 -0.0010
 1171ERGO    R216363   8.589   6.600   7.387 -0.0016 -0.0017  0.0011
 1171ERGO    R316364   8.370   6.755   7.431 -0.0289 -0.0517  0.0429
 1171ERGO    R416365   8.450   6.661   7.697 -0.1232 -0.2570 -0.0005
 1171ERGO    R516366   8.252   6.643   7.607 -0.0881 -0.1997 -0.0894
 1171ERGO    C116367   8.164   6.842   7.920 -0.2196 -0.4528  0.0379
 1171ERGO    C216368   8.167   6.843   8.271  0.1259 -0.1605  0.0870
 1172ERGO   ROH16369  14.277  16.117   9.233  0.1338 -0.0417  0.1006
 1172ERGO    R116370  14.299  16.254   8.986 -0.1686  0.0654  0.1296
 1172ERGO    R216371  14.402  16.134   8.758  0.0418  0.3189  0.0944
 1172ERGO    R316372  14.166  16.215   8.650 -0.1388 -0.1190  0.1358
 1172ERGO    R416373  14.346  16.187   8.422 -0.0518  0.3824  0.1183
 1172ERGO    R516374  14.229  16.363   8.473 -0.4356  0.1198  0.2144
 1172ERGO    C116375  14.092  16.294   8.124 -0.2760  0.0081  0.1711
 1172ERGO    C216376  13.979  16.359   7.852 -0.3972  0.0736 -0.2733
 1173ERGO   ROH16377  14.614   0.106   8.831  0.0185  0.0867 -0.0108
 1173ERGO    R116378  14.716   0.185   8.579 -0.1189  0.1806 -0.0393
 1173ERGO    R216379  14.781   0.003   8.381  0.0358  0.2316 -0.0449
 1173ERGO    R316380  14.613   0.155   8.232 -0.1664  0.0438 -0.0123
 1173ERGO    R416381  14.761  -0.004   8.036 -0.2045  0.0499 -0.0296
 1173ERGO    R516382  14.740   0.212   8.038 -0.3445  0.0313 -0.1293
 1173ERGO    C116383  14.592   0.135   7.695 -0.5341 -0.2321  0.0101
 1173ERGO    C216384  14.342   0.183   7.500 -0.2559 -0.2293  0.2510
 1174ERGO   ROH16385  13.063   2.272   9.709  0.1489 -0.0941  0.2128
 1174ERGO    R116386  12.939   2.247   9.456  0.1251 -0.0047  0.2137
 1174ERGO    R216387  12.904   2.462   9.285  0.0598  0.0705  0.3107
 1174ERGO    R316388  13.034   2.302   9.108  0.0782  0.1755  0.2301
 1174ERGO    R416389  12.857   2.466   8.943 -0.1709  0.0082  0.3407
 1174ERGO    R516390  12.869   2.249   8.943  0.0173  0.0234  0.3441
 1174ERGO    C116391  12.952   2.318   8.578 -0.2878  0.0705  0.2826
 1174ERGO    C216392  12.793   2.364   8.219 -0.0224 -0.1406  0.1197
 1175ERGO   ROH16393   2.767  11.282   6.593 -0.0166  0.1020 -0.0655
 1175ERGO    R116394   2.735  11.269   6.874 -0.2405  0.1609 -0.0873
 1175ERGO    R216395   2.935  11.342   7.050 -0.2544 -0.1378  0.0513
 1175ERGO    R316396   2.743  11.504   7.152 -0.0842  0.1636 -0.0915
 1175ERGO    R416397   2.942  11.482   7.366 -0.2816 -0.1848  0.0737
 1175ERGO    R516398   2.728  11.442   7.383 -0.3707  0.1535 -0.1050
 1175ERGO    C116399   2.765  11.716   7.645 -0.1376  0.0708 -0.0472
 1175ERGO    C216400   2.888  12.094   7.838  0.0794  0.2423 -0.4217
 1176ERGO   ROH16401   5.744  12.415   6.602  0.0784  0.0720  0.0789
 1176ERGO    R116402   5.627  12.632   6.742  0.0696  0.1502 -0.0494
 1176ERGO    R216403   5.687  12.689   7.005 -0.0981  0.1739 -0.0194
 1176ERGO    R316404   5.743  12.935   6.906  0.0801  0.1336 -0.0237
 1176ERGO    R416405   5.741  12.972   7.196  0.0530  0.1463 -0.0192
 1176ERGO    R516406   5.627  13.086   7.050  0.1499  0.2160 -0.0478
 1176ERGO    C116407   5.827  13.368   7.213  0.3083  0.0924 -0.0232
 1176ERGO    C216408   5.890  13.527   7.468 -0.0350  0.2966  0.1887
 1177ERGO   ROH16409  15.396   0.363   5.651  0.1584  0.0975  0.1441
 1177ERGO    R116410  15.480   0.448   5.908 -0.0071  0.0324  0.2214
 1177ERGO    R216411  15.303   0.494   6.115 -0.1359 -0.0833  0.1388
 1177ERGO    R316412  15.462   0.319   6.248 -0.1657 -0.0872  0.1692
 1177ERGO    R416413  15.367   0.502   6.455 -0.0087  0.0637  0.1125
 1177ERGO    R516414  15.574   0.452   6.412 -0.0454 -0.0509  0.0607
 1177ERGO    C116415  15.554   0.342   6.777  0.0375  0.1455  0.1258
 1177ERGO    C216416  15.652   0.264   7.117  0.0659  0.0506  0.2233
 1178ERGO   ROH16417   2.420  11.344   9.710 -0.2306  0.0780 -0.0098
 1178ERGO    R116418   2.367  11.309   9.435 -0.1638 -0.1270  0.0005
 1178ERGO    R216419   2.260  11.510   9.277 -0.3938 -0.3296 -0.1150
 1178ERGO    R316420   2.478  11.461   9.123 -0.3140 -0.1473 -0.0623
 1178ERGO    R416421   2.281  11.576   8.939 -0.2309  0.0116 -0.0427
 1178ERGO    R516422   2.387  11.387   8.914 -0.1992  0.0519 -0.1816
 1178ERGO    C116423   2.498  11.567   8.597 -0.0612  0.3816  0.0489
 1178ERGO    C216424   2.755  11.725   8.375 -0.2011 -0.3449  0.1065
 1179ERGO   ROH16425   4.554  11.533   9.672 -0.0690 -0.1266 -0.0511
 1179ERGO    R116426   4.679  11.507   9.419 -0.0416 -0.0267 -0.0471
 1179ERGO    R216427   4.626  11.297   9.247 -0.0184  0.0412 -0.1302
 1179ERGO    R316428   4.572  11.497   9.071 -0.0012  0.1048 -0.0652
 1179ERGO    R416429   4.602  11.259   8.904  0.0436  0.1604 -0.1492
 1179ERGO    R516430   4.707  11.448   8.880  0.0384  0.1801 -0.0613
 1179ERGO    C116431   4.538  11.425   8.540  0.0958  0.2896 -0.0992
 1179ERGO    C216432   4.476  11.374   8.344  0.0175 -0.2210 -0.3485
 1180ERGO   ROH16433   0.898   5.223   6.716  0.0420 -0.1467 -0.0359
 1180ERGO    R116434   0.934   5.253   6.995  0.1381  0.0845 -0.0696
 1180ERGO    R216435   0.966   5.500   7.116 -0.1828  0.2217 -0.2387
 1180ERGO    R316436   0.757   5.416   7.268  0.0167 -0.0148 -0.0906
 1180ERGO    R416437   0.843   5.667   7.392 -0.2764  0.1479 -0.2359
 1180ERGO    R516438   0.819   5.475   7.492  0.0498  0.1554 -0.1496
 1180ERGO    C116439   0.576   5.686   7.696 -0.1436 -0.1171 -0.0953
 1180ERGO    C216440   0.375   6.038   7.626  0.1233  0.2087 -0.2369
 1181ERGO   ROH16441   5.169  17.303   6.442  0.1080 -0.0090  0.1843
 1181ERGO    R116442   5.260  17.200   6.689  0.0095 -0.0564  0.2013
 1181ERGO    R216443   5.292  17.358   6.914  0.0109 -0.0808  0.2170
 1181ERGO    R316444   5.130  17.171   7.028 -0.0847 -0.0294  0.1682
 1181ERGO    R416445   5.175  17.370   7.239  0.0897 -0.1487  0.2483
 1181ERGO    R516446   5.209  17.155   7.254 -0.0444 -0.1793  0.1454
 1181ERGO    C116447   4.956  17.201   7.536  0.0457 -0.1395  0.2206
 1181ERGO    C216448   4.780  17.001   7.787 -0.0852  0.2280  0.0914
 1182ERGO   ROH16449  15.941  17.076   9.201  0.0561  0.1516  0.0056
 1182ERGO    R116450  16.033  17.104   8.935  0.0119  0.0382 -0.0226
 1182ERGO    R216451  15.998  16.907   8.744 -0.2197  0.0455  0.0059
 1182ERGO    R316452  15.883  17.109   8.603 -0.0741  0.1374  0.0176
 1182ERGO    R416453  15.974  16.920   8.399 -0.2217  0.0802  0.0078
 1182ERGO    R516454  16.020  17.132   8.408 -0.0638  0.0447  0.0150
 1182ERGO    C116455  15.852  17.117   8.066 -0.0861  0.1866  0.0197
 1182ERGO    C216456  15.872  17.082   7.665 -0.3699 -0.2074 -0.0502
 1183ERGO   ROH16457  12.651  17.575   9.071  0.1607  0.0042 -0.0549
 1183ERGO    R116458  12.734  17.548   8.802  0.1545  0.0305 -0.0592
 1183ERGO    R216459  12.574  17.434   8.608  0.2065 -0.0784 -0.0356
 1183ERGO    R316460  12.620  17.668   8.478  0.0591 -0.0629 -0.0619
 1183ERGO    R416461  12.527  17.483   8.269 -0.0986 -0.0723  0.0047
 1183ERGO    R516462  12.711  17.601   8.266 -0.1133 -0.0425 -0.1478
 1183ERGO    C116463  12.543  17.731   7.949 -0.4146 -0.0542  0.0032
 1183ERGO    C216464  12.667  17.713   7.569 -0.1367  0.0434  0.3477
 1184ERGO   ROH16465  13.200  13.233   9.213 -0.0634  0.0923  0.0400
 1184ERGO    R116466  13.087  13.113   8.983 -0.0435  0.0462  0.0560
 1184ERGO    R216467  12.931  13.253   8.803 -0.0524 -0.0023  0.0355
 1184ERGO    R316468  13.111  13.157   8.623 -0.0439 -0.0082  0.0481
 1184ERGO    R416469  12.863  13.191   8.470 -0.0398 -0.0034  0.0321
 1184ERGO    R516470  12.983  13.009   8.485 -0.0431 -0.0080  0.0425
 1184ERGO    C116471  12.991  13.064   8.107 -0.0245 -0.0095  0.0418
 1184ERGO    C216472  12.759  13.143   7.873 -0.1213 -0.1764 -0.0806
 1185ERGO   ROH16473  12.239   4.370   6.479  0.1804 -0.1097 -0.0097
 1185ERGO    R116474  12.266   4.309   6.754  0.1044 -0.0246  0.0172
 1185ERGO    R216475  12.312   4.503   6.945 -0.0424  0.0458 -0.0174
 1185ERGO    R316476  12.092   4.393   7.062 -0.0420 -0.0100 -0.0688
 1185ERGO    R416477  12.239   4.517   7.283 -0.0630 -0.0782 -0.0162
 1185ERGO    R516478  12.171   4.310   7.272 -0.0488 -0.0791 -0.0933
 1185ERGO    C116479  11.991   4.423   7.589 -0.0747 -0.2027 -0.0638
 1185ERGO    C216480  11.705   4.307   7.817  0.2933  0.0363 -0.0104
 1186ERGO   ROH16481  10.252  18.133   9.993  0.1317  0.0132  0.0786
 1186ERGO    R116482  10.295  18.021   9.736  0.0045 -0.0628  0.0911
 1186ERGO    R216483  10.088  17.929   9.578 -0.1047  0.1994  0.0869
 1186ERGO    R316484  10.196  18.098   9.394  0.1332  0.0420  0.0748
 1186ERGO    R416485  10.028  17.916   9.237 -0.2233  0.3188  0.1010
 1186ERGO    R516486  10.239  17.960   9.204 -0.1461 -0.0261  0.0501
 1186ERGO    C116487  10.095  18.067   8.867 -0.0690  0.2408  0.0979
 1186ERGO    C216488  10.163  18.124   8.519  0.1617  0.4289  0.1563
 1187ERGO   ROH16489  12.607   6.906   9.817  0.1025  0.1571  0.0069
 1187ERGO    R116490  12.744   6.933   9.571  0.0550  0.0928 -0.0266
 1187ERGO    R216491  12.758   6.729   9.385 -0.0179  0.0599  0.0059
 1187ERGO    R316492  12.657   6.917   9.218 -0.0211  0.0472 -0.0068
 1187ERGO    R416493  12.715   6.687   9.045  0.1377  0.0894 -0.0183
 1187ERGO    R516494  12.785   6.892   9.016  0.0734  0.1225  0.0404
 1187ERGO    C116495  12.595   6.840   8.689  0.2254  0.0945 -0.0444
 1187ERGO    C216496  12.683   6.786   8.418  0.0633 -0.2482 -0.0797
 1188ERGO   ROH16497  13.021  15.350   6.156 -0.2144 -0.2075  0.3621
 1188ERGO    R116498  13.150  15.568   6.281  0.0215 -0.3009  0.2862
 1188ERGO    R216499  13.012  15.782   6.388  0.2629  0.0886 -0.1489
 1188ERGO    R316500  13.152  15.719   6.612 -0.1585  0.0739  0.1217
 1188ERGO    R416501  13.047  15.988   6.663 -0.0221  0.1913 -0.1853
 1188ERGO    R516502  13.255  15.925   6.677 -0.0908  0.0195  0.1915
 1188ERGO    C116503  13.199  16.049   7.034 -0.5837  0.2372  0.0475
 1188ERGO    C216504  13.057  16.333   7.207  0.2772  0.3542 -0.2793
 1189ERGO   ROH16505   7.118   4.698   6.432 -0.1224  0.1051  0.0453
 1189ERGO    R116506   7.037   4.575   6.673  0.0134 -0.0320  0.0219
 1189ERGO    R216507   7.215   4.504   6.871  0.1019  0.0412 -0.0354
 1189ERGO    R316508   7.051   4.654   7.028  0.0161 -0.1326  0.0452
 1189ERGO    R416509   7.151   4.441   7.205  0.1842 -0.1423 -0.0520
 1189ERGO    R516510   6.942   4.493   7.169  0.1406 -0.2689 -0.0068
 1189ERGO    C116511   6.959   4.545   7.547  0.1516 -0.4124  0.0138
 1189ERGO    C216512   7.049   4.650   7.855 -0.0920  0.1393 -0.0682
 1190ERGO   ROH16513   1.384   7.430   6.564  0.0673 -0.2659 -0.0629
 1190ERGO    R116514   1.397   7.266   6.795  0.0707 -0.1222  0.0417
 1190ERGO    R216515   1.475   7.362   7.042  0.1055  0.0285 -0.0215
 1190ERGO    R316516   1.238   7.255   7.121  0.0990  0.1062  0.0625
 1190ERGO    R416517   1.415   7.222   7.352  0.0963  0.2340  0.0710
 1190ERGO    R516518   1.299   7.066   7.254  0.0765  0.1871  0.1818
 1190ERGO    C116519   1.157   7.040   7.607  0.0849  0.4266  0.2037
 1190ERGO    C216520   1.249   6.927   7.916  0.1135 -0.3211  0.4417
 1191ERGO   ROH16521  17.483  15.642   9.160  0.1642  0.0699  0.1243
 1191ERGO    R116522  17.436  15.805   8.933 -0.3287 -0.1582  0.0470
 1191ERGO    R216523  17.641  15.907   8.778 -0.5956  0.5266  0.0910
 1191ERGO    R316524  17.504  15.787   8.576 -0.1108 -0.0573  0.0856
 1191ERGO    R416525  17.701  15.954   8.441 -0.4087  0.2652  0.0861
 1191ERGO    R516526  17.487  15.954   8.407 -0.3769 -0.3067 -0.1285
 1191ERGO    C116527  17.608  15.868   8.055  0.1552 -0.4352  0.0782
 1191ERGO    C216528  17.866  15.834   7.806 -0.6471  0.2322  0.0593
 1192ERGO   ROH16529   2.256  17.770   6.476  0.1438  0.0389  0.0673
 1192ERGO    R116530   2.252  17.829   6.753 -0.0219  0.1716  0.0387
 1192ERGO    R216531   2.022  17.914   6.884 -0.1779 -0.0474 -0.0778
 1192ERGO    R316532   2.078  17.704   7.047  0.0345  0.0967  0.0388
 1192ERGO    R416533   1.905  17.877   7.207 -0.2083 -0.0336 -0.0882
 1192ERGO    R516534   2.100  17.800   7.264 -0.1319  0.2272 -0.0036
 1192ERGO    C116535   1.888  17.658   7.548 -0.0267  0.1097  0.0153
 1192ERGO    C216536   1.842  17.403   7.825 -0.1676  0.2016  0.2358
 1193ERGO   ROH16537  11.246   2.431   6.118 -0.2520  0.0192 -0.1089
 1193ERGO    R116538  11.294   2.471   6.394 -0.1786 -0.0832 -0.1076
 1193ERGO    R216539  11.169   2.670   6.539 -0.0654 -0.0804 -0.0265
 1193ERGO    R316540  11.098   2.463   6.701 -0.1154 -0.0955 -0.0647
 1193ERGO    R416541  11.094   2.699   6.876  0.0270 -0.1247 -0.0005
 1193ERGO    R516542  11.203   2.513   6.911 -0.0386 -0.1870 -0.0740
 1193ERGO    C116543  10.984   2.521   7.223  0.0339 -0.1647 -0.0213
 1193ERGO    C216544  10.838   2.624   7.472  0.3268  0.2763 -0.0138
 1194ERGO   ROH16545   4.548  14.023   6.573  0.1134  0.0239  0.0666
 1194ERGO    R116546   4.467  14.289   6.626  0.2070  0.0158  0.2422
 1194ERGO    R216547   4.219  14.388   6.554  0.3886  0.2518 -0.0352
 1194ERGO    R316548   4.204  14.453   6.817  0.0148 -0.0237  0.0228
 1194ERGO    R416549   4.017  14.635   6.686  0.2407  0.1646 -0.0907
 1194ERGO    R516550   4.180  14.690   6.819  0.0714 -0.0075  0.2220
 1194ERGO    C116551   3.885  14.840   7.010 -0.1963 -0.1447 -0.0686
 1194ERGO    C216552   3.661  15.003   7.155 -0.3502  0.1137 -0.0142
 1195ERGO   ROH16553  14.345   3.620   5.902  0.0831  0.4097 -0.0700
 1195ERGO    R116554  14.399   3.476   6.140  0.2428  0.2083 -0.2262
 1195ERGO    R216555  14.531   3.589   6.355  0.1740  0.0988 -0.1365
 1195ERGO    R316556  14.312   3.505   6.492  0.2701 -0.2366 -0.1742
 1195ERGO    R416557  14.515   3.548   6.698  0.0828  0.4832 -0.0895
 1195ERGO    R516558  14.399   3.367   6.667  0.5019  0.1614  0.0510
 1195ERGO    C116559  14.300   3.446   7.026  0.1199  0.3921 -0.0974
 1195ERGO    C216560  14.001   3.427   7.283 -0.0829 -0.2235  0.3923
 1196ERGO   ROH16561   1.584   4.069   9.991  0.0342 -0.0151  0.0812
 1196ERGO    R116562   1.618   3.939   9.742 -0.0263 -0.0495  0.0906
 1196ERGO    R216563   1.424   3.941   9.545 -0.0198  0.0388  0.0848
 1196ERGO    R316564   1.627   4.037   9.392  0.0350 -0.0769  0.0842
 1196ERGO    R416565   1.427   3.943   9.200  0.0931 -0.2024  0.0820
 1196ERGO    R516566   1.637   3.887   9.206  0.0895 -0.2085  0.1907
 1196ERGO    C116567   1.619   4.035   8.855  0.2103 -0.4515  0.0798
 1196ERGO    C216568   1.603   4.000   8.544 -0.1385 -0.2655  0.0292
 1197ERGO   ROH16569  12.711  10.086   6.203 -0.0231  0.0581 -0.0339
 1197ERGO    R116570  12.729  10.163   6.475 -0.0587  0.0142 -0.0194
 1197ERGO    R216571  12.901  10.040   6.653 -0.0277  0.0361 -0.0356
 1197ERGO    R316572  12.987  10.295   6.696 -0.1097  0.0557  0.0156
 1197ERGO    R416573  13.027  10.158   6.952  0.1211 -0.0372 -0.0681
 1197ERGO    R516574  12.917  10.343   6.920  0.0176 -0.0702  0.0842
 1197ERGO    C116575  13.181  10.465   7.168  0.1308 -0.0615 -0.0390
 1197ERGO    C216576  13.180  10.422   7.533  0.1540  0.2165 -0.4358
 1198ERGO   ROH16577  13.966  12.385   9.224 -0.1049  0.0461  0.1499
 1198ERGO    R116578  13.849  12.423   8.969  0.0143 -0.0057  0.0875
 1198ERGO    R216579  13.873  12.659   8.828  0.0479 -0.0238  0.0689
 1198ERGO    R316580  13.967  12.496   8.632  0.1666 -0.0342  0.1330
 1198ERGO    R416581  13.828  12.711   8.489 -0.0109 -0.1954  0.0490
 1198ERGO    R516582  13.795  12.497   8.466  0.1535 -0.2359  0.1397
 1198ERGO    C116583  13.890  12.588   8.108  0.0661 -0.3052  0.0974
 1198ERGO    C216584  13.740  12.719   7.753 -0.3109 -0.1601 -0.0996
 1199ERGO   ROH16585   4.486  16.379   6.358  0.3044 -0.1347 -0.0073
 1199ERGO    R116586   4.342  16.299   6.588  0.2433  0.0247  0.0109
 1199ERGO    R216587   4.224  16.051   6.612  0.0873  0.1043  0.0817
 1199ERGO    R316588   4.371  16.038   6.840  0.0692  0.0830  0.0923
 1199ERGO    R416589   4.190  15.807   6.855  0.1430  0.0212  0.0072
 1199ERGO    R516590   4.216  15.962   7.006  0.0785 -0.0161  0.0555
 1199ERGO    C116591   4.308  15.654   7.211  0.1586 -0.0470 -0.0262
 1199ERGO    C216592   4.559  15.362   7.461 -0.3075  0.3222  0.3923
 1200ERGO   ROH16593   3.740   0.677   6.615 -0.0447 -0.1706 -0.0019
 1200ERGO    R116594   3.660   0.527   6.841  0.0018 -0.0585  0.0902
 1200ERGO    R216595   3.710   0.256   6.865 -0.2171 -0.1006  0.0988
 1200ERGO    R316596   3.825   0.331   7.100  0.0378 -0.1553 -0.0053
 1200ERGO    R416597   3.758   0.048   7.137 -0.2742 -0.0675  0.1340
 1200ERGO    R516598   3.701   0.213   7.268  0.0121  0.0474  0.1214
 1200ERGO    C116599   3.894  -0.002   7.516 -0.0681 -0.0996  0.0567
 1200ERGO    C216600   4.003  -0.033   7.734 -0.1267  0.0335  0.0670
 1201ERGO   ROH16601   2.204  14.570   6.264 -0.0014 -0.2235  0.1150
 1201ERGO    R116602   2.220  14.610   6.544  0.1333  0.0529  0.0717
 1201ERGO    R216603   2.272  14.857   6.657 -0.1930  0.2481 -0.1892
 1201ERGO    R316604   2.042  14.807   6.794 -0.0204 -0.0138  0.0173
 1201ERGO    R416605   2.207  14.963   6.980 -0.1616  0.4988 -0.2631
 1201ERGO    R516606   2.114  14.770   7.019  0.2049  0.3655  0.0184
 1201ERGO    C116607   1.954  14.978   7.295  0.0187  0.3989 -0.1123
 1201ERGO    C216608   2.022  15.126   7.575 -0.2013  0.0053  0.0632
 1202ERGO   ROH16609  10.710  11.635  10.000  0.0891  0.0824 -0.0571
 1202ERGO    R116610  10.723  11.513   9.745 -0.0598  0.0124 -0.0329
 1202ERGO    R216611  10.515  11.525   9.563 -0.0423  0.2420 -0.0420
 1202ERGO    R316612  10.708  11.623   9.399  0.0901 -0.0364 -0.0553
 1202ERGO    R416613  10.525  11.479   9.221 -0.0640  0.1184 -0.0257
 1202ERGO    R516614  10.740  11.450   9.236 -0.0964 -0.1293  0.0037
 1202ERGO    C116615  10.712  11.544   8.867  0.0478 -0.2148 -0.0287
 1202ERGO    C216616  10.665  11.807   8.601 -0.2602 -0.1131 -0.0403
 1203ERGO   ROH16617   1.792  13.897  10.138 -0.0168 -0.0807  0.1859
 1203ERGO    R116618   1.895  13.968   9.884  0.0460 -0.1504  0.1911
 1203ERGO    R216619   1.986  13.781   9.702 -0.0095 -0.2096  0.2207
 1203ERGO    R316620   1.809  13.903   9.537  0.0617 -0.1510  0.1881
 1203ERGO    R416621   1.973  13.737   9.360  0.0344 -0.2046  0.2187
 1203ERGO    R516622   1.935  13.951   9.339  0.1103 -0.1940  0.2106
 1203ERGO    C116623   1.799  13.827   9.005  0.1268 -0.1467  0.1867
 1203ERGO    C216624   1.633  13.774   8.565 -0.2536 -0.0031  0.1291
 1204ERGO   ROH16625   5.467   3.322   6.924 -0.2541  0.0674  0.0869
 1204ERGO    R116626   5.575   3.330   7.185 -0.1295 -0.0402  0.0388
 1204ERGO    R216627   5.488   3.508   7.378  0.0784 -0.0079  0.1011
 1204ERGO    R316628   5.450   3.283   7.524 -0.0060 -0.0020  0.0907
 1204ERGO    R416629   5.388   3.501   7.708  0.1087  0.0167  0.1116
 1204ERGO    R516630   5.530   3.339   7.743  0.0426 -0.0492  0.0871
 1204ERGO    C116631   5.295   3.285   8.039  0.0471  0.0365  0.1079
 1204ERGO    C216632   5.265   3.203   8.369  0.0689 -0.0132  0.1768
 1205ERGO   ROH16633  15.588  11.786   9.192 -0.0692  0.1151  0.1046
 1205ERGO    R116634  15.738  11.856   8.963 -0.1960  0.0261 -0.0070
 1205ERGO    R216635  15.993  11.760   8.916 -0.0583  0.3319  0.1025
 1205ERGO    R316636  15.886  11.682   8.679  0.0275 -0.1481  0.2118
 1205ERGO    R416637  16.175  11.692   8.630  0.0040  0.4446  0.1143
 1205ERGO    R516638  16.020  11.792   8.514 -0.2657 -0.0091  0.0579
 1205ERGO    C116639  16.180  11.579   8.241  0.1209  0.0597  0.2239
 1205ERGO    C216640  16.251  11.606   7.985 -0.0688 -0.2132  0.1479
 1206ERGO   ROH16641   2.011  15.116   6.077  0.1707 -0.0922 -0.0085
 1206ERGO    R116642   1.960  15.044   6.346  0.2105  0.0496  0.0386
 1206ERGO    R216643   2.020  15.211   6.558  0.0120  0.2697 -0.0694
 1206ERGO    R316644   1.758  15.172   6.620  0.0412  0.0432 -0.0828
 1206ERGO    R416645   1.853  15.365   6.819 -0.1132  0.0393 -0.0113
 1206ERGO    R516646   1.752  15.177   6.859  0.0336 -0.0529 -0.0834
 1206ERGO    C116647   1.510  15.419   7.028 -0.1586 -0.3074  0.0098
 1206ERGO    C216648   1.369  15.518   7.358 -0.0542  0.0984 -0.2992
 1207ERGO   ROH16649   8.795  16.825   6.254  0.2932 -0.0327  0.0082
 1207ERGO    R116650   8.718  16.902   6.515  0.2564  0.0984 -0.0408
 1207ERGO    R216651   8.781  16.752   6.738  0.0687  0.1168  0.0239
 1207ERGO    R316652   8.887  16.987   6.826  0.2082  0.0655 -0.0050
 1207ERGO    R416653   8.914  16.804   7.053 -0.1811  0.1576  0.1253
 1207ERGO    R516654   8.820  17.001   7.055  0.0001  0.2515 -0.0722
 1207ERGO    C116655   9.091  17.053   7.319 -0.1956  0.1330  0.1573
 1207ERGO    C216656   9.047  16.908   7.616  0.0728  0.1563  0.1202
 1208ERGO   ROH16657   3.742  12.179   6.622  0.0268 -0.2900  0.1839
 1208ERGO    R116658   3.649  12.308   6.856  0.0894 -0.0799  0.0946
 1208ERGO    R216659   3.634  12.181   7.100 -0.0706  0.0669  0.1622
 1208ERGO    R316660   3.785  12.392   7.183  0.0941 -0.0151  0.0768
 1208ERGO    R416661   3.684  12.270   7.431 -0.1087  0.2302  0.1244
 1208ERGO    R516662   3.665  12.480   7.372  0.1028  0.2147 -0.0189
 1208ERGO    C116663   3.854  12.521   7.701  0.0238  0.2485  0.0222
 1208ERGO    C216664   3.980  12.761   7.893  0.0126 -0.0444 -0.2888
 1209ERGO   ROH16665  13.931  14.639   9.211  0.4761 -0.0230 -0.0381
 1209ERGO    R116666  13.998  14.610   8.938  0.2507 -0.0701 -0.0906
 1209ERGO    R216667  14.069  14.367   8.827  0.0339 -0.1167 -0.1409
 1209ERGO    R316668  13.869  14.425   8.653 -0.0723 -0.0117  0.0144
 1209ERGO    R416669  14.076  14.297   8.489 -0.0745  0.3025 -0.2349
 1209ERGO    R516670  13.982  14.490   8.452 -0.1972  0.2968  0.0424
 1209ERGO    C116671  13.892  14.310   8.128 -0.2373  0.6452 -0.1439
 1209ERGO    C216672  13.873  14.130   7.931  0.1458  0.1092 -0.1606
 1210ERGO   ROH16673   4.288  17.440   6.444 -0.0605 -0.1804  0.0563
 1210ERGO    R116674   4.177  17.274   6.643  0.1959 -0.1982  0.1880
 1210ERGO    R216675   4.284  17.254   6.897  0.1289  0.3086  0.2641
 1210ERGO    R316676   4.031  17.318   6.974 -0.0508 -0.1313  0.0726
 1210ERGO    R416677   4.167  17.240   7.222  0.0803  0.6243  0.2641
 1210ERGO    R516678   3.979  17.159   7.145  0.2751  0.0455  0.3479
 1210ERGO    C116679   3.861  17.291   7.483 -0.1167  0.3951  0.0843
 1210ERGO    C216680   3.727  17.551   7.727  0.1318  0.1083 -0.1150
 1211ERGO   ROH16681  11.925  12.023   9.678 -0.1388 -0.2395 -0.0747
 1211ERGO    R116682  11.889  12.192   9.454 -0.1845 -0.1873 -0.0276
 1211ERGO    R216683  11.997  12.136   9.206 -0.2359 -0.1289 -0.0605
 1211ERGO    R316684  11.740  12.164   9.123 -0.2519 -0.1076 -0.0053
 1211ERGO    R416685  11.899  12.174   8.877 -0.2789  0.0879 -0.0238
 1211ERGO    R516686  11.753  12.322   8.943 -0.2942  0.0237  0.1012
 1211ERGO    C116687  11.601  12.224   8.607 -0.3188  0.2340  0.0492
 1211ERGO    C216688  11.646  12.181   8.206  0.0144 -0.0015 -0.1597
 1212ERGO   ROH16689   9.185   4.012   6.898  0.0858  0.0365  0.0874
 1212ERGO    R116690   8.920   4.036   6.994  0.0751 -0.0600  0.0815
 1212ERGO    R216691   8.823   3.884   7.203  0.1881  0.0436  0.2081
 1212ERGO    R316692   8.760   4.126   7.309  0.0320  0.0882  0.0191
 1212ERGO    R416693   8.556   3.943   7.414  0.2233  0.0037  0.2646
 1212ERGO    R516694   8.520   4.130   7.308  0.0238 -0.1146  0.1102
 1212ERGO    C116695   8.341   4.205   7.636  0.0971  0.0223  0.1202
 1212ERGO    C216696   8.127   4.059   7.872 -0.5485  0.1307  0.1514
 1213ERGO   ROH16697   0.870   1.058   9.805 -0.1383 -0.0590 -0.0909
 1213ERGO    R116698   0.944   1.191   9.566 -0.1791 -0.1440 -0.1497
 1213ERGO    R216699   1.204   1.194   9.473 -0.1237  0.1577  0.0205
 1213ERGO    R316700   1.090   1.097   9.246  0.1657 -0.1938  0.0151
 1213ERGO    R416701   1.320   1.251   9.152 -0.1054  0.2653  0.0447
 1213ERGO    R516702   1.114   1.273   9.087 -0.1424 -0.2003 -0.0516
 1213ERGO    C116703   1.281   1.192   8.753  0.1769 -0.0019  0.0538
 1213ERGO    C216704   1.233   1.289   8.394  0.2179 -0.3052 -0.0534
 1214ERGO   ROH16705   1.306  17.877   6.152 -0.1809  0.1751  0.0583
 1214ERGO    R116706   1.199  17.836   6.411 -0.3227  0.0451 -0.0178
 1214ERGO    R216707   1.054  17.611   6.479 -0.0871 -0.1456 -0.1207
 1214ERGO    R316708   1.238  17.591   6.678 -0.2030  0.0986  0.0142
 1214ERGO    R416709   1.012  17.427   6.768 -0.1295 -0.0496 -0.0664
 1214ERGO    R516710   1.108  17.589   6.879 -0.3387  0.0816 -0.0729
 1214ERGO    C116711   1.161  17.301   7.123 -0.2631  0.2354  0.0918
 1214ERGO    C216712   1.046  17.018   7.313  0.0608 -0.1540 -0.0904
 1215ERGO   ROH16713  15.180   1.885   5.989 -0.1387  0.1474  0.2730
 1215ERGO    R116714  15.195   1.813   6.262 -0.0957 -0.0683  0.2163
 1215ERGO    R216715  15.099   1.975   6.465  0.2017 -0.0875  0.3830
 1215ERGO    R316716  14.960   1.751   6.533 -0.0462  0.0334  0.2823
 1215ERGO    R416717  14.943   1.922   6.769 -0.0406  0.0311  0.2809
 1215ERGO    R516718  15.011   1.716   6.764 -0.2252 -0.0305  0.3123
 1215ERGO    C116719  14.722   1.682   7.009 -0.4143  0.2135  0.1268
 1215ERGO    C216720  14.461   1.640   7.234  0.0620  0.1206  0.2126
 1216ERGO   ROH16721   6.935   2.733   6.420  0.1180 -0.1357 -0.0279
 1216ERGO    R116722   6.916   2.563   6.645 -0.1970 -0.1407 -0.0554
 1216ERGO    R216723   7.026   2.628   6.890  0.0496 -0.4386 -0.0887
 1216ERGO    R316724   6.773   2.582   6.979 -0.0374  0.1293  0.0031
 1216ERGO    R416725   6.937   2.600   7.223  0.2073 -0.6374 -0.0600
 1216ERGO    R516726   6.803   2.437   7.168 -0.2911 -0.2205 -0.2056
 1216ERGO    C116727   6.648   2.541   7.501  0.2174 -0.2200  0.0429
 1216ERGO    C216728   6.391   2.690   7.773 -0.0325 -0.1280 -0.4070
 1217ERGO   ROH16729   5.965   5.698   6.384  0.0129  0.0484  0.1190
 1217ERGO    R116730   6.041   5.773   6.647 -0.1402  0.1101  0.1467
 1217ERGO    R216731   5.858   5.854   6.837 -0.2944 -0.1786  0.1281
 1217ERGO    R316732   5.973   5.657   6.985 -0.0434 -0.0482  0.1130
 1217ERGO    R416733   5.875   5.851   7.182 -0.5809 -0.3350  0.1441
 1217ERGO    R516734   6.078   5.773   7.166 -0.4119  0.0562  0.2683
 1217ERGO    C116735   5.993   5.665   7.522 -0.5121 -0.3036  0.1392
 1217ERGO    C216736   6.189   5.598   7.767 -0.0998 -0.0296 -0.4955
 1218ERGO   ROH16737   0.227   3.435   9.905 -0.3883 -0.0045 -0.0555
 1218ERGO    R116738   0.290   3.543   9.651 -0.2185 -0.1129 -0.0608
 1218ERGO    R216739   0.443   3.407   9.465 -0.2465 -0.2694  0.0284
 1218ERGO    R316740   0.229   3.455   9.303 -0.1554 -0.1578 -0.0605
 1218ERGO    R416741   0.453   3.405   9.120 -0.0844 -0.1686  0.0315
 1218ERGO    R516742   0.321   3.579   9.120 -0.0322 -0.1302  0.0196
 1218ERGO    C116743   0.259   3.449   8.767  0.0954 -0.0051 -0.0499
 1218ERGO    C216744   0.305   3.503   8.415  0.0685 -0.0274  0.0030
 1219ERGO   ROH16745   9.652  10.389   9.798 -0.2127  0.1890 -0.1441
 1219ERGO    R116746   9.749  10.444   9.538 -0.2026  0.1898 -0.1407
 1219ERGO    R216747   9.835  10.245   9.366  0.0390  0.2071 -0.0494
 1219ERGO    R316748   9.655  10.358   9.197 -0.0367 -0.0325 -0.1319
 1219ERGO    R416749   9.878  10.278   9.025  0.1540  0.2838 -0.0280
 1219ERGO    R516750   9.788  10.476   9.037 -0.1247  0.1599 -0.0616
 1219ERGO    C116751   9.733  10.402   8.667  0.1499  0.1035 -0.0930
 1219ERGO    C216752   9.750  10.438   8.327 -0.0519 -0.0615 -0.6094
 1220ERGO   ROH16753   6.792   1.615  10.273  0.2222  0.0069 -0.0454
 1220ERGO    R116754   6.630   1.681  10.051  0.0522 -0.1313  0.0340
 1220ERGO    R216755   6.661   1.915   9.908 -0.3102 -0.0309  0.0982
 1220ERGO    R316756   6.681   1.746   9.696 -0.1539  0.0600  0.0389
 1220ERGO    R416757   6.576   1.995   9.583 -0.1054  0.0813  0.0704
 1220ERGO    R516758   6.489   1.796   9.562 -0.0669  0.0857 -0.0684
 1220ERGO    C116759   6.544   1.882   9.194  0.1606  0.2319 -0.0014
 1220ERGO    C216760   6.452   2.041   8.852  0.2668  0.0879 -0.1851
 1221ERGO   ROH16761  17.424   2.608   9.689  0.0811  0.0756  0.1019
 1221ERGO    R116762  17.544   2.573   9.435 -0.0022 -0.1063  0.0859
 1221ERGO    R216763  17.484   2.359   9.270 -0.3022 -0.0516  0.1178
 1221ERGO    R316764  17.431   2.555   9.090 -0.0817 -0.0007  0.1061
 1221ERGO    R416765  17.563   2.344   8.934 -0.1189 -0.0641  0.1606
 1221ERGO    R516766  17.621   2.554   8.944  0.0018 -0.0994  0.2141
 1221ERGO    C116767  17.559   2.520   8.569  0.1947 -0.0237  0.1745
 1221ERGO    C216768  17.676   2.569   8.192 -0.1226  0.0194 -0.1124
 1222ERGO   ROH16769  17.301   0.423   9.147 -0.1842 -0.1644  0.1143
 1222ERGO    R116770  17.258   0.520   8.884 -0.1831 -0.0820  0.1448
 1222ERGO    R216771  17.449   0.664   8.746 -0.2179  0.0405  0.2265
 1222ERGO    R316772  17.410   0.473   8.557 -0.1198  0.0974  0.1465
 1222ERGO    R416773  17.512   0.704   8.408  0.0676  0.1084  0.2851
 1222ERGO    R516774  17.329   0.593   8.366  0.0678  0.1691  0.1091
 1222ERGO    C116775  17.512   0.547   8.035  0.3259  0.2014  0.2441
 1222ERGO    C216776  17.739   0.574   7.824  0.0652  0.2813  0.0249
 1223ERGO   ROH16777  12.681  10.443   9.651 -0.2880  0.1652  0.0630
 1223ERGO    R116778  12.730  10.415   9.374 -0.2725  0.2609  0.0557
 1223ERGO    R216779  12.762  10.170   9.252 -0.0190  0.3091  0.0152
 1223ERGO    R316780  12.564  10.261   9.089 -0.1264  0.1284  0.0416
 1223ERGO    R416781  12.750  10.120   8.911  0.0424  0.4054 -0.0015
 1223ERGO    R516782  12.678  10.325   8.889 -0.2001  0.3287  0.0633
 1223ERGO    C116783  12.557  10.177   8.558 -0.0226  0.2918  0.0137
 1223ERGO    C216784  12.615  10.057   8.228 -0.3027 -0.0896  0.0011
 1224ERGO   ROH16785   4.674   9.836   6.782  0.0324  0.2272 -0.1315
 1224ERGO    R116786   4.655   9.926   7.050  0.0049  0.1781 -0.1172
 1224ERGO    R216787   4.712   9.764   7.267 -0.1061  0.1118 -0.1392
 1224ERGO    R316788   4.881   9.966   7.332 -0.0452  0.0349 -0.0552
 1224ERGO    R416789   4.807   9.846   7.589  0.0043 -0.1208 -0.1102
 1224ERGO    R516790   4.791  10.056   7.535  0.0310 -0.0796  0.0323
 1224ERGO    C116791   5.021  10.083   7.838  0.1257 -0.3285 -0.0146
 1224ERGO    C216792   5.129  10.026   8.185  0.5502  0.1494  0.3102
 1225ERGO   ROH16793  13.099  14.583   9.119  0.0830 -0.1674 -0.0010
 1225ERGO    R116794  12.918  14.606   8.903  0.0774 -0.0316  0.0170
 1225ERGO    R216795  12.885  14.841   8.760  0.2102  0.0067  0.0443
 1225ERGO    R316796  12.939  14.681   8.548  0.0942 -0.0063  0.0242
 1225ERGO    R416797  12.867  14.938   8.429  0.4370  0.1037  0.0583
 1225ERGO    R516798  12.779  14.745   8.382  0.2264  0.2188 -0.0169
 1225ERGO    C116799  12.908  14.844   8.037  0.4602  0.1479  0.0478
 1225ERGO    C216800  12.868  14.955   7.682 -0.0040 -0.2510 -0.2055
 1226ERGO   ROH16801  11.115  17.461   5.524 -0.0901 -0.2150 -0.0191
 1226ERGO    R116802  11.148  17.623   5.754 -0.1355 -0.0568 -0.1230
 1226ERGO    R216803  10.945  17.778   5.858 -0.2829 -0.3191 -0.0257
 1226ERGO    R316804  11.002  17.643   6.087  0.1191 -0.1262 -0.0029
 1226ERGO    R416805  10.948  17.918   6.174 -0.6364 -0.2272 -0.0578
 1226ERGO    R516806  11.126  17.800   6.219 -0.2882  0.2609 -0.0502
 1226ERGO    C116807  11.004  17.873   6.573 -0.4648  0.0077 -0.0552
 1226ERGO    C216808  10.965  18.001   6.918 -0.1379  0.1079 -0.3124
 1227ERGO   ROH16809  17.984  16.657   9.195  0.1056 -0.2973  0.0677
 1227ERGO    R116810  18.125  16.762   8.973  0.2019 -0.2189  0.1646
 1227ERGO    R216811  18.372  16.667   8.895  0.1625 -0.3080  0.1345
 1227ERGO    R316812  18.249  16.638   8.654  0.1777 -0.0649  0.0952
 1227ERGO    R416813  18.517  16.527   8.615  0.0547 -0.3560  0.1024
 1227ERGO    R516814  18.421  16.681   8.494  0.2570 -0.1950  0.1487
 1227ERGO    C116815  18.487  16.417   8.226  0.0062 -0.1560  0.0470
 1227ERGO    C216816  18.489  16.379   7.903  0.1385  0.3152  0.0161
 1228ERGO   ROH16817   8.367  14.495   6.190 -0.1280 -0.0025  0.0621
 1228ERGO    R116818   8.538  14.352   6.364 -0.0097  0.0487 -0.0090
 1228ERGO    R216819   8.761  14.465   6.481 -0.1450  0.2013  0.1142
 1228ERGO    R316820   8.644  14.379   6.711 -0.1045 -0.0839  0.0304
 1228ERGO    R416821   8.889  14.514   6.798 -0.3010  0.1713  0.1822
 1228ERGO    R516822   8.828  14.311   6.849 -0.0614  0.0635  0.0420
 1228ERGO    C116823   8.855  14.461   7.199 -0.3537 -0.1136  0.1430
 1228ERGO    C216824   9.037  14.702   7.390  0.1482  0.2023 -0.2646
 1229ERGO   ROH16825  13.593  16.806   9.134  0.0501  0.2114  0.1400
 1229ERGO    R116826  13.547  16.978   8.914 -0.2656  0.1502  0.1525
 1229ERGO    R216827  13.709  16.980   8.691 -0.1970  0.5357  0.1998
 1229ERGO    R316828  13.474  16.941   8.560 -0.0845  0.0381  0.1246
 1229ERGO    R416829  13.662  17.030   8.352 -0.2325  0.6392  0.2201
 1229ERGO    R516830  13.467  17.118   8.398 -0.4737  0.1386  0.2363
 1229ERGO    C116831  13.414  17.023   8.032 -0.1474  0.2325  0.1614
 1229ERGO    C216832  13.308  17.131   7.799 -0.1982 -0.1022  0.2430
 1230ERGO   ROH16833   0.843   5.715   6.566  0.0823  0.0161  0.1161
 1230ERGO    R116834   0.821   5.778   6.841  0.1816 -0.1461  0.1613
 1230ERGO    R216835   1.018   5.913   6.980  0.0910  0.0532  0.0870
 1230ERGO    R316836   0.813   6.080   7.044 -0.0938 -0.2489  0.3138
 1230ERGO    R416837   1.007   6.111   7.262  0.2847  0.2710 -0.0541
 1230ERGO    R516838   0.796   6.062   7.283  0.3853 -0.0907  0.3783
 1230ERGO    C116839   0.809   6.384   7.488  0.2239  0.1143  0.0765
 1230ERGO    C216840   0.774   6.559   7.721 -0.0602  0.2799  0.1777
 1231ERGO   ROH16841  16.791   6.782   6.402 -0.0704 -0.1975 -0.1645
 1231ERGO    R116842  16.738   6.623   6.629 -0.0224 -0.2136 -0.1634
 1231ERGO    R216843  16.872   6.386   6.680  0.1177 -0.1276 -0.1118
 1231ERGO    R316844  16.924   6.504   6.919 -0.0128 -0.0714 -0.1113
 1231ERGO    R416845  16.962   6.218   6.968  0.0227 -0.0538 -0.0395
 1231ERGO    R516846  16.834   6.354   7.081 -0.0546 -0.0579 -0.1229
 1231ERGO    C116847  17.064   6.232   7.360 -0.1553  0.0420  0.0031
 1231ERGO    C216848  17.433   6.062   7.494 -0.0829 -0.0020 -0.2411
 1232ERGO   ROH16849   6.774  15.797   6.279 -0.2108 -0.0586 -0.1412
 1232ERGO    R116850   6.730  15.773   6.558 -0.1250  0.0144 -0.1200
 1232ERGO    R216851   6.817  15.554   6.703 -0.1582  0.0075 -0.1041
 1232ERGO    R316852   6.936  15.744   6.856 -0.0314 -0.0048 -0.1873
 1232ERGO    R416853   6.810  15.563   7.049 -0.2502  0.2340 -0.1107
 1232ERGO    R516854   6.784  15.779   7.038 -0.0510  0.2491 -0.2528
 1232ERGO    C116855   6.918  15.747   7.393 -0.1849  0.3543 -0.1927
 1232ERGO    C216856   6.950  15.812   7.701  0.0109 -0.0003 -0.0476
 1233ERGO   ROH16857  16.785   9.552   9.819 -0.0447 -0.1487 -0.1376
 1233ERGO    R116858  16.891   9.519   9.559 -0.0009 -0.1749 -0.1175
 1233ERGO    R216859  16.826   9.304   9.397 -0.0974 -0.1151 -0.1632
 1233ERGO    R316860  16.759   9.499   9.220  0.0630 -0.0416 -0.1526
 1233ERGO    R416861  16.937   9.320   9.070 -0.0440 -0.1604 -0.1468
 1233ERGO    R516862  16.959   9.536   9.094  0.1101 -0.1725 -0.1215
 1233ERGO    C116863  16.938   9.513   8.713  0.1378 -0.1180 -0.1273
 1233ERGO    C216864  16.942   9.522   8.412  0.2592 -0.2594  0.1538
 1234ERGO   ROH16865   9.147  15.441   6.564  0.4288 -0.0848 -0.0766
 1234ERGO    R116866   9.258  15.453   6.824  0.2358 -0.0204  0.0039
 1234ERGO    R216867   9.112  15.396   7.051  0.1376 -0.2231 -0.1136
 1234ERGO    R316868   9.315  15.221   7.098  0.2937 -0.0189 -0.0046
 1234ERGO    R416869   9.161  15.226   7.348  0.0467 -0.2900 -0.1356
 1234ERGO    R516870   9.376  15.260   7.327  0.0379 -0.0400  0.0742
 1234ERGO    C116871   9.380  14.963   7.565  0.1404 -0.1372 -0.0459
 1234ERGO    C216872   9.445  14.661   7.807  0.0593  0.2680  0.1048
 1235ERGO   ROH16873   7.936   2.927  10.419 -0.0308 -0.2730  0.1857
 1235ERGO    R116874   7.811   2.849  10.177 -0.1324 -0.0307  0.1543
 1235ERGO    R216875   7.713   3.031   9.995  0.0031  0.1654  0.2570
 1235ERGO    R316876   7.872   2.895   9.822 -0.1294  0.1153  0.1765
 1235ERGO    R416877   7.674   3.028   9.651 -0.1312  0.1982  0.2728
 1235ERGO    R516878   7.722   2.815   9.653 -0.2203  0.1894  0.2333
 1235ERGO    C116879   7.801   2.897   9.289 -0.3338  0.1703  0.2062
 1235ERGO    C216880   7.867   3.020   8.894 -0.2025  0.0140 -0.1955
 1236ERGO   ROH16881   2.963  16.022  10.397  0.2329  0.1595 -0.1033
 1236ERGO    R116882   2.869  16.104  10.143  0.0749  0.1225 -0.0583
 1236ERGO    R216883   2.908  16.360  10.046 -0.0138  0.1198 -0.1072
 1236ERGO    R316884   3.017  16.228   9.834 -0.1181  0.1110 -0.1557
 1236ERGO    R416885   2.956  16.496   9.732  0.2759  0.2591 -0.0072
 1236ERGO    R516886   2.892  16.306   9.645  0.0503  0.3992 -0.1511
 1236ERGO    C116887   3.085  16.451   9.350  0.3467  0.3320  0.0055
 1236ERGO    C216888   3.160  16.573   8.961  0.0770  0.0241 -0.0187
 1237ERGO   ROH16889   9.207   1.059   7.734  0.0457 -0.0222 -0.1443
 1237ERGO    R116890   9.466   1.173   7.738 -0.0001  0.0902 -0.2470
 1237ERGO    R216891   9.520   1.426   7.641 -0.1776  0.1833 -0.1179
 1237ERGO    R316892   9.626   1.463   7.889 -0.0299  0.0616 -0.1629
 1237ERGO    R416893   9.758   1.663   7.722 -0.0126  0.0356 -0.1691
 1237ERGO    R516894   9.855   1.515   7.848 -0.0249 -0.0467 -0.2619
 1237ERGO    C116895   9.997   1.835   8.001  0.2221 -0.1646 -0.2411
 1237ERGO    C216896  10.046   2.108   8.003  0.2219  0.1338 -0.0217
 1238ERGO   ROH16897   0.567  11.696   9.832 -0.0268  0.0496  0.2137
 1238ERGO    R116898   0.490  11.467   9.685  0.0263 -0.0021  0.2650
 1238ERGO    R216899   0.342  11.482   9.451 -0.0076 -0.0911  0.2784
 1238ERGO    R316900   0.548  11.337   9.350  0.0266 -0.0447  0.2819
 1238ERGO    R416901   0.330  11.299   9.159  0.0346 -0.1051  0.2859
 1238ERGO    R516902   0.444  11.142   9.257  0.0736 -0.0732  0.2902
 1238ERGO    C116903   0.516  11.056   8.893  0.0913 -0.0698  0.2935
 1238ERGO    C216904   0.481  11.026   8.475 -0.1128 -0.4427 -0.1003
 1239ERGO   ROH16905  18.096  14.805   6.087  0.2390  0.2134 -0.1108
 1239ERGO    R116906  18.153  14.695   6.342  0.1716  0.1466 -0.1239
 1239ERGO    R216907  18.404  14.601   6.411  0.1571  0.1348 -0.0785
 1239ERGO    R316908  18.375  14.772   6.620  0.0923  0.0795 -0.0426
 1239ERGO    R416909  18.570  14.574   6.713 -0.2201 -0.1594  0.1099
 1239ERGO    R516910  18.385  14.631   6.814 -0.2789 -0.0103 -0.0825
 1239ERGO    C116911  18.639  14.718   7.085 -0.5003 -0.3825  0.2534
 1239ERGO    C216912  18.906  14.611   7.299 -0.0652 -0.0790  0.2690
 1240ERGO   ROH16913   6.821  18.204  10.363  0.0635 -0.1073  0.0587
 1240ERGO    R116914   6.931  18.287  10.115 -0.0624  0.0693  0.0603
 1240ERGO    R216915   6.965  18.114   9.902  0.1006  0.1519  0.0203
 1240ERGO    R316916   6.820  18.301   9.769 -0.1281  0.0217  0.0784
 1240ERGO    R416917   6.958  18.150   9.559 -0.2311  0.0173  0.0089
 1240ERGO    R516918   6.961  18.366   9.586 -0.3266  0.0328 -0.0764
 1240ERGO    C116919   6.818  18.347   9.233 -0.6389 -0.1831  0.0568
 1240ERGO    C216920   6.828  18.357   8.911  0.2575  0.0180 -0.2217
 1241ERGO   ROH16921  14.789   2.463   9.236  0.1531 -0.0151 -0.0415
 1241ERGO    R116922  14.721   2.580   8.987 -0.0844 -0.0189  0.0203
 1241ERGO    R216923  14.884   2.560   8.764 -0.1077  0.3118 -0.0222
 1241ERGO    R316924  14.657   2.462   8.648  0.0086  0.0173 -0.0129
 1241ERGO    R416925  14.830   2.535   8.423 -0.1329  0.4028 -0.0260
 1241ERGO    R516926  14.625   2.600   8.455 -0.2407  0.0762  0.0585
 1241ERGO    C116927  14.587   2.428   8.117 -0.0387  0.1792 -0.0195
 1241ERGO    C216928  14.521   2.366   7.835 -0.2987  0.2890  0.2064
 1242ERGO   ROH16929  15.738   1.563   9.534 -0.1147 -0.4676  0.0010
 1242ERGO    R116930  15.856   1.611   9.281 -0.0941 -0.0465  0.0838
 1242ERGO    R216931  15.838   1.431   9.072  0.2390  0.1290 -0.1011
 1242ERGO    R316932  15.740   1.646   8.938 -0.0269  0.1235  0.0769
 1242ERGO    R416933  15.860   1.478   8.730  0.1229  0.4024 -0.0739
 1242ERGO    R516934  15.902   1.689   8.767 -0.1025  0.4276  0.0726
 1242ERGO    C116935  15.781   1.707   8.405 -0.1944  0.5564  0.1088
 1242ERGO    C216936  15.849   1.799   8.113  0.0216  0.1938  0.0738
 1243ERGO   ROH16937  10.049  10.380   6.157 -0.1137 -0.1479 -0.1541
 1243ERGO    R116938  10.148  10.188   6.340  0.0237 -0.0219 -0.0950
 1243ERGO    R216939  10.323  10.254   6.545 -0.1735  0.2021  0.0033
 1243ERGO    R316940  10.134  10.134   6.700 -0.1137 -0.0336 -0.1010
 1243ERGO    R416941  10.386  10.089   6.842 -0.1437  0.4229  0.1213
 1243ERGO    R516942  10.241   9.937   6.784  0.1375  0.1649  0.0633
 1243ERGO    C116943  10.245   9.882   7.161 -0.0703  0.3302  0.0921
 1243ERGO    C216944  10.253   9.751   7.382 -0.0004 -0.2068 -0.0794
 1244ERGO   ROH16945   9.746   7.679   6.564  0.0866 -0.3788 -0.0298
 1244ERGO    R116946   9.755   7.774   6.831  0.1194 -0.2069 -0.0916
 1244ERGO    R216947   9.664   7.626   7.045 -0.0887  0.0309 -0.0126
 1244ERGO    R316948   9.913   7.674   7.143 -0.0611 -0.1617  0.0168
 1244ERGO    R416949   9.768   7.551   7.366 -0.1601 -0.1322 -0.0262
 1244ERGO    R516950   9.876   7.741   7.370 -0.0332 -0.2018  0.0350
 1244ERGO    C116951  10.062   7.553   7.645 -0.1757 -0.4079 -0.0065
 1244ERGO    C216952  10.103   7.428   7.987 -0.1553 -0.1227 -0.0957
 1245ERGO   ROH16953  17.495  14.252   6.090 -0.0106 -0.0763 -0.1535
 1245ERGO    R116954  17.387  14.115   6.313 -0.0961  0.0107 -0.1417
 1245ERGO    R216955  17.479  14.155   6.571 -0.0990  0.0051 -0.1446
 1245ERGO    R316956  17.217  14.205   6.622 -0.0794  0.1388 -0.1675
 1245ERGO    R416957  17.341  14.180   6.886 -0.1247 -0.0399 -0.1518
 1245ERGO    R516958  17.167  14.070   6.813 -0.1828  0.0869 -0.2248
 1245ERGO    C116959  17.014  14.241   7.118 -0.1214  0.0594 -0.1775
 1245ERGO    C216960  16.996  14.383   7.372  0.3301 -0.1427  0.0128
 1246ERGO   ROH16961  17.694  14.617   6.314  0.0514 -0.1122  0.1763
 1246ERGO    R116962  17.542  14.612   6.552 -0.1552 -0.4291  0.0423
 1246ERGO    R216963  17.388  14.825   6.636  0.1414 -0.3584  0.4157
 1246ERGO    R316964  17.190  14.639   6.642 -0.1931 -0.0554 -0.1930
 1246ERGO    R416965  17.110  14.839   6.840  0.1592 -0.5015  0.4518
 1246ERGO    R516966  17.129  14.625   6.873 -0.2172 -0.6725 -0.2166
 1246ERGO    C116967  16.762  14.672   6.965 -0.1447 -0.3004 -0.0987
 1246ERGO    C216968  16.568  14.702   7.284  0.1212  0.1044 -0.0209
 1247ERGO   ROH16969  18.460   1.716   9.678 -0.1799  0.2519 -0.1123
 1247ERGO    R116970  18.623   1.685   9.449 -0.0926  0.2006 -0.0438
 1247ERGO    R216971  18.598   1.471   9.275  0.0769  0.0784  0.0766
 1247ERGO    R316972  18.573   1.667   9.089  0.0254 -0.0464 -0.0493
 1247ERGO    R416973  18.683   1.438   8.942 -0.1452 -0.1838  0.0423
 1247ERGO    R516974  18.765   1.640   8.948 -0.0738 -0.2075 -0.1538
 1247ERGO    C116975  18.709   1.603   8.573 -0.3228 -0.4536 -0.0960
 1247ERGO    C216976  18.666   1.605   8.249  0.1465 -0.2388 -0.3873
 1248ERGO   ROH16977  12.005  14.254   9.604  0.1479 -0.2168 -0.1192
 1248ERGO    R116978  12.067  14.285   9.329  0.0801 -0.1213 -0.1262
 1248ERGO    R216979  12.054  14.075   9.149  0.0546 -0.0688 -0.1986
 1248ERGO    R316980  11.892  14.245   9.013  0.0045 -0.0346 -0.0935
 1248ERGO    R416981  12.038  14.098   8.805 -0.0039  0.1013 -0.1837
 1248ERGO    R516982  12.023  14.315   8.825 -0.0427  0.0828 -0.0773
 1248ERGO    C116983  11.875  14.271   8.476 -0.0852  0.2326 -0.0761
 1248ERGO    C216984  11.892  14.204   8.175  0.3456 -0.3748  0.0945
 1249ERGO   ROH16985  12.155  17.609   9.335 -0.2896  0.1623 -0.0255
 1249ERGO    R116986  12.064  17.692   9.080 -0.0140  0.1668 -0.1261
 1249ERGO    R216987  12.234  17.798   8.889  0.2459 -0.0772 -0.0462
 1249ERGO    R316988  12.130  17.601   8.734  0.1529 -0.0303 -0.0424
 1249ERGO    R416989  12.176  17.823   8.550  0.1374 -0.0298 -0.0239
 1249ERGO    R516990  11.989  17.715   8.579  0.1298  0.0119  0.0185
 1249ERGO    C116991  12.043  17.652   8.207 -0.0131  0.0420 -0.0074
 1249ERGO    C216992  12.002  17.755   7.944 -0.0100  0.3856  0.0632
 1250ERGO   ROH16993  12.323  16.143   8.926 -0.0971 -0.1725  0.0445
 1250ERGO    R116994  12.206  16.116   8.669 -0.0992 -0.2552  0.0538
 1250ERGO    R216995  12.298  16.255   8.449 -0.1852 -0.2239  0.0373
 1250ERGO    R316996  12.314  16.007   8.340 -0.0609 -0.2259  0.0568
 1250ERGO    R416997  12.309  16.189   8.110 -0.0402 -0.2445  0.0449
 1250ERGO    R516998  12.176  16.019   8.144  0.0059 -0.2869  0.0066
 1250ERGO    C116999  12.330  15.917   7.810  0.1609 -0.2583  0.0676
 1250ERGO    C217000  12.424  15.780   7.564 -0.0655 -0.1160 -0.1255
 1251ERGO   ROH17001  10.893  16.681   9.565  0.0349 -0.1324  0.0141
 1251ERGO    R117002  10.931  16.723   9.287 -0.1032 -0.1407 -0.0068
 1251ERGO    R217003  10.874  16.530   9.098 -0.2221 -0.1369  0.0254
 1251ERGO    R317004  10.722  16.728   8.989 -0.2566 -0.1219  0.0996
 1251ERGO    R417005  10.858  16.604   8.761 -0.2962 -0.0663  0.0440
 1251ERGO    R517006  10.857  16.816   8.812 -0.2978 -0.0763  0.0898
 1251ERGO    C117007  10.706  16.833   8.463 -0.3717 -0.0111  0.1245
 1251ERGO    C217008  10.658  16.747   8.151 -0.1808 -0.0169 -0.1408
 1252ERGO   ROH17009   8.435  16.199  10.330 -0.1303 -0.1694  0.0387
 1252ERGO    R117010   8.558  16.256  10.081  0.0349 -0.2527  0.1001
 1252ERGO    R217011   8.636  16.058   9.905 -0.2894 -0.3029  0.0082
 1252ERGO    R317012   8.483  16.199   9.730  0.0057  0.0846  0.0474
 1252ERGO    R417013   8.634  16.009   9.563 -0.4961 -0.3057  0.0084
 1252ERGO    R517014   8.624  16.226   9.538  0.0356 -0.2664  0.0117
 1252ERGO    C117015   8.489  16.113   9.199 -0.3395  0.0566  0.0454
 1252ERGO    C217016   8.447  16.278   8.917 -0.0084  0.2921  0.0201
 1253ERGO   ROH17017  15.535  15.352   5.184 -0.0268 -0.0581 -0.0301
 1253ERGO    R117018  15.568  15.414   5.458  0.1144 -0.1861 -0.0168
 1253ERGO    R217019  15.370  15.533   5.609  0.3141  0.0716  0.0501
 1253ERGO    R317020  15.411  15.319   5.772  0.0218 -0.0420 -0.0186
 1253ERGO    R417021  15.360  15.543   5.954  0.4305 -0.0004  0.0561
 1253ERGO    R517022  15.531  15.409   5.958  0.2227 -0.2798 -0.0284
 1253ERGO    C117023  15.392  15.349   6.308  0.2240 -0.1489 -0.0049
 1253ERGO    C217024  15.578  15.355   6.616 -0.4080 -0.2165  0.0796
 1254ERGO   ROH17025   2.604   9.328   6.716 -0.0549  0.0150 -0.1581
 1254ERGO    R117026   2.427   9.216   6.906 -0.0911  0.0514 -0.1712
 1254ERGO    R217027   2.232   9.033   6.838  0.0414 -0.0978 -0.1456
 1254ERGO    R317028   2.349   8.884   7.033  0.0214  0.0946  0.0183
 1254ERGO    R417029   2.089   8.756   6.987  0.0879 -0.0458 -0.0013
 1254ERGO    R517030   2.168   8.824   7.178 -0.0200  0.1316 -0.0137
 1254ERGO    C117031   2.116   8.454   7.256  0.0961  0.1652  0.2366
 1254ERGO    C217032   2.008   8.198   7.138  0.0350 -0.0830  0.1861
 1255ERGO   ROH17033  16.690   7.882   6.314 -0.1509 -0.1696 -0.2902
 1255ERGO    R117034  16.568   7.732   6.520 -0.0829 -0.0430 -0.1570
 1255ERGO    R217035  16.688   7.691   6.765  0.0663 -0.0218 -0.2286
 1255ERGO    R317036  16.455   7.793   6.861  0.1805  0.1213 -0.0956
 1255ERGO    R417037  16.523   7.575   7.046  0.0621 -0.0435 -0.2389
 1255ERGO    R517038  16.334   7.602   6.939  0.0459  0.1747 -0.1652
 1255ERGO    C117039  16.208   7.604   7.299  0.1670  0.0781 -0.1201
 1255ERGO    C217040  16.063   7.392   7.631  0.0027  0.0852 -0.2243
 1256ERGO   ROH17041  14.589   5.651   6.516  0.1434  0.0379 -0.0846
 1256ERGO    R117042  14.636   5.548   6.775  0.1258 -0.0957 -0.1336
 1256ERGO    R217043  14.886   5.461   6.858  0.1783  0.1010 -0.0788
 1256ERGO    R317044  14.843   5.637   7.061 -0.0982 -0.0809  0.0258
 1256ERGO    R417045  15.039   5.448   7.167  0.1738  0.1417 -0.0747
 1256ERGO    R517046  14.850   5.502   7.259  0.0826 -0.1923 -0.0548
 1256ERGO    C117047  15.089   5.604   7.538 -0.0886 -0.0054  0.0259
 1256ERGO    C217048  15.097   5.809   7.863  0.0751 -0.0051 -0.1382
 1257ERGO   ROH17049   2.305  12.982   6.350  0.1940  0.0517 -0.1236
 1257ERGO    R117050   2.094  13.142   6.449  0.1631  0.0039 -0.1137
 1257ERGO    R217051   1.974  13.096   6.694  0.1750 -0.0336 -0.1186
 1257ERGO    R317052   2.038  13.357   6.738  0.1199 -0.0221 -0.1016
 1257ERGO    R417053   1.765  13.327   6.843  0.1813 -0.1310  0.0460
 1257ERGO    R517054   1.833  13.475   6.697  0.0561 -0.0781  0.0346
 1257ERGO    C117055   1.703  13.707   6.971  0.1333 -0.1771  0.1578
 1257ERGO    C217056   1.410  13.862   7.044  0.0758  0.5148  0.1472
 1258ERGO   ROH17057   0.306  15.004   6.278 -0.0581 -0.2970 -0.0131
 1258ERGO    R117058   0.347  14.928   6.548  0.0173 -0.1805  0.0079
 1258ERGO    R217059   0.598  14.915   6.662  0.0431 -0.0946 -0.0476
 1258ERGO    R317060   0.488  15.081   6.847  0.0640 -0.0381 -0.0846
 1258ERGO    R417061   0.749  15.006   6.959  0.0050 -0.1587 -0.0077
 1258ERGO    R517062   0.555  14.988   7.057 -0.0367 -0.0678 -0.0616
 1258ERGO    C117063   0.734  15.215   7.306  0.0024 -0.1431 -0.0192
 1258ERGO    C217064   0.867  15.487   7.549  0.1034  0.0008 -0.0276
 1259ERGO   ROH17065  11.928   6.294  10.069  0.1894  0.0436 -0.1069
 1259ERGO    R117066  11.997   6.248   9.798  0.1096 -0.0102 -0.1187
 1259ERGO    R217067  11.896   6.036   9.653  0.0641 -0.0393 -0.0485
 1259ERGO    R317068  11.822   6.232   9.479  0.0148 -0.0711 -0.0634
 1259ERGO    R417069  11.856   5.994   9.312  0.0545 -0.0752 -0.0429
 1259ERGO    R517070  11.950   6.188   9.282  0.0117 -0.0606 -0.0656
 1259ERGO    C117071  11.764   6.154   8.951  0.0025 -0.1261 -0.0536
 1259ERGO    C217072  11.767   6.161   8.627 -0.2753  0.2259  0.0784
 1260ERGO   ROH17073   3.496   6.882  10.247 -0.0904  0.1058 -0.0864
 1260ERGO    R117074   3.569   6.701  10.041  0.0178  0.1313 -0.0729
 1260ERGO    R217075   3.389   6.612   9.852  0.0246 -0.1229  0.0298
 1260ERGO    R317076   3.576   6.704   9.678 -0.1568  0.0488 -0.0765
 1260ERGO    R417077   3.439   6.489   9.533  0.2013 -0.3285  0.1346
 1260ERGO    R517078   3.653   6.507   9.564  0.1756  0.0787  0.0939
 1260ERGO    C117079   3.643   6.504   9.183  0.1340 -0.2871  0.0959
 1260ERGO    C217080   3.606   6.505   8.887 -0.3161  0.1934  0.1594
 1261ERGO   ROH17081  13.917  14.005   5.919 -0.2764  0.0521 -0.0817
 1261ERGO    R117082  13.901  14.048   6.198 -0.1306 -0.0135 -0.0644
 1261ERGO    R217083  13.662  14.045   6.336 -0.0506 -0.0717  0.0596
 1261ERGO    R317084  13.789  13.859   6.489  0.0493 -0.0898 -0.0406
 1261ERGO    R417085  13.569  13.958   6.657 -0.0536 -0.3373 -0.0094
 1261ERGO    R517086  13.781  13.950   6.710 -0.0498 -0.2313  0.0205
 1261ERGO    C117087  13.635  13.732   6.988  0.0382 -0.5090 -0.1438
 1261ERGO    C217088  13.530  13.533   7.343 -0.2561 -0.0803 -0.0268
 1262ERGO   ROH17089  14.583   3.783  10.052 -0.0279 -0.1554 -0.0902
 1262ERGO    R117090  14.478   3.878   9.806 -0.0078 -0.0596 -0.0634
 1262ERGO    R217091  14.577   4.103   9.678  0.0762 -0.0683 -0.0252
 1262ERGO    R317092  14.603   3.932   9.469 -0.0074 -0.0394 -0.0585
 1262ERGO    R417093  14.523   4.185   9.347 -0.2378 -0.0819  0.0198
 1262ERGO    R517094  14.427   3.993   9.319 -0.1587 -0.1256  0.0881
 1262ERGO    C117095  14.517   4.073   8.958 -0.4991 -0.0625  0.0150
 1262ERGO    C217096  14.431   4.224   8.682  0.3163 -0.0514  0.0914
 1263ERGO   ROH17097   9.926   9.299   6.346 -0.1539 -0.0479  0.1531
 1263ERGO    R117098  10.141   9.268   6.527 -0.0963 -0.1149  0.0749
 1263ERGO    R217099  10.170   9.424   6.753  0.1496  0.0213 -0.0428
 1263ERGO    R317100  10.181   9.183   6.879 -0.0125  0.0953  0.1165
 1263ERGO    R417101  10.260   9.378   7.083  0.1751  0.1708 -0.0288
 1263ERGO    R517102  10.371   9.201   7.023  0.0268  0.0444  0.0685
 1263ERGO    C117103  10.323   9.125   7.394  0.0377  0.3275  0.1289
 1263ERGO    C217104  10.392   9.231   7.637 -0.0038 -0.0735 -0.1278
 1264ERGO   ROH17105   8.153  12.964   6.427 -0.0449 -0.1123  0.0313
 1264ERGO    R117106   8.243  12.793   6.634  0.0607 -0.1218 -0.0230
 1264ERGO    R217107   8.478  12.838   6.772 -0.0470  0.0694  0.0924
 1264ERGO    R317108   8.315  12.825   6.989 -0.1185 -0.2296  0.0261
 1264ERGO    R417109   8.582  12.758   7.091 -0.0178  0.2482  0.1298
 1264ERGO    R517110   8.400  12.640   7.115  0.1746 -0.0892  0.0523
 1264ERGO    C117111   8.490  12.698   7.482 -0.0680  0.0717  0.0893
 1264ERGO    C217112   8.364  12.747   7.834 -0.0246  0.0457  0.0411
 1265ERGO   ROH17113  17.240   9.641   6.163 -0.3179  0.1114  0.0065
 1265ERGO    R117114  17.321   9.776   6.398 -0.2090  0.0236  0.0221
 1265ERGO    R217115  17.192  10.002   6.492 -0.0359  0.1217  0.0517
 1265ERGO    R317116  17.173   9.856   6.721 -0.1482  0.1011  0.0283
 1265ERGO    R417117  17.080  10.124   6.795 -0.1611  0.0830  0.0206
 1265ERGO    R517118  17.236  10.009   6.894 -0.2192  0.0675  0.0752
 1265ERGO    C117119  16.997  10.058   7.187 -0.3395  0.0410 -0.0196
 1265ERGO    C217120  16.884   9.973   7.474 -0.0412  0.4293  0.0753
 1266ERGO   ROH17121  11.128   8.599  10.081  0.0700 -0.1421  0.2052
 1266ERGO    R117122  11.020   8.565   9.821  0.0199 -0.1110  0.2211
 1266ERGO    R217123  11.108   8.710   9.604 -0.0722 -0.0289  0.2338
 1266ERGO    R317124  11.145   8.464   9.494 -0.0220  0.0058  0.1691
 1266ERGO    R417125  11.078   8.637   9.267 -0.3199 -0.0073  0.2499
 1266ERGO    R517126  10.979   8.450   9.322 -0.1629 -0.0711  0.3109
 1266ERGO    C117127  11.094   8.364   8.969 -0.4171  0.0377  0.1985
 1266ERGO    C217128  11.087   8.430   8.691 -0.1075 -0.0793  0.2951
 1267ERGO   ROH17129   8.647  18.327  10.241 -0.1142  0.0691  0.1743
 1267ERGO    R117130   8.571  18.234   9.985 -0.1389  0.0196  0.2000
 1267ERGO    R217131   8.314  18.264   9.886 -0.1030  0.1522  0.1538
 1267ERGO    R317132   8.443  18.382   9.678  0.0031 -0.0157  0.1215
 1267ERGO    R417133   8.214  18.244   9.556 -0.2276  0.2876  0.1822
 1267ERGO    R517134   8.424  18.224   9.499 -0.2625  0.0047  0.1236
 1267ERGO    C117135   8.277  18.344   9.168 -0.2004  0.2091  0.1684
 1267ERGO    C217136   8.244  18.369   8.755  0.0895  0.0290 -0.2427
 1268ERGO   ROH17137  16.316   4.732   6.074 -0.0173 -0.1330  0.0681
 1268ERGO    R117138  16.351   4.773   6.351 -0.0316 -0.0952  0.0652
 1268ERGO    R217139  16.212   4.630   6.542 -0.0497 -0.0649  0.0802
 1268ERGO    R317140  16.461   4.575   6.636 -0.0560 -0.0613  0.0969
 1268ERGO    R417141  16.283   4.530   6.865 -0.0501  0.0427  0.1134
 1268ERGO    R517142  16.459   4.659   6.861 -0.0379  0.0172  0.0647
 1268ERGO    C117143  16.558   4.420   7.142 -0.0559  0.1087  0.1483
 1268ERGO    C217144  16.629   4.121   7.366 -0.2971  0.3613  0.0647
 1269ERGO   ROH17145  11.408  15.773   9.447 -0.0804 -0.0212 -0.0120
 1269ERGO    R117146  11.484  15.686   9.188 -0.1169  0.0362 -0.0410
 1269ERGO    R217147  11.355  15.480   9.056 -0.2005  0.1378 -0.1086
 1269ERGO    R317148  11.327  15.666   8.860 -0.1235  0.2116 -0.0516
 1269ERGO    R417149  11.363  15.413   8.717 -0.0662  0.2500 -0.1292
 1269ERGO    R517150  11.478  15.595   8.689 -0.0506  0.2668 -0.0178
 1269ERGO    C117151  11.341  15.549   8.336  0.0840  0.3846 -0.0877
 1269ERGO    C217152  11.422  15.513   7.972  0.0145 -0.1217  0.1410
 1270ERGO   ROH17153   6.224  10.363   6.509  0.0830 -0.0452 -0.0562
 1270ERGO    R117154   6.056  10.382   6.737 -0.0485 -0.1458 -0.1433
 1270ERGO    R217155   5.962  10.159   6.871  0.1915 -0.2065 -0.0633
 1270ERGO    R317156   6.072  10.283   7.086 -0.0672  0.0694 -0.0818
 1270ERGO    R417157   5.875  10.098   7.200  0.2347 -0.2268 -0.0552
 1270ERGO    R517158   5.890  10.312   7.239 -0.1466 -0.1873 -0.1308
 1270ERGO    C117159   5.929  10.178   7.594  0.0171  0.0203 -0.0679
 1270ERGO    C217160   5.837   9.900   7.731 -0.2598  0.0275  0.0550
 1271ERGO   ROH17161  11.076   5.076   6.353 -0.1082 -0.0228 -0.0237
 1271ERGO    R117162  11.214   5.045   6.598 -0.0177  0.0785 -0.0613
 1271ERGO    R217163  11.144   5.182   6.827 -0.2632 -0.2067  0.0399
 1271ERGO    R317164  11.134   4.933   6.934  0.2312 -0.3097 -0.1243
 1271ERGO    R417165  11.227   5.105   7.153 -0.6377 -0.1388  0.1561
 1271ERGO    R517166  11.324   4.924   7.080  0.0126  0.1518  0.2180
 1271ERGO    C117167  11.266   4.827   7.445 -0.3918 -0.1959  0.0697
 1271ERGO    C217168  11.551   4.792   7.734  0.0592 -0.4014  0.1079
 1272ERGO   ROH17169  16.839   1.736   9.523  0.0386  0.0821 -0.1382
 1272ERGO    R117170  16.727   1.695   9.266  0.0513 -0.0478 -0.1233
 1272ERGO    R217171  16.699   1.900   9.082 -0.1278 -0.0985 -0.1515
 1272ERGO    R317172  16.838   1.730   8.921 -0.0035 -0.0115 -0.1379
 1272ERGO    R417173  16.650   1.865   8.742 -0.1182 -0.1739 -0.1458
 1272ERGO    R517174  16.676   1.650   8.765  0.0484 -0.1543 -0.1218
 1272ERGO    C117175  16.752   1.685   8.393  0.0042 -0.1360 -0.1297
 1272ERGO    C217176  16.824   1.738   8.000  0.3098  0.0475 -0.3043
 1273ERGO   ROH17177   0.852  14.053   6.262 -0.0443  0.0486 -0.0341
 1273ERGO    R117178   0.815  14.103   6.538 -0.0212  0.0035 -0.0239
 1273ERGO    R217179   0.763  13.902   6.721  0.1188 -0.0368 -0.0373
 1273ERGO    R317180   0.978  14.008   6.849  0.0840  0.0638 -0.0581
 1273ERGO    R417181   0.821  13.879   7.061  0.0464  0.1679 -0.0081
 1273ERGO    R517182   0.890  14.085   7.058  0.0269  0.1807 -0.1189
 1273ERGO    C117183   1.057  13.964   7.379 -0.0283  0.3817 -0.0107
 1273ERGO    C217184   1.115  13.781   7.560  0.0447 -0.2809 -0.5738
 1274ERGO   ROH17185  16.041  14.318   6.113 -0.1094 -0.0067 -0.0353
 1274ERGO    R117186  16.025  14.364   6.392  0.0387 -0.1540 -0.0000
 1274ERGO    R217187  15.795  14.459   6.514  0.1724  0.0015  0.1397
 1274ERGO    R317188  15.826  14.238   6.670  0.0151 -0.1243 -0.0040
 1274ERGO    R417189  15.564  14.345   6.744  0.0382 -0.0593 -0.0238
 1274ERGO    R517190  15.728  14.299   6.879 -0.0324 -0.2300  0.0039
 1274ERGO    C117191  15.458  14.072   7.024 -0.1876 -0.2128 -0.2540
 1274ERGO    C217192  15.094  14.105   7.223  0.0996  0.0223  0.0236
 1275ERGO   ROH17193  11.225   6.200   6.356 -0.1205  0.1915  0.1358
 1275ERGO    R117194  11.087   6.227   6.601 -0.0891  0.1140  0.1621
 1275ERGO    R217195  10.876   6.063   6.672 -0.0339  0.0491  0.1664
 1275ERGO    R317196  11.025   6.021   6.895  0.0087  0.0491  0.1386
 1275ERGO    R417197  10.753   6.062   6.995  0.0249  0.0734  0.1894
 1275ERGO    R517198  10.932   6.169   7.058  0.0479  0.0660  0.1496
 1275ERGO    C117199  10.822   6.022   7.392  0.0992  0.0875  0.1767
 1275ERGO    C217200  10.729   6.171   7.759  0.2437 -0.0960  0.0466
 1276ERGO   ROH17201   6.130  16.912   6.326  0.0062  0.1659  0.1737
 1276ERGO    R117202   6.055  16.707   6.506 -0.0589  0.0834  0.0546
 1276ERGO    R217203   6.229  16.601   6.692 -0.0749 -0.1222 -0.0430
 1276ERGO    R317204   6.032  16.668   6.867 -0.0121 -0.1401  0.0340
 1276ERGO    R417205   6.227  16.519   7.028 -0.0010 -0.2389 -0.0709
 1276ERGO    R517206   6.014  16.478   7.012 -0.0140 -0.1861 -0.0274
 1276ERGO    C117207   6.042  16.535   7.388  0.1011 -0.3237 -0.0148
 1276ERGO    C217208   6.076  16.709   7.707 -0.0043  0.1574 -0.2126
 1277ERGO   ROH17209   5.627   0.850   6.646  0.1256 -0.0378  0.1310
 1277ERGO    R117210   5.721   0.611   6.764  0.0047 -0.0945  0.1127
 1277ERGO    R217211   5.837   0.604   7.015  0.0002 -0.1714  0.1097
 1277ERGO    R317212   5.647   0.416   7.063 -0.0932 -0.0823  0.0976
 1277ERGO    R417213   5.835   0.391   7.287 -0.0041 -0.3059  0.0061
 1277ERGO    R517214   5.769   0.231   7.154 -0.1595 -0.2029 -0.0482
 1277ERGO    C117215   5.655   0.090   7.490 -0.0942 -0.3005 -0.0656
 1277ERGO    C217216   5.750  -0.035   7.849  0.3809 -0.1982 -0.0042
 1278ERGO   ROH17217   2.302   6.118  10.155 -0.0121 -0.2207  0.0730
 1278ERGO    R117218   2.317   6.031   9.886 -0.2121 -0.2610  0.0741
 1278ERGO    R217219   2.099   6.035   9.715 -0.2250  0.1765  0.0976
 1278ERGO    R317220   2.267   6.179   9.557  0.0566 -0.1634  0.0730
 1278ERGO    R417221   2.103   6.025   9.370 -0.4586  0.3194  0.0881
 1278ERGO    R517222   2.320   6.031   9.377 -0.4190 -0.2315 -0.0304
 1278ERGO    C117223   2.262   6.154   9.021 -0.3303  0.0835  0.0594
 1278ERGO    C217224   2.281   6.195   8.761 -0.1056 -0.0248 -0.1732
 1279ERGO   ROH17225   8.096   2.530   6.153 -0.0118  0.1081  0.1293
 1279ERGO    R117226   8.058   2.405   6.405  0.1400 -0.0036  0.0984
 1279ERGO    R217227   8.236   2.436   6.614  0.1006  0.1674  0.1095
 1279ERGO    R317228   8.013   2.513   6.749 -0.0014 -0.1446  0.1249
 1279ERGO    R417229   8.214   2.463   6.958  0.0674  0.0743  0.1143
 1279ERGO    R517230   8.014   2.376   6.946  0.1757 -0.1830  0.0990
 1279ERGO    C117231   7.992   2.550   7.285 -0.0477 -0.2728  0.1315
 1279ERGO    C217232   7.898   2.845   7.562 -0.0916 -0.2071 -0.2553
 1280ERGO   ROH17233  13.651  11.660   6.132  0.0091 -0.0932 -0.0826
 1280ERGO    R117234  13.878  11.631   6.299  0.0140 -0.2345 -0.1118
 1280ERGO    R217235  13.903  11.765   6.539  0.2370 -0.0495 -0.2354
 1280ERGO    R317236  13.944  11.515   6.638 -0.0588 -0.0220 -0.0215
 1280ERGO    R417237  14.107  11.691   6.809  0.2260 -0.0631 -0.2307
 1280ERGO    R517238  14.176  11.514   6.701 -0.0338 -0.2604 -0.0967
 1280ERGO    C117239  14.263  11.412   7.058 -0.0581 -0.0452 -0.0272
 1280ERGO    C217240  14.570  11.498   7.324 -0.3713 -0.0379 -0.0009
 1281ERGO   ROH17241   7.407   9.526   6.391  0.0927 -0.0433 -0.0672
 1281ERGO    R117242   7.465   9.502   6.668  0.0253 -0.0273 -0.0516
 1281ERGO    R217243   7.494   9.722   6.833 -0.0009 -0.0169 -0.0596
 1281ERGO    R317244   7.303   9.595   6.980 -0.0442  0.0046 -0.0972
 1281ERGO    R417245   7.486   9.710   7.178 -0.0319 -0.0806 -0.0622
 1281ERGO    R517246   7.423   9.502   7.165 -0.0839 -0.0608 -0.1055
 1281ERGO    C117247   7.302   9.585   7.517 -0.0905 -0.0974 -0.0991
 1281ERGO    C217248   7.479   9.510   7.822 -0.1112  0.1935 -0.0195
 1282ERGO   ROH17249  17.704  16.021   5.859 -0.1500 -0.0033 -0.0575
 1282ERGO    R117250  17.676  16.183   6.090 -0.2121 -0.0854 -0.0074
 1282ERGO    R217251  17.624  16.078   6.340 -0.0286 -0.1967 -0.0156
 1282ERGO    R317252  17.846  16.217   6.411 -0.1270 -0.0142 -0.0589
 1282ERGO    R417253  17.754  16.091   6.660  0.0854 -0.1856 -0.0616
 1282ERGO    R517254  17.794  16.303   6.629 -0.1225 -0.1342 -0.0084
 1282ERGO    C117255  18.038  16.229   6.913  0.0595 -0.0079 -0.1290
 1282ERGO    C217256  18.154  16.072   7.117  0.2547 -0.0676  0.3294
 1283ERGO   ROH17257   9.249  17.414   9.786  0.1045  0.2334 -0.0312
 1283ERGO    R117258   9.376  17.404   9.533  0.0277  0.2875 -0.0714
 1283ERGO    R217259   9.333  17.199   9.352  0.1513  0.2057 -0.0037
 1283ERGO    R317260   9.271  17.404   9.185 -0.0894  0.1090 -0.0384
 1283ERGO    R417261   9.321  17.177   9.007 -0.0381  0.0731  0.0090
 1283ERGO    R517262   9.415  17.373   8.996 -0.1755  0.1391 -0.1141
 1283ERGO    C117263   9.256  17.357   8.650 -0.3745 -0.0948 -0.0161
 1283ERGO    C217264   9.217  17.328   8.329  0.2417  0.0003 -0.1256
 1284ERGO   ROH17265   6.859  16.679   7.671  0.0492  0.3249 -0.1735
 1284ERGO    R117266   7.061  16.864   7.742  0.0351  0.2852 -0.0249
 1284ERGO    R217267   7.061  16.999   7.983  0.0537  0.0536  0.1088
 1284ERGO    R317268   7.311  16.895   8.004  0.0709  0.0644 -0.0313
 1284ERGO    R417269   7.337  17.170   8.101  0.0321 -0.0504  0.3135
 1284ERGO    R517270   7.457  17.076   7.945  0.0410  0.1626  0.1891
 1284ERGO    C117271   7.733  17.171   8.190  0.0356 -0.1008  0.3012
 1284ERGO    C217272   8.108  17.098   8.293  0.1463 -0.2304  0.1152
 1285ERGO   ROH17273   7.472  14.278  10.128  0.0596  0.1082  0.0123
 1285ERGO    R117274   7.531  14.177   9.870  0.0686  0.0256  0.0463
 1285ERGO    R217275   7.334  14.122   9.684  0.0768 -0.0176  0.0512
 1285ERGO    R317276   7.482  14.287   9.527  0.0974 -0.0762  0.0091
 1285ERGO    R417277   7.371  14.088   9.342 -0.0438 -0.0310  0.0393
 1285ERGO    R517278   7.581  14.141   9.364 -0.0129 -0.1177 -0.0236
 1285ERGO    C117279   7.531  14.223   8.995 -0.0949 -0.0939 -0.0071
 1285ERGO    C217280   7.494  14.280   8.584  0.1649  0.0924 -0.0810
 1286ERGO   ROH17281  18.454  12.285   6.234 -0.0357 -0.0458  0.0712
 1286ERGO    R117282  18.284  12.380   6.440 -0.0320  0.0984  0.0087
 1286ERGO    R217283  18.263  12.648   6.505 -0.1240  0.1590 -0.2618
 1286ERGO    R317284  17.998  12.604   6.464 -0.1156  0.0131 -0.1659
 1286ERGO    R417285  18.010  12.752   6.716 -0.1060  0.0126 -0.1659
 1286ERGO    R517286  17.910  12.562   6.682 -0.0131 -0.0427 -0.1341
 1286ERGO    C117287  17.614  12.771   6.800 -0.0878 -0.2097 -0.0199
 1286ERGO    C217288  17.296  12.823   6.838  0.0766  0.3321  0.1457
 1287ERGO   ROH17289  12.264   2.064   6.286 -0.0914  0.1485 -0.0245
 1287ERGO    R117290  12.389   2.168   6.517  0.0302  0.1335 -0.0829
 1287ERGO    R217291  12.403   2.027   6.755 -0.0949  0.2297 -0.0165
 1287ERGO    R317292  12.669   2.075   6.730 -0.0453 -0.0490 -0.0616
 1287ERGO    R417293  12.619   2.080   7.019  0.0106  0.0148 -0.0568
 1287ERGO    R517294  12.717   2.236   6.901  0.1540 -0.0912 -0.0766
 1287ERGO    C117295  12.995   2.157   7.150  0.1185 -0.3719 -0.1225
 1287ERGO    C217296  13.378   2.200   7.264 -0.1649 -0.3765  0.0213
 1288ERGO   ROH17297   0.419  14.087   9.371 -0.3745 -0.4784  0.0954
 1288ERGO    R117298   0.458  14.146   9.097 -0.1916 -0.2904  0.1608
 1288ERGO    R217299   0.517  13.951   8.910 -0.2776 -0.1905  0.0347
 1288ERGO    R317300   0.301  14.056   8.782 -0.1240  0.1064  0.0064
 1288ERGO    R417301   0.484  13.976   8.567 -0.0970  0.0783  0.0329
 1288ERGO    R517302   0.394  14.173   8.595  0.0767  0.1508  0.1274
 1288ERGO    C117303   0.262  14.089   8.247  0.1523  0.5136  0.0054
 1288ERGO    C217304   0.360  14.086   7.940 -0.1220 -0.2844 -0.2111
 1289ERGO   ROH17305   9.233   8.595   6.756  0.1729  0.1383  0.1213
 1289ERGO    R117306   9.231   8.664   7.030  0.0640  0.5635  0.0201
 1289ERGO    R217307   9.081   8.875   7.129 -0.6718  0.2018 -0.2486
 1289ERGO    R317308   8.982   8.684   7.295  0.0985  0.0669  0.0995
 1289ERGO    R417309   8.919   8.936   7.428 -0.6678  0.0736 -0.2196
 1289ERGO    R517310   9.025   8.768   7.515 -0.0093  0.5336 -0.0440
 1289ERGO    C117311   8.732   8.792   7.758  0.0577 -0.1275  0.1241
 1289ERGO    C217312   8.376   8.839   7.947 -0.2324  0.1576  0.1855
 1290ERGO   ROH17313   5.775  16.388   6.654  0.3076  0.2142  0.1800
 1290ERGO    R117314   5.609  16.353   6.880  0.1732  0.1419  0.0752
 1290ERGO    R217315   5.667  16.173   7.083  0.0013 -0.0074  0.0150
 1290ERGO    R317316   5.641  16.393   7.240  0.0083 -0.0803  0.1121
 1290ERGO    R417317   5.671  16.171   7.428  0.1992 -0.1076  0.0113
 1290ERGO    R517318   5.511  16.319   7.427  0.1538 -0.1793  0.1597
 1290ERGO    C117319   5.649  16.376   7.777  0.3210 -0.2342  0.1003
 1290ERGO    C217320   5.719  16.520   8.051 -0.0367  0.0981 -0.3150
 1291ERGO   ROH17321   9.296  11.872   6.485  0.1338 -0.2527  0.0246
 1291ERGO    R117322   9.341  11.987   6.739 -0.0068 -0.1578  0.0077
 1291ERGO    R217323   9.321  11.842   6.974  0.0638 -0.1214  0.0368
 1291ERGO    R317324   9.573  11.937   7.015 -0.0176  0.0897  0.0643
 1291ERGO    R417325   9.476  11.860   7.282  0.0385 -0.0453  0.0455
 1291ERGO    R517326   9.558  12.054   7.224 -0.1270  0.0379  0.0860
 1291ERGO    C117327   9.803  11.959   7.501 -0.0527  0.1971  0.0764
 1291ERGO    C217328   9.839  11.729   7.735 -0.1547  0.1534 -0.3499
 1292ERGO   ROH17329  10.376   3.678   6.221  0.0650 -0.2948  0.0491
 1292ERGO    R117330  10.448   3.525   6.447 -0.2015 -0.1999  0.2017
 1292ERGO    R217331  10.690   3.556   6.577 -0.1285 -0.5160  0.1414
 1292ERGO    R317332  10.533   3.591   6.795 -0.0482  0.0056  0.1285
 1292ERGO    R417333  10.803   3.560   6.904 -0.0885 -0.4790  0.1277
 1292ERGO    R517334  10.626   3.446   6.961 -0.3380 -0.0642  0.2421
 1292ERGO    C117335  10.721   3.596   7.299  0.0105  0.0322  0.1075
 1292ERGO    C217336  10.633   3.516   7.652 -0.1756 -0.1169  0.0755
 1293ERGO   ROH17337   4.865   3.924   6.895 -0.2581  0.0602 -0.0469
 1293ERGO    R117338   4.870   4.104   7.113 -0.2416  0.1106 -0.0878
 1293ERGO    R217339   5.089   4.261   7.171 -0.1611 -0.0189 -0.0235
 1293ERGO    R317340   4.906   4.463   7.160 -0.0247  0.0987 -0.1608
 1293ERGO    R417341   5.151   4.588   7.267 -0.0122 -0.0455 -0.0283
 1293ERGO    R517342   4.951   4.593   7.356 -0.0626  0.0947 -0.1518
 1293ERGO    C117343   5.016   4.967   7.312  0.2026  0.0495 -0.1600
 1293ERGO    C217344   5.188   5.223   7.286  0.0772 -0.0255 -0.1362
 1294ERGO   ROH17345  15.073  16.969   5.484  0.1819 -0.0391 -0.0111
 1294ERGO    R117346  15.029  16.895   5.754  0.1199 -0.0137 -0.0138
 1294ERGO    R217347  15.235  16.837   5.928  0.0779 -0.0739  0.0185
 1294ERGO    R317348  15.115  17.026   6.082  0.1172 -0.0276 -0.0079
 1294ERGO    R417349  15.323  16.910   6.254  0.0492 -0.0907  0.0297
 1294ERGO    R517350  15.111  16.930   6.301  0.0490 -0.0170 -0.0053
 1294ERGO    C117351  15.261  17.130   6.589  0.0696 -0.0569  0.0114
 1294ERGO    C217352  15.416  17.333   6.795  0.1603  0.0252 -0.0653
 1295ERGO   ROH17353   3.560   2.156  10.542 -0.1606 -0.4540  0.0034
 1295ERGO    R117354   3.675   2.222  10.292 -0.3714 -0.0973 -0.0055
 1295ERGO    R217355   3.822   2.041  10.143 -0.0007  0.2829 -0.1140
 1295ERGO    R317356   3.644   2.106   9.949 -0.2051 -0.0389 -0.0428
 1295ERGO    R417357   3.890   2.043   9.804 -0.0845  0.5462 -0.1318
 1295ERGO    R517358   3.772   2.225   9.787 -0.4982  0.3073 -0.0385
 1295ERGO    C117359   3.762   2.106   9.425 -0.3252  0.3974 -0.0752
 1295ERGO    C217360   3.665   2.088   9.049 -0.3985  0.0835 -0.0709
 1296ERGO   ROH17361  11.162   7.924   6.491  0.1029 -0.0635  0.0196
 1296ERGO    R117362  10.947   8.081   6.588  0.0485 -0.0916 -0.0522
 1296ERGO    R217363  10.741   7.975   6.739  0.1077 -0.0850  0.0402
 1296ERGO    R317364  10.811   8.171   6.913  0.0518  0.0522 -0.0910
 1296ERGO    R417365  10.563   8.060   7.022  0.0201  0.1417 -0.0809
 1296ERGO    R517366  10.603   8.270   6.979  0.0337  0.1058 -0.2328
 1296ERGO    C117367  10.525   8.293   7.351 -0.0835  0.4026 -0.2746
 1296ERGO    C217368  10.308   8.263   7.633  0.0606  0.2186 -0.2463
 1297ERGO   ROH17369   9.503  18.217   5.903 -0.0926 -0.0717  0.2593
 1297ERGO    R117370   9.549  18.234   6.182 -0.0278  0.1425  0.2361
 1297ERGO    R217371   9.651  18.023   6.328  0.0077  0.2615  0.3697
 1297ERGO    R317372   9.836  18.207   6.404  0.0235  0.3209  0.1969
 1297ERGO    R417373   9.875  17.982   6.588  0.1178  0.4009  0.2999
 1297ERGO    R517374   9.842  18.190   6.643  0.1194  0.4350  0.2105
 1297ERGO    C117375  10.179  18.130   6.811  0.1966  0.5376  0.0971
 1297ERGO    C217376  10.492  18.056   6.937  0.1786  0.0789 -0.1191
 1298ERGO   ROH17377   3.034   7.170   6.931 -0.1024  0.0552  0.1219
 1298ERGO    R117378   2.908   7.361   7.097 -0.0478  0.1876  0.0117
 1298ERGO    R217379   2.898   7.337   7.372 -0.2438  0.2374  0.0092
 1298ERGO    R317380   3.009   7.585   7.366 -0.0307  0.1457  0.0409
 1298ERGO    R417381   2.948   7.537   7.649 -0.4770  0.3292 -0.0127
 1298ERGO    R517382   2.886   7.709   7.530 -0.1696  0.3264 -0.1918
 1298ERGO    C117383   3.081   7.887   7.805 -0.4127  0.2964  0.0045
 1298ERGO    C217384   3.270   8.085   8.013  0.2685  0.2274  0.0514
 1299ERGO   ROH17385  13.815   1.944   5.678  0.2952  0.0184 -0.0133
 1299ERGO    R117386  13.985   2.011   5.894  0.1440  0.0478  0.0978
 1299ERGO    R217387  13.909   1.980   6.158  0.0441 -0.1361  0.0474
 1299ERGO    R317388  14.138   1.836   6.174  0.1507  0.0339  0.0863
 1299ERGO    R417389  14.070   1.896   6.452 -0.0766 -0.2119  0.0927
 1299ERGO    R517390  14.260   1.936   6.354 -0.0419  0.0092  0.2362
 1299ERGO    C117391  14.379   1.712   6.638 -0.0468 -0.0964  0.1556
 1299ERGO    C217392  14.257   1.477   6.775  0.0810 -0.1590  0.0282
 1300ERGO   ROH17393   9.301  12.992   6.417 -0.0958  0.0486 -0.2251
 1300ERGO    R117394   9.276  12.978   6.699  0.0625 -0.1038 -0.2173
 1300ERGO    R217395   9.059  13.082   6.834  0.2422  0.0215 -0.0201
 1300ERGO    R317396   9.044  12.830   6.936  0.0639 -0.0305 -0.1697
 1300ERGO    R417397   8.990  13.006   7.164  0.4514 -0.1124 -0.0055
 1300ERGO    R517398   9.141  12.848   7.154  0.2783 -0.2709 -0.2388
 1300ERGO    C117399   8.936  12.726   7.452  0.4059 -0.2392 -0.1374
 1300ERGO    C217400   8.838  12.597   7.848  0.1938  0.2975 -0.1976
 1301ERGO   ROH17401   0.783  16.342   9.904  0.3443 -0.0898  0.0133
 1301ERGO    R117402   0.890  16.427   9.656  0.1930 -0.0718 -0.0472
 1301ERGO    R217403   1.060  16.269   9.506  0.0831 -0.0732 -0.1780
 1301ERGO    R317404   0.876  16.314   9.310 -0.0424 -0.0325 -0.0514
 1301ERGO    R417405   1.070  16.129   9.190 -0.0475  0.1052 -0.2623
 1301ERGO    R517406   1.005  16.321   9.108 -0.1620  0.1241 -0.1211
 1301ERGO    C117407   0.904  16.090   8.822 -0.2414  0.2473 -0.1927
 1301ERGO    C217408   0.901  15.986   8.441 -0.0655  0.1588 -0.3323
 1302ERGO   ROH17409   2.893  11.360   9.574  0.2947  0.1179  0.0282
 1302ERGO    R117410   2.948  11.517   9.345  0.0926  0.0616 -0.0608
 1302ERGO    R217411   3.177  11.484   9.194  0.0574  0.1630 -0.1350
 1302ERGO    R317412   2.999  11.457   8.990 -0.0031 -0.0510 -0.0565
 1302ERGO    R417413   3.262  11.458   8.860 -0.0474 -0.0010 -0.1503
 1302ERGO    R517414   3.093  11.586   8.812 -0.1290 -0.1130 -0.1709
 1302ERGO    C117415   3.145  11.417   8.474 -0.1652 -0.2972 -0.0856
 1302ERGO    C217416   3.472  11.340   8.240 -0.3266  0.2204 -0.2650
 1303ERGO   ROH17417   0.516   3.271   6.409 -0.0290  0.2448  0.0652
 1303ERGO    R117418   0.603   3.072   6.590 -0.0202  0.1904  0.0027
 1303ERGO    R217419   0.819   3.108   6.758  0.0173  0.1229 -0.0266
 1303ERGO    R317420   0.640   3.040   6.951  0.0428  0.1020 -0.0115
 1303ERGO    R417421   0.897   2.943   7.052  0.0341 -0.0381 -0.1214
 1303ERGO    R517422   0.715   2.826   7.029 -0.0142  0.0393 -0.1273
 1303ERGO    C117423   0.775   2.783   7.403  0.0679 -0.1514 -0.1625
 1303ERGO    C217424   0.774   2.819   7.745 -0.0942 -0.1925 -0.0309
 1304ERGO   ROH17425   7.005  10.526  10.289 -0.2183 -0.0634 -0.0391
 1304ERGO    R117426   7.040  10.438  10.023 -0.2204  0.0257 -0.0688
 1304ERGO    R217427   6.829  10.411   9.846 -0.2111  0.1511 -0.0955
 1304ERGO    R317428   6.983  10.573   9.690 -0.1530  0.1648 -0.0257
 1304ERGO    R417429   6.843  10.398   9.501 -0.0959  0.1835 -0.0929
 1304ERGO    R517430   7.058  10.431   9.513 -0.0959  0.1778 -0.0150
 1304ERGO    C117431   6.995  10.543   9.153  0.0256  0.2152 -0.0259
 1304ERGO    C217432   7.014  10.464   8.800  0.1237  0.0666  0.0628
 1305ERGO   ROH17433  15.279  12.577   9.124  0.3118 -0.1541  0.1470
 1305ERGO    R117434  15.271  12.656   8.853  0.4121  0.0639  0.2041
 1305ERGO    R217435  15.492  12.644   8.689  0.3860 -0.1734  0.1745
 1305ERGO    R317436  15.327  12.497   8.530  0.1255  0.2069  0.0824
 1305ERGO    R417437  15.546  12.582   8.353  0.5043 -0.4189  0.2368
 1305ERGO    R517438  15.332  12.611   8.318  0.5999  0.1350  0.0495
 1305ERGO    C117439  15.423  12.408   8.008  0.3287 -0.2050  0.1867
 1305ERGO    C217440  15.602  12.498   7.644  0.0658 -0.3285  0.1098
 1306ERGO   ROH17441   0.249  16.326   5.903  0.0393 -0.1667 -0.1172
 1306ERGO    R117442   0.320  16.300   6.176  0.0121 -0.0462 -0.0990
 1306ERGO    R217443   0.299  16.062   6.314 -0.0599  0.0305  0.0199
 1306ERGO    R317444   0.561  16.109   6.370 -0.0517 -0.0097  0.0184
 1306ERGO    R417445   0.459  15.963   6.604 -0.1631  0.2947  0.1706
 1306ERGO    R517446   0.563  16.155   6.605 -0.0854  0.2598 -0.0285
 1306ERGO    C117447   0.798  15.950   6.826 -0.2155  0.4109  0.2571
 1306ERGO    C217448   1.153  15.755   6.975  0.1634 -0.0329 -0.0832
 1307ERGO   ROH17449   1.102  17.163  10.228  0.1504 -0.0001  0.1794
 1307ERGO    R117450   1.323  17.207  10.056  0.1382 -0.1111  0.1323
 1307ERGO    R217451   1.446  17.002   9.916 -0.1809 -0.1379 -0.1318
 1307ERGO    R317452   1.395  17.162   9.702 -0.0739  0.1504  0.0540
 1307ERGO    R417453   1.607  16.982   9.611 -0.2060  0.1081 -0.1612
 1307ERGO    R517454   1.609  17.200   9.603 -0.0529  0.1161  0.0932
 1307ERGO    C117455   1.653  17.121   9.233 -0.1201  0.5222 -0.0041
 1307ERGO    C217456   1.640  17.136   8.942 -0.1517 -0.2162  0.1368
 1308ERGO   ROH17457   1.782  15.583   6.282  0.1618 -0.2452  0.0024
 1308ERGO    R117458   1.796  15.743   6.515  0.1231 -0.2025 -0.0243
 1308ERGO    R217459   1.584  15.898   6.603  0.1234 -0.1489 -0.1138
 1308ERGO    R317460   1.624  15.761   6.834  0.0355 -0.1118 -0.0763
 1308ERGO    R417461   1.585  16.038   6.919 -0.0470 -0.1094 -0.1301
 1308ERGO    R517462   1.752  15.910   6.971 -0.0522 -0.0757 -0.0341
 1308ERGO    C117463   1.622  15.991   7.320 -0.2286 -0.0515 -0.1045
 1308ERGO    C217464   1.704  16.226   7.543 -0.1271 -0.1964  0.2093
 1309ERGO   ROH17465  18.008   8.476   6.058 -0.0880  0.0933  0.0938
 1309ERGO    R117466  17.876   8.484   6.309 -0.0507  0.1186  0.1122
 1309ERGO    R217467  17.993   8.389   6.541 -0.0321  0.1070  0.0957
 1309ERGO    R317468  17.934   8.638   6.633  0.0174  0.1172  0.1016
 1309ERGO    R417469  17.935   8.469   6.872 -0.2355  0.0643  0.0726
 1309ERGO    R517470  17.775   8.601   6.808 -0.1293  0.1540 -0.0203
 1309ERGO    C117471  17.847   8.750   7.152 -0.3072  0.0488  0.0647
 1309ERGO    C217472  17.770   8.658   7.571 -0.1841  0.1922  0.1659
 1310ERGO   ROH17473  16.727  16.072   5.663  0.0049  0.1837 -0.1026
 1310ERGO    R117474  16.725  16.214   5.908 -0.0462  0.0133 -0.0037
 1310ERGO    R217475  16.535  16.168   6.104 -0.1022 -0.1055 -0.0869
 1310ERGO    R317476  16.754  16.131   6.261 -0.1482 -0.2356 -0.0511
 1310ERGO    R417477  16.534  16.175   6.450 -0.1237  0.0819 -0.0889
 1310ERGO    R517478  16.723  16.283   6.443 -0.0148 -0.1042 -0.1345
 1310ERGO    C117479  16.739  16.143   6.798 -0.1794  0.0691 -0.0564
 1310ERGO    C217480  16.884  16.067   7.112 -0.0329 -0.1021  0.1888
 1311ERGO   ROH17481  13.266   3.440   6.052  0.3402  0.1942 -0.0051
 1311ERGO    R117482  13.224   3.382   6.326  0.0706  0.0584 -0.0710
 1311ERGO    R217483  13.233   3.124   6.427  0.2220  0.0314 -0.1512
 1311ERGO    R317484  13.416   3.232   6.597 -0.0913  0.1718  0.1095
 1311ERGO    R417485  13.250   3.059   6.766  0.0439 -0.2789 -0.1981
 1311ERGO    R517486  13.294   3.270   6.799 -0.3296 -0.2302  0.0532
 1311ERGO    C117487  13.432   3.122   7.123 -0.3538 -0.3278  0.0194
 1311ERGO    C217488  13.524   3.125   7.379 -0.2247 -0.4203  0.0601
 1312ERGO   ROH17489   3.506   6.002   7.057 -0.1374 -0.0871  0.0989
 1312ERGO    R117490   3.687   5.896   7.247 -0.0689 -0.0613  0.0485
 1312ERGO    R217491   3.886   6.048   7.364  0.0102 -0.0585 -0.0849
 1312ERGO    R317492   3.773   5.958   7.595  0.0985  0.0271 -0.0078
 1312ERGO    R417493   4.058   5.988   7.658  0.1197  0.0634 -0.1235
 1312ERGO    R517494   3.937   5.810   7.687  0.1375  0.0702 -0.0088
 1312ERGO    C117495   4.052   5.870   8.046  0.2663  0.2147 -0.0735
 1312ERGO    C217496   4.110   6.023   8.344 -0.1479  0.0880 -0.2909
 1313ERGO   ROH17497   1.894   1.300   9.938  0.0697  0.0690 -0.0586
 1313ERGO    R117498   2.006   1.402   9.699  0.1424 -0.0620 -0.0816
 1313ERGO    R217499   2.102   1.238   9.498 -0.0993 -0.1794 -0.1064
 1313ERGO    R317500   1.931   1.382   9.343  0.0383  0.0324 -0.0653
 1313ERGO    R417501   2.142   1.294   9.159  0.0107 -0.0200 -0.0684
 1313ERGO    R517502   2.074   1.499   9.190  0.1551  0.0135  0.0286
 1313ERGO    C117503   2.004   1.462   8.817  0.2038  0.2716 -0.0078
 1313ERGO    C217504   2.011   1.461   8.550  0.0510  0.2626 -0.0232
 1314ERGO   ROH17505  15.362  10.226   6.384 -0.0122  0.1181 -0.1439
 1314ERGO    R117506  15.332  10.321   6.649  0.0605  0.0647 -0.1164
 1314ERGO    R217507  15.543  10.426   6.794  0.0891  0.0800 -0.1706
 1314ERGO    R317508  15.375  10.637   6.824  0.0574  0.0419 -0.0733
 1314ERGO    R417509  15.548  10.645   7.061 -0.0028 -0.0988 -0.0191
 1314ERGO    R517510  15.330  10.645   7.059 -0.0045 -0.1226 -0.0773
 1314ERGO    C117511  15.393  10.972   7.243 -0.0862 -0.2387  0.1605
 1314ERGO    C217512  15.463  11.111   7.608 -0.1633 -0.0391 -0.0045
 1315ERGO   ROH17513   1.023  18.138   9.817  0.0203  0.0103  0.0565
 1315ERGO    R117514   0.991  18.115   9.537 -0.0098  0.0527  0.0568
 1315ERGO    R217515   0.790  18.247   9.400 -0.0322  0.0632  0.1006
 1315ERGO    R317516   0.998  18.341   9.251 -0.0539  0.0981  0.0913
 1315ERGO    R417517   0.773  18.325   9.063 -0.0385 -0.0088  0.0837
 1315ERGO    R517518   0.971  18.235   9.038 -0.0101  0.0473  0.1108
 1315ERGO    C117519   0.958  18.458   8.728 -0.0626 -0.0180  0.0650
 1315ERGO    C217520   1.096  18.387   8.356 -0.0577  0.2230 -0.1908
 1316ERGO   ROH17521   0.342   1.818   6.308 -0.0966 -0.1289 -0.2006
 1316ERGO    R117522   0.470   1.697   6.529 -0.0051  0.0583 -0.1496
 1316ERGO    R217523   0.609   1.843   6.719 -0.3755  0.2795 -0.0392
 1316ERGO    R317524   0.443   1.715   6.892 -0.2513 -0.0556 -0.1603
 1316ERGO    R417525   0.700   1.723   7.030 -0.2902  0.1956 -0.0959
 1316ERGO    R517526   0.579   1.546   6.992 -0.0500  0.0556 -0.2395
 1316ERGO    C117527   0.596   1.533   7.373 -0.1239 -0.1678 -0.2426
 1316ERGO    C217528   0.542   1.456   7.728 -0.1177 -0.0967 -0.1238
 1317ERGO   ROH17529  15.403   4.332   6.043  0.1861 -0.2353  0.0413
 1317ERGO    R117530  15.297   4.419   6.291  0.0417 -0.1735 -0.0435
 1317ERGO    R217531  15.201   4.244   6.481  0.2942 -0.1478  0.0939
 1317ERGO    R317532  15.377   4.374   6.643  0.0866  0.2581  0.0107
 1317ERGO    R417533  15.138   4.331   6.810  0.3420 -0.6318  0.2411
 1317ERGO    R517534  15.239   4.522   6.773 -0.2633 -0.2598  0.2832
 1317ERGO    C117535  15.266   4.504   7.153  0.1751 -0.5326  0.2488
 1317ERGO    C217536  15.297   4.380   7.473 -0.0609 -0.1176  0.2336
 1318ERGO   ROH17537   6.704   0.352   6.409 -0.1117 -0.1051  0.1674
 1318ERGO    R117538   6.690   0.519   6.637 -0.2014 -0.0711  0.1355
 1318ERGO    R217539   6.633   0.422   6.889 -0.0547 -0.0697  0.1620
 1318ERGO    R317540   6.865   0.547   6.955 -0.1485  0.1498  0.0906
 1318ERGO    R417541   6.725   0.511   7.210  0.0920 -0.2804  0.1821
 1318ERGO    R517542   6.803   0.698   7.130 -0.1997 -0.0953  0.2961
 1318ERGO    C117543   6.996   0.680   7.459  0.0894 -0.1970  0.1267
 1318ERGO    C217544   7.038   0.607   7.866  0.0282 -0.2412  0.0211
 1319ERGO   ROH17545  17.181   2.908   6.001 -0.0970  0.1045  0.1166
 1319ERGO    R117546  17.250   2.822   6.261 -0.0791  0.0190  0.0835
 1319ERGO    R217547  17.103   2.891   6.484 -0.0070  0.0261  0.1270
 1319ERGO    R317548  17.095   2.622   6.523 -0.1046  0.0202  0.0701
 1319ERGO    R417549  16.957   2.735   6.756  0.1111  0.0358  0.1968
 1319ERGO    R517550  17.125   2.595   6.759  0.0511 -0.0448  0.0458
 1319ERGO    C117551  16.865   2.391   6.951  0.0884  0.0360  0.1840
 1319ERGO    C217552  16.526   2.277   7.110 -0.4054 -0.3651  0.0226
 1320ERGO   ROH17553   6.420   0.553  10.329  0.2177 -0.1984  0.2681
 1320ERGO    R117554   6.431   0.462  10.061  0.2652 -0.0918  0.2336
 1320ERGO    R217555   6.211   0.463   9.894  0.2419 -0.2356  0.2681
 1320ERGO    R317556   6.377   0.604   9.731  0.0870 -0.0244  0.2892
 1320ERGO    R417557   6.188   0.473   9.549  0.2084 -0.2003  0.2714
 1320ERGO    R517558   6.405   0.464   9.539  0.2263  0.0343  0.2605
 1320ERGO    C117559   6.329   0.611   9.196  0.0435  0.0186  0.2932
 1320ERGO    C217560   6.325   0.585   8.842 -0.0482  0.4412  0.0046
 1321ERGO   ROH17561   5.141  17.950   6.460  0.3906 -0.1225 -0.0615
 1321ERGO    R117562   5.203  17.948   6.737  0.1489 -0.0541 -0.0055
 1321ERGO    R217563   5.023  18.031   6.930 -0.0579 -0.1061 -0.1769
 1321ERGO    R317564   5.073  17.785   7.035 -0.0403 -0.0676 -0.0922
 1321ERGO    R417565   5.002  17.952   7.266 -0.2228 -0.0304 -0.1679
 1321ERGO    R517566   5.182  17.831   7.244 -0.1694  0.0179 -0.0396
 1321ERGO    C117567   5.036  17.675   7.560 -0.3021  0.0498 -0.0832
 1321ERGO    C217568   4.765  17.605   7.732 -0.2357 -0.2129  0.3716
 1322ERGO   ROH17569   2.503   9.902   6.837  0.0127  0.0114 -0.0455
 1322ERGO    R117570   2.293   9.806   7.000 -0.0033 -0.0173 -0.0829
 1322ERGO    R217571   2.304   9.813   7.276 -0.0264 -0.0745 -0.0820
 1322ERGO    R317572   2.068   9.946   7.251 -0.0220 -0.0645 -0.0725
 1322ERGO    R417573   2.055   9.820   7.516  0.0198  0.0017 -0.0355
 1322ERGO    R517574   1.908   9.802   7.356 -0.0121 -0.0290 -0.0053
 1322ERGO    C117575   1.688   9.948   7.631  0.0509  0.0555  0.0005
 1322ERGO    C217576   1.510  10.105   7.825 -0.0589 -0.0169 -0.2396
 1323ERGO   ROH17577  15.665   2.992   5.957  0.1681  0.2037  0.0824
 1323ERGO    R117578  15.626   2.936   6.232  0.1202  0.0799  0.0517
 1323ERGO    R217579  15.655   2.683   6.339 -0.0537 -0.0002 -0.0834
 1323ERGO    R317580  15.827   2.808   6.507  0.0252 -0.2058 -0.0087
 1323ERGO    R417581  15.628   2.685   6.683 -0.2477  0.0955 -0.0982
 1323ERGO    R517582  15.688   2.894   6.682  0.0411  0.0164 -0.1033
 1323ERGO    C117583  15.774   2.804   7.042 -0.2866 -0.0418 -0.0368
 1323ERGO    C217584  15.815   2.860   7.373 -0.0858  0.0852  0.0554
 1324W        W17585  11.777  10.274   6.081  0.0201  0.1706 -0.0403
 1325W        W17586  15.040   2.700   4.804 -0.1460  0.0451  0.0886
 1326W        W17587  11.198   7.784  13.882 -0.2531  0.2149  0.0440
 1327W        W17588  16.538   2.262   2.753 -0.0510 -0.3070 -0.1747
 1328W        W17589   4.730  14.533   2.424  0.0497  0.0503 -0.0745
 1329W        W17590  15.386  13.123  11.026 -0.3655  0.0093 -0.3431
 1330W        W17591   7.795   1.062  13.631 -0.1684  0.0389  0.1026
 1331W        W17592   2.051   9.428   2.028 -0.2623 -0.1889  0.1059
 1332W        W17593   8.334   7.857   0.873  0.2383  0.0636 -0.2189
 1333W        W17594  17.668   8.800  11.350  0.1518  0.3370 -0.1408
 1334W        W17595  14.236   6.450  12.088 -0.1255 -0.0955  0.0115
 1335W        W17596  17.538  13.310   3.592  0.3219  0.0534 -0.2137
 1336W        W17597   6.684   8.215  15.671  0.0985  0.0378 -0.1491
 1337W        W17598   0.758  13.956   4.488  0.1132  0.0242 -0.4346
 1338W        W17599   9.424  18.178  15.395  0.0558 -0.1521  0.2327
 1339W        W17600  13.687  10.523  11.977  0.1229  0.0238  0.2222
 1340W        W17601  15.847  12.088   0.313  0.0771  0.1377 -0.0999
 1341W        W17602  13.783   0.679   0.196 -0.1395  0.0004 -0.1577
 1342W        W17603   5.704   8.974   0.682  0.1672 -0.0949  0.0682
 1343W        W17604  17.233  15.807  13.537  0.2248 -0.1984  0.2440
 1344W        W17605  11.178   3.874  11.533  0.1804  0.1350  0.3161
 1345W        W17606   6.299   1.625  11.306 -0.2146  0.0777 -0.0841
 1346W        W17607  15.596   3.824  15.154  0.0094 -0.2701 -0.1662
 1347W        W17608  10.293   0.121   4.909 -0.0417  0.1401  0.3108
 1348W        W17609   5.596   7.786  15.299  0.3010  0.0540 -0.0964
 1349W        W17610   1.779  12.434  14.405  0.1089  0.1679  0.4298
 1350W        W17611  12.441   5.442  11.241  0.0954  0.2158 -0.0580
 1351W        W17612  14.091   5.781  12.097 -0.1016  0.2107 -0.1552
 1352W        W17613   6.262   4.302   1.295 -0.0801 -0.1434 -0.0087
 1353W        W17614  10.457   3.205   0.481 -0.2236 -0.0689  0.4114
 1354W        W17615  11.388  12.550   4.356 -0.1248 -0.3331  0.2957
 1355W        W17616  12.272  15.081   0.449  0.1117  0.3582 -0.0319
 1356W        W17617   8.851  13.993  13.500 -0.2113  0.1744  0.1447
 1357W        W17618   6.221   5.147  16.001 -0.3032  0.0549 -0.2361
 1358W        W17619   7.736  17.431   5.035 -0.3311  0.0272  0.2376
 1359W        W17620   3.614   4.343   3.636  0.1283 -0.2395 -0.0225
 1360W        W17621  17.163   0.858   5.977  0.1476  0.0450  0.0980
 1361W        W17622  16.713  15.633  13.742  0.3053 -0.2060 -0.0881
 1362W        W17623   2.812   4.260  13.140 -0.2225  0.0735  0.1360
 1363W        W17624   2.954   7.494   0.091  0.3868 -0.0233  0.0644
 1364W        W17625  14.741   4.252   3.658 -0.1768 -0.2123 -0.1386
 1365W        W17626   0.506   3.236  15.584  0.0298 -0.0235 -0.0276
 1366W        W17627   8.070  11.319  12.184 -0.1952  0.0562  0.2996
 1367W        W17628   0.514  16.062  11.550 -0.4674  0.4145 -0.0648
 1368W        W17629  17.820  16.537  11.521 -0.1080  0.0022 -0.1425
 1369W        W17630  18.104  14.140   4.385  0.0838 -0.1418  0.0059
 1370W        W17631  14.767  10.081  12.331 -0.1979  0.1634 -0.3755
 1371W        W17632   6.471   3.156   2.053  0.1004  0.1812  0.3440
 1372W        W17633  12.136   6.090  14.334  0.2981 -0.0653  0.2722
 1373W        W17634  14.666   2.968  13.344  0.1482  0.2589  0.1723
 1374W        W17635   0.366  14.719   3.881  0.2352 -0.1923 -0.3020
 1375W        W17636  16.488   7.386   0.242 -0.2469 -0.1801 -0.2262
 1376W        W17637   1.297   1.105   4.091  0.2525  0.2688 -0.0231
 1377W        W17638   9.622   9.019  14.065  0.0280  0.1361 -0.0319
 1378W        W17639   3.656   0.414   2.316  0.1568 -0.1406 -0.1545
 1379W        W17640   1.130   6.212   4.312  0.2498 -0.4006  0.0624
 1380W        W17641  17.547  10.758   1.766 -0.1392 -0.0629  0.2678
 1381W        W17642  14.261   0.694   0.382  0.3998  0.3188 -0.0113
 1382W        W17643   8.870  11.040   1.897  0.1866  0.5026 -0.3420
 1383W        W17644  10.074  12.706   4.238  0.2229 -0.0153  0.0809
 1384W        W17645   5.999  11.377   1.691  0.3022 -0.1736  0.2926
 1385W        W17646  11.030  11.160  16.167  0.2338  0.1577 -0.1472
 1386W        W17647   4.278   3.664  15.463  0.1958  0.1473  0.4397
 1387W        W17648  13.856   3.712   3.835  0.1038  0.3110  0.0695
 1388W        W17649   7.998  17.633   3.518  0.0598  0.0043  0.2153
 1389W        W17650   2.916   3.507   0.701 -0.0459 -0.0913  0.2853
 1390W        W17651   2.104  15.000  15.958  0.0722  0.1265  0.2680
 1391W        W17652  11.740   6.146  15.906 -0.0474  0.0699  0.0804
 1392W        W17653  17.189   3.413  15.824 -0.5253  0.1183 -0.0780
 1393W        W17654  10.532  16.944  11.207  0.1180 -0.1263  0.0441
 1394W        W17655   8.583  18.189  13.902 -0.2334  0.1555 -0.0468
 1395W        W17656  11.720   5.228   4.692 -0.0128  0.0110  0.0450
 1396W        W17657   6.144  11.707  16.064 -0.2199  0.3086  0.2102
 1397W        W17658   3.996   2.858   2.209 -0.2040 -0.1070 -0.0187
 1398W        W17659  12.128   7.949  11.670  0.1289  0.0026 -0.1944
 1399W        W17660  16.145  17.213   2.167 -0.0674  0.0525 -0.2109
 1400W        W17661   2.462   5.494   4.195 -0.1695  0.2408 -0.2228
 1401W        W17662   9.306   6.122   1.102  0.2787  0.1970  0.2343
 1402W        W17663  18.290  16.439  14.402  0.1796  0.3893  0.1642
 1403W        W17664  13.959   8.634   2.045  0.1297  0.2827  0.1512
 1404W        W17665  14.710  12.987   4.919 -0.1271  0.2629 -0.0951
 1405W        W17666  16.356  10.224   2.525  0.0415  0.3936 -0.2191
 1406W        W17667  13.564  17.608  12.351  0.0228  0.1997 -0.0901
 1407W        W17668   2.327   7.244  12.246  0.1676 -0.2019 -0.0334
 1408W        W17669   1.539  17.983  13.979 -0.3416 -0.5763  0.3044
 1409W        W17670  11.256  18.459  10.918  0.1409 -0.4523 -0.0374
 1410W        W17671   0.720  10.349   0.794  0.3547 -0.0196  0.1948
 1411W        W17672   2.696  10.244   1.594 -0.3333  0.1967 -0.0763
 1412W        W17673  10.899   1.374   2.065  0.0229 -0.0170 -0.0946
 1413W        W17674   1.074  11.954   5.694  0.0065 -0.0118  0.1950
 1414W        W17675  14.923  17.937   3.206 -0.1837  0.1121  0.0885
 1415W        W17676  10.753   4.740   1.084 -0.3420  0.0358  0.0355
 1416W        W17677   9.532   3.398  11.498  0.2559  0.3438 -0.1407
 1417W        W17678  13.792  17.274  15.103  0.1811  0.0671  0.1603
 1418W        W17679  17.074   0.775   1.317 -0.2014  0.2190  0.1797
 1419W        W17680   9.440  14.434  12.547  0.0976  0.0374 -0.0776
 1420W        W17681   9.095  14.719  11.906  0.2261 -0.1310  0.1106
 1421W        W17682   8.718   9.346   5.559 -0.0509 -0.2022  0.0741
 1422W        W17683  16.698   4.399   3.185  0.2036  0.0437 -0.4398
 1423W        W17684  15.855  13.898   0.544  0.0818  0.2632 -0.2483
 1424W        W17685  16.439  10.384   0.132  0.0418 -0.1180  0.0047
 1425W        W17686   7.191   5.213  14.670  0.0193  0.2658 -0.2983
 1426W        W17687   4.724   4.634  11.103  0.0207 -0.1582  0.1186
 1427W        W17688  10.194  15.685   0.273  0.1364 -0.2357 -0.0142
 1428W        W17689  18.404   1.213   4.573  0.0568 -0.2809 -0.2493
 1429W        W17690  16.945  15.865  12.697 -0.0948  0.2978  0.0463
 1430W        W17691   6.176  13.057   5.219  0.0942  0.1786  0.0719
 1431W        W17692  14.688  17.607  14.240  0.3043 -0.1584 -0.3665
 1432W        W17693   5.176   2.113   4.198  0.2159 -0.0320  0.3344
 1433W        W17694   2.397   8.660  14.159  0.2356  0.0982 -0.1318
 1434W        W17695  15.043   6.620  11.699  0.1134  0.1035 -0.0074
 1435W        W17696   5.848  10.444   1.551  0.0703 -0.1398 -0.0935
 1436W        W17697   4.329   8.943   0.244 -0.1113 -0.0175 -0.2399
 1437W        W17698  12.549   2.645  15.625  0.0166  0.2539  0.0392
 1438W        W17699  12.477  16.607   2.283 -0.0552 -0.0200 -0.0920
 1439W        W17700  15.575   6.228  14.539 -0.1053  0.0139 -0.0388
 1440W        W17701   6.857   4.067  14.681 -0.2206  0.4253  0.0258
 1441W        W17702   0.412   8.747  15.746  0.1125 -0.0023 -0.1557
 1442W        W17703  11.958   1.875   4.476  0.3443  0.0335  0.0119
 1443W        W17704   5.952  14.784  12.367  0.0254 -0.2980 -0.3056
 1444W        W17705  12.739   6.805   3.806  0.0284  0.2288 -0.1061
 1445W        W17706   6.709  13.147   5.218  0.0757  0.1419 -0.2225
 1446W        W17707  13.731  16.607  11.986  0.0656 -0.1127 -0.0239
 1447W        W17708  13.182   0.676  14.649  0.0053  0.2341 -0.0453
 1448W        W17709  15.280   7.468   1.760  0.1965 -0.3480 -0.0199
 1449W        W17710   7.748   9.605   5.105 -0.0329 -0.2049 -0.2692
 1450W        W17711   2.550  13.817   4.977 -0.0395  0.5033  0.2247
 1451W        W17712  15.427   4.816  15.642  0.0475  0.0653  0.1239
 1452W        W17713   1.641   3.262   2.748 -0.0327 -0.1889 -0.0587
 1453W        W17714  13.549   4.723   5.018  0.0717  0.2031 -0.2766
 1454W        W17715  12.482   9.982  14.976  0.2017 -0.0427 -0.0277
 1455W        W17716   1.070   9.540  12.008 -0.0193  0.2094 -0.0946
 1456W        W17717   4.787   0.260  15.741 -0.3130  0.0082  0.0331
 1457W        W17718   7.024  13.046   5.830  0.0052 -0.2882  0.0831
 1458W        W17719  15.598   7.245  12.511  0.1354  0.1229 -0.0925
 1459W        W17720   8.419  11.934   3.181 -0.2578  0.0963  0.1486
 1460W        W17721   8.037   8.640  12.531 -0.1085  0.0626 -0.2626
 1461W        W17722   1.539   6.212  13.385  0.2283 -0.0603 -0.2117
 1462W        W17723   2.819  15.612   3.329 -0.0752  0.1719 -0.1195
 1463W        W17724   6.601  13.390   0.613 -0.2984  0.2157  0.3778
 1464W        W17725   3.677   3.578   0.516 -0.0777  0.1740  0.1152
 1465W        W17726  17.718   5.938  15.740 -0.1928 -0.0779 -0.2923
 1466W        W17727   0.464  11.726  15.542 -0.2391 -0.0516  0.3891
 1467W        W17728   1.337  16.714  16.127 -0.2674 -0.2940  0.0784
 1468W        W17729   9.352   7.642   1.111  0.0876  0.0428 -0.2734
 1469W        W17730  10.216   9.959   1.499 -0.4609 -0.0514 -0.0795
 1470W        W17731   8.579   8.894   2.187 -0.0343  0.1446 -0.1970
 1471W        W17732   4.025  17.206   0.233 -0.0078 -0.0553  0.1027
 1472W        W17733  12.614  17.972  12.456  0.3417 -0.1317  0.0184
 1473W        W17734   9.907  14.254  10.742  0.1709 -0.1417  0.2766
 1474W        W17735   9.788   4.547   0.436  0.1164 -0.1176 -0.0158
 1475W        W17736   9.575   5.120  12.750 -0.2736  0.2167 -0.1448
 1476W        W17737   6.077  11.029  14.297  0.2753 -0.1481  0.0667
 1477W        W17738  17.556  12.347   4.102  0.1513  0.1473 -0.1733
 1478W        W17739   1.766   7.514  12.823 -0.0431  0.1712 -0.0447
 1479W        W17740  16.016   8.799  11.874  0.1248  0.0678  0.1543
 1480W        W17741   2.140  15.191  13.011 -0.0180  0.1005 -0.0009
 1481W        W17742   5.938   7.176  15.332 -0.0357  0.2029  0.0077
 1482W        W17743  13.229  17.064   5.113  0.0853  0.0836 -0.1232
 1483W        W17744   6.957   4.675  13.702 -0.0676 -0.0973 -0.0750
 1484W        W17745   2.428   2.680  12.166  0.2765  0.1155 -0.1544
 1485W        W17746   9.985  10.985  13.957  0.0540 -0.1051  0.2936
 1486W        W17747  10.629  12.306  14.632  0.0892 -0.0884 -0.3752
 1487W        W17748  14.900  17.229   3.533 -0.3942  0.0782 -0.0541
 1488W        W17749  13.389   8.274   3.722 -0.0834 -0.1120  0.1738
 1489W        W17750  12.899  14.031  15.352 -0.0832 -0.0781 -0.0822
 1490W        W17751  14.023   3.892   0.792 -0.1511 -0.2275 -0.0889
 1491W        W17752   2.797   3.305   4.340 -0.0726 -0.2788 -0.1352
 1492W        W17753   3.963   9.332   3.941 -0.0726 -0.3104 -0.1117
 1493W        W17754  12.436   5.986   5.251 -0.0343  0.1746 -0.1516
 1494W        W17755   0.653   9.222   1.815  0.2973  0.0801 -0.0687
 1495W        W17756   6.474  16.483  13.718  0.1256 -0.3325 -0.0052
 1496W        W17757  11.511   8.605   4.809 -0.1771 -0.3612 -0.0240
 1497W        W17758  13.567   1.628   0.705  0.0741  0.1687 -0.0078
 1498W        W17759   3.333  10.935   0.295  0.1708 -0.1487 -0.2167
 1499W        W17760   2.897   3.651  12.294  0.4191  0.3493 -0.3292
 1500W        W17761   6.720  13.194  13.919  0.1525 -0.0329 -0.1010
 1501W        W17762   8.687   2.228   3.351 -0.2687 -0.0855 -0.1132
 1502W        W17763   5.618   8.633   1.089 -0.1964 -0.3898  0.0104
 1503W        W17764  13.586  10.703   3.066 -0.0072  0.2734 -0.0520
 1504W        W17765  15.883  15.903  11.451 -0.0624 -0.2427  0.0240
 1505W        W17766   4.165   4.465   4.429  0.0656  0.0822 -0.1000
 1506W        W17767  18.037   0.847  13.336  0.1496  0.0147 -0.1703
 1507W        W17768  14.933  15.883  13.063 -0.0783 -0.0584 -0.1455
 1508W        W17769  10.274   6.046  15.529 -0.2378  0.1034 -0.1252
 1509W        W17770  17.426   2.209   2.758 -0.1090 -0.0732  0.0009
 1510W        W17771  13.349   7.236   5.002 -0.2782 -0.1159  0.1386
 1511W        W17772   8.944  11.819  11.583 -0.2935  0.0739  0.1769
 1512W        W17773  10.992  10.833   5.196 -0.1391 -0.0532 -0.0328
 1513W        W17774   0.523   3.661   2.403 -0.2342 -0.2629  0.2295
 1514W        W17775  10.934  17.219  11.158 -0.0925  0.0147  0.3370
 1515W        W17776  10.338  11.664   3.137 -0.3213 -0.1100  0.2419
 1516W        W17777   6.687   9.837   1.785  0.2359 -0.1037 -0.1152
 1517W        W17778  12.212   0.947   2.374 -0.0264 -0.1422 -0.1066
 1518W        W17779   5.136   0.762  11.930  0.0826 -0.3503 -0.2332
 1519W        W17780  13.971  11.304   0.817 -0.0451  0.1318  0.0566
 1520W        W17781   1.150  14.978   4.999 -0.3061 -0.1696  0.2417
 1521W        W17782   2.111  12.653   0.924  0.1993 -0.1910 -0.0645
 1522W        W17783  10.245   4.731   0.637  0.2863  0.0645 -0.2108
 1523W        W17784  11.877  10.414  11.697  0.3063 -0.4037 -0.0682
 1524W        W17785   5.751  12.999   1.287  0.0366  0.2231 -0.0176
 1525W        W17786   2.161  11.475   3.619  0.1930 -0.2732 -0.1905
 1526W        W17787   3.298  13.387   2.451 -0.0206  0.0230  0.1475
 1527W        W17788   5.661  12.653  10.282 -0.3272  0.0131  0.1464
 1528W        W17789  12.105  18.380   3.421  0.4110 -0.2253  0.0060
 1529W        W17790  10.333   0.265   2.560 -0.4000 -0.3093 -0.0285
 1530W        W17791   6.574   9.133  15.744 -0.0432 -0.2432  0.0721
 1531W        W17792  17.395   9.490   3.422 -0.2576 -0.1669 -0.0968
 1532W        W17793  12.813   7.724   3.390  0.0695 -0.0477  0.0192
 1533W        W17794   7.654  17.242  14.624  0.1904 -0.1197  0.0759
 1534W        W17795  17.101  14.350  12.726  0.2038  0.1238 -0.0613
 1535W        W17796   5.879   8.069  13.845 -0.1243 -0.2169  0.0435
 1536W        W17797   3.314   8.163  12.649 -0.0030 -0.1656 -0.0640
 1537W        W17798  11.977   0.981  12.952 -0.2735 -0.2304 -0.0847
 1538W        W17799   9.205   7.834  14.316  0.0711 -0.1316 -0.2651
 1539W        W17800  10.401   6.655   2.016 -0.0695  0.1437  0.0092
 1540W        W17801   1.812  10.775   1.698  0.4274 -0.0145 -0.0009
 1541W        W17802   2.333   7.724   4.283 -0.3155 -0.2169 -0.0535
 1542W        W17803  16.689   6.402  10.184  0.1398 -0.0171 -0.0322
 1543W        W17804   4.433  16.332   3.468 -0.0882 -0.0557 -0.1883
 1544W        W17805   3.167   1.391   0.107 -0.3456  0.1080 -0.2657
 1545W        W17806  13.493  15.143  13.083  0.1965  0.0800 -0.0980
 1546W        W17807  17.152  10.262   5.018  0.0937  0.1023  0.2224
 1547W        W17808  17.740  10.156   3.686  0.3343 -0.0925 -0.1275
 1548W        W17809   3.606   9.878  13.473 -0.1099 -0.0355  0.0018
 1549W        W17810   0.458   6.028  14.505 -0.0339 -0.1201  0.0008
 1550W        W17811   7.793  12.616  13.447 -0.2839 -0.1726  0.1982
 1551W        W17812  15.949  14.494   4.328 -0.1654 -0.0264  0.2198
 1552W        W17813   5.868  13.975   5.983 -0.0907 -0.0222 -0.0049
 1553W        W17814   6.799   9.010  13.450  0.0146 -0.1880  0.1460
 1554W        W17815   1.422   3.217   3.815 -0.0209  0.3776  0.2011
 1555W        W17816  14.626   0.033  12.168 -0.1631 -0.1704 -0.0272
 1556W        W17817   4.992  11.107  13.379 -0.0551  0.0771 -0.1004
 1557W        W17818   7.518  13.587  15.529  0.0199  0.1918 -0.2734
 1558W        W17819  17.669  17.445   2.901  0.1900 -0.0075 -0.1985
 1559W        W17820   9.433   3.549   4.843  0.0946 -0.1122 -0.1490
 1560W        W17821  12.402  16.476   0.534 -0.2393  0.0270  0.2239
 1561W        W17822  16.637  16.688   0.895  0.0938 -0.0289 -0.0975
 1562W        W17823  17.589   3.310  16.170 -0.1435  0.1078 -0.1012
 1563W        W17824  13.909   8.132   1.876  0.0739  0.0040  0.0490
 1564W        W17825  17.881   7.863   2.125 -0.1640 -0.1862 -0.1530
 1565W        W17826   8.951  17.630  15.402 -0.3308  0.0807 -0.2353
 1566W        W17827  12.900   2.235  14.479 -0.1233 -0.1704  0.0665
 1567W        W17828  18.408  17.238  13.424  0.0179 -0.0975 -0.0376
 1568W        W17829   1.391   1.442  12.196  0.0140 -0.3677 -0.0056
 1569W        W17830  15.154   5.213  13.889 -0.4088 -0.0221 -0.0628
 1570W        W17831  14.728   0.371  14.147  0.0836 -0.0822  0.0970
 1571W        W17832  11.500   6.199  13.231 -0.1943 -0.3664  0.0003
 1572W        W17833  13.169  12.064   3.014 -0.0271  0.0373 -0.0421
 1573W        W17834   3.567   7.098   5.544  0.0868 -0.0016  0.0305
 1574W        W17835   0.190   8.327  14.724  0.0352 -0.0620 -0.3198
 1575W        W17836  16.146  17.706   2.811 -0.0515  0.2450 -0.0000
 1576W        W17837  10.056   5.269   1.381 -0.0614 -0.2667  0.2229
 1577W        W17838  16.757  15.379  14.990 -0.1748 -0.0994 -0.2537
 1578W        W17839  12.592  13.584  11.737  0.1333  0.2064  0.2652
 1579W        W17840  15.988   7.845   1.892 -0.3397 -0.0116  0.2091
 1580W        W17841  15.202  10.527   2.786  0.0062  0.2808  0.0982
 1581W        W17842  16.805   5.713   5.328  0.0947 -0.3691  0.0218
 1582W        W17843  14.455   7.131   4.849  0.0497 -0.2026  0.3226
 1583W        W17844   9.267   2.588   0.124  0.1117  0.2283 -0.0329
 1584W        W17845  14.017  18.310  15.946 -0.1260 -0.0529  0.1564
 1585W        W17846  18.404   7.822  14.885  0.4053 -0.4471  0.2405
 1586W        W17847   1.636   2.876   4.105  0.3365  0.1993 -0.0476
 1587W        W17848  10.876   8.686  15.517  0.4033 -0.3333 -0.1310
 1588W        W17849  17.604  16.940  11.124  0.0704 -0.1046 -0.1721
 1589W        W17850   9.991   3.180   0.603 -0.0636  0.1945  0.1925
 1590W        W17851  18.224   1.989  13.859  0.1659  0.0363 -0.1333
 1591W        W17852  17.294  14.432  13.598  0.4111  0.2480 -0.0176
 1592W        W17853   0.348   7.243  12.191  0.0486  0.0826 -0.0142
 1593W        W17854   3.288   4.364  12.875  0.1025 -0.2569  0.1625
 1594W        W17855   7.588   7.743   4.073 -0.0171 -0.0875 -0.0817
 1595W        W17856   5.922  11.809   1.966  0.0650  0.1202 -0.1604
 1596W        W17857   0.340   8.074  15.156 -0.3519  0.1065  0.4785
 1597W        W17858   2.767   1.803   2.870 -0.0615  0.0428  0.3238
 1598W        W17859   8.258   2.369  16.184  0.1456 -0.1353  0.2485
 1599W        W17860   9.328   5.755  14.836  0.0634  0.0789  0.0922
 1600W        W17861   8.826  13.306  11.374  0.2250  0.0470 -0.1320
 1601W        W17862  16.009   0.413   2.297 -0.1721 -0.1682 -0.0789
 1602W        W17863  18.141  11.038   0.504  0.2170  0.0116  0.3752
 1603W        W17864   6.708  14.209   4.408  0.0110  0.1813  0.3694
 1604W        W17865  13.819   7.558   4.960  0.0870  0.4138 -0.1104
 1605W        W17866  16.050   8.542   1.334 -0.1172  0.1029  0.3200
 1606W        W17867  11.290   3.739   2.946 -0.0419 -0.1862 -0.4552
 1607W        W17868  12.380  11.259   5.281  0.1708  0.2547 -0.0979
 1608W        W17869  10.751  13.571  13.381  0.0724 -0.0555  0.0054
 1609W        W17870   4.949   0.764  15.822 -0.0372  0.0755  0.2087
 1610W        W17871   9.175  14.813  12.350  0.2946 -0.1249  0.0426
 1611W        W17872   7.367  16.032  13.123  0.1877 -0.0799  0.0493
 1612W        W17873  15.847   4.084   4.458  0.0165 -0.0604  0.2999
 1613W        W17874   2.940   7.949  12.236  0.1686  0.2705 -0.1031
 1614W        W17875  11.207   6.540  13.046 -0.0972  0.0484 -0.1188
 1615W        W17876   4.061   0.859  14.220 -0.2728 -0.0086  0.3819
 1616W        W17877  15.426  18.295  14.365 -0.0619  0.1471 -0.0153
 1617W        W17878  18.382  15.672  11.258  0.0120 -0.1023 -0.2788
 1618W        W17879  14.887  14.816  14.444 -0.3225 -0.0022 -0.1894
 1619W        W17880  15.830   1.187  12.245  0.0671 -0.0747  0.0863
 1620W        W17881   7.030  13.719   4.462 -0.0668  0.2285 -0.1390
 1621W        W17882  18.448  10.694   0.747  0.2699  0.1299 -0.0892
 1622W        W17883   2.629   2.353   0.752  0.0931 -0.0891  0.0380
 1623W        W17884   3.039   8.613  14.999 -0.2057  0.0863  0.4389
 1624W        W17885   7.570  10.103   2.937 -0.0124 -0.1315  0.0981
 1625W        W17886   4.254   5.654   2.009  0.0864 -0.0046  0.0709
 1626W        W17887   5.787  15.539   2.156 -0.1198 -0.2182 -0.2600
 1627W        W17888   2.530  12.154   3.609 -0.0214  0.3021  0.2181
 1628W        W17889  14.847   7.502   4.702 -0.5357 -0.3283  0.1140
 1629W        W17890   5.426   5.887  12.352 -0.2403  0.0530  0.4147
 1630W        W17891  17.027   3.757   0.482  0.0770  0.0549  0.0139
 1631W        W17892  16.440   6.445  13.562 -0.0487 -0.2447  0.1637
 1632W        W17893   8.363   7.904  14.317 -0.1916 -0.1758 -0.0247
 1633W        W17894   6.621  12.002  14.231 -0.2394  0.0031 -0.0959
 1634W        W17895   7.433  15.143   0.469 -0.1412 -0.1758 -0.0827
 1635W        W17896  11.439  14.653   1.826 -0.0294  0.0275  0.1089
 1636W        W17897   6.342  11.786   2.598  0.0741 -0.0758 -0.1207
 1637W        W17898  10.743   6.779   3.906 -0.3212  0.0540  0.2073
 1638W        W17899   3.102   5.517  14.403  0.1896  0.1676  0.0988
 1639W        W17900   0.035  13.282  14.731 -0.2681  0.2962  0.0487
 1640W        W17901   1.576  14.863   3.332 -0.1931  0.0239  0.0367
 1641W        W17902   5.176  11.911   4.850 -0.0482 -0.1575  0.0042
 1642W        W17903   6.079  12.838   3.351 -0.0487  0.1919  0.2267
 1643W        W17904   0.569   6.458   6.147 -0.1455  0.3716 -0.0753
 1644W        W17905   6.276   1.750   0.958 -0.0896 -0.0253  0.1424
 1645W        W17906   2.477   4.252   1.838 -0.1639  0.1667 -0.0938
 1646W        W17907   7.790   4.562   4.293  0.4332 -0.1847  0.0211
 1647W        W17908   3.147   4.259  14.431 -0.1036 -0.0539  0.2126
 1648W        W17909   4.162  10.633  15.286 -0.0625  0.0778  0.0769
 1649W        W17910   7.106  15.361  13.042 -0.2404  0.3668  0.2207
 1650W        W17911  17.999  10.032  12.653  0.1231  0.1040  0.1347
 1651W        W17912   1.986   7.283   1.593 -0.2877 -0.4423 -0.0555
 1652W        W17913  14.706   0.332   0.279  0.0769 -0.0212 -0.0801
 1653W        W17914  13.012   0.381  10.663  0.2765 -0.0714 -0.0273
 1654W        W17915  11.104  11.718   1.720  0.5017 -0.0229 -0.2575
 1655W        W17916  10.303  17.137   5.102  0.2605  0.1463  0.0650
 1656W        W17917   8.199   7.137  14.673 -0.2123 -0.1260  0.0144
 1657W        W17918   9.009   8.313   3.673 -0.0322 -0.0219 -0.2565
 1658W        W17919   2.380  17.634   5.501 -0.2148 -0.1190  0.0502
 1659W        W17920   7.823   2.557  13.929  0.1434 -0.0414  0.1265
 1660W        W17921   3.505   6.689  13.819  0.0718 -0.2118  0.1062
 1661W        W17922  18.002  18.019   5.584  0.1132 -0.2518 -0.5366
 1662W        W17923  17.933   7.700  15.684 -0.2531  0.0945  0.0543
 1663W        W17924   0.131   1.218   3.183 -0.0550 -0.0390 -0.2956
 1664W        W17925  10.151   4.651   0.089 -0.1489 -0.0763  0.1478
 1665W        W17926   4.653   9.997   1.115  0.1362  0.1355  0.1798
 1666W        W17927  11.763  18.041   0.060  0.1165  0.2948 -0.0513
 1667W        W17928   4.860   9.037  16.070  0.1525  0.0634  0.1463
 1668W        W17929  14.193  15.790  13.461 -0.0638  0.1091  0.0332
 1669W        W17930   3.280  14.505   2.990 -0.0428 -0.3546  0.0201
 1670W        W17931  11.509   0.819  10.964  0.1102  0.3151 -0.1226
 1671W        W17932   6.927   8.669   0.490 -0.0608  0.0810  0.0298
 1672W        W17933  10.243  10.069   1.019  0.0058 -0.1741  0.0401
 1673W        W17934  14.457   4.371   5.262  0.1680  0.0298 -0.1457
 1674W        W17935   2.659   3.316  13.510  0.1437  0.1958  0.2112
 1675W        W17936   6.914   4.936   1.453 -0.1267  0.1733  0.1506
 1676W        W17937  17.215  10.322  13.080  0.1139  0.3669  0.2515
 1677W        W17938  10.672   1.992   1.414 -0.0376  0.2458 -0.2215
 1678W        W17939  12.716  17.913   3.859  0.2507  0.0799  0.1268
 1679W        W17940   7.641   0.616  11.068  0.0403 -0.0217  0.0984
 1680W        W17941   3.126   9.751  12.683  0.2531 -0.0678 -0.0177
 1681W        W17942   9.399   1.907   1.993 -0.1024  0.1733  0.0682
 1682W        W17943  11.083  10.774  12.121  0.0913 -0.2740  0.0598
 1683W        W17944   6.202  16.654   3.297 -0.0432  0.1566 -0.0599
 1684W        W17945  11.866  14.277   0.623  0.3048 -0.2178 -0.0532
 1685W        W17946  12.973  11.205   1.232  0.0429  0.3001  0.0339
 1686W        W17947  10.603   5.390  14.075  0.1090  0.1016 -0.0612
 1687W        W17948   2.281  16.960   2.759 -0.3372  0.1252  0.3011
 1688W        W17949  18.481  13.024  11.490  0.3065 -0.2879  0.0172
 1689W        W17950  17.379  15.667   4.649  0.0696  0.2029  0.0440
 1690W        W17951   1.650   7.264  15.537  0.2514  0.0224  0.0125
 1691W        W17952   0.408   3.729  11.815  0.0323 -0.0906  0.0153
 1692W        W17953  13.870  10.212  15.320 -0.1172 -0.0912 -0.0672
 1693W        W17954   8.684   7.521   1.609  0.0168  0.3809 -0.0269
 1694W        W17955  15.542   0.672   4.259  0.1597  0.0461  0.0736
 1695W        W17956  11.080   6.763  15.929 -0.1305 -0.2703  0.0236
 1696W        W17957  17.482  11.919   3.939 -0.4440  0.1097  0.0776
 1697W        W17958  16.660   7.011   3.289  0.0048  0.1872 -0.3957
 1698W        W17959   9.960  17.241  11.170 -0.3195  0.0051  0.1481
 1699W        W17960   1.292   4.309   0.187  0.3030  0.0109 -0.0021
 1700W        W17961  16.829  11.413  13.964 -0.0291  0.0945  0.3468
 1701W        W17962  13.113  11.094  10.429  0.1263 -0.2068 -0.2340
 1702W        W17963   8.182  17.531  14.359 -0.1219 -0.1346  0.2056
 1703W        W17964  18.366  13.122   0.789  0.0272 -0.0293 -0.1841
 1704W        W17965  13.222   5.164   1.747 -0.2098  0.0157 -0.2812
 1705W        W17966  14.170  17.029   0.350 -0.2124 -0.0827  0.1449
 1706W        W17967   0.736   6.789  13.066  0.2978 -0.4222 -0.0352
 1707W        W17968   7.215  12.395  16.020  0.3893  0.0840  0.2326
 1708W        W17969   3.388   4.833   5.439 -0.2259  0.1308  0.2585
 1709W        W17970  15.381   9.920  11.498 -0.1506 -0.1738  0.0811
 1710W        W17971   5.959  12.316   4.283 -0.2105 -0.3509  0.3168
 1711W        W17972  13.210  12.253  13.677 -0.1904  0.0993 -0.1964
 1712W        W17973  15.292   4.351   1.047 -0.1002  0.3843  0.0650
 1713W        W17974  12.346   7.507   1.047 -0.1992  0.1255  0.2563
 1714W        W17975  13.863   0.783  13.180  0.3030  0.0048 -0.1763
 1715W        W17976  10.448   0.885  12.941 -0.1068  0.1119 -0.3427
 1716W        W17977   0.260   9.709  13.642 -0.0930 -0.0036  0.3003
 1717W        W17978  10.747   3.572   1.387 -0.0835  0.2059 -0.2175
 1718W        W17979  16.729   7.260  14.102 -0.1767  0.0921 -0.1700
 1719W        W17980   1.811  14.520  11.884 -0.0843 -0.1702  0.0988
 1720W        W17981  15.620   1.596  14.369  0.3776 -0.2214  0.1663
 1721W        W17982   8.422   8.413   1.953  0.1563  0.0249 -0.0463
 1722W        W17983  17.675   5.512  15.505 -0.3442  0.2282  0.0999
 1723W        W17984   2.643  10.848  13.325 -0.2505 -0.2648  0.0048
 1724W        W17985   5.019  14.388  14.715  0.4748 -0.1634 -0.3114
 1725W        W17986   1.566   4.139   3.310  0.1955  0.0628 -0.2069
 1726W        W17987   2.782   3.497  15.630 -0.1697  0.2965  0.2050
 1727W        W17988  15.397   4.392   2.105  0.3145 -0.1452 -0.3837
 1728W        W17989   2.439  10.579   1.310 -0.0272  0.0829 -0.0409
 1729W        W17990  18.282   8.637   4.863  0.1355 -0.0251 -0.2283
 1730W        W17991   4.867   6.117   0.139 -0.1567 -0.2039 -0.0014
 1731W        W17992  17.019  12.818   1.970 -0.1757 -0.4546 -0.0168
 1732W        W17993  13.150   0.395  11.858  0.0572 -0.4225  0.0034
 1733W        W17994  16.056   8.609   1.887  0.0345  0.0517 -0.0308
 1734W        W17995  11.737  16.159  11.108 -0.2437 -0.1054 -0.3063
 1735W        W17996   1.240   0.370  15.174  0.0895 -0.3225  0.0354
 1736W        W17997  16.161   9.066   1.240 -0.1882 -0.1811 -0.0153
 1737W        W17998   3.492   2.126  13.397 -0.0952  0.1093  0.0632
 1738W        W17999  14.842  13.158   5.436  0.1094 -0.1337  0.2031
 1739W        W18000   2.982   5.357  15.492  0.0982  0.3614 -0.4074
 1740W        W18001  13.914   4.108   1.513  0.5174  0.1473 -0.3364
 1741W        W18002   5.075   7.505  13.296 -0.1561 -0.1885  0.3154
 1742W        W18003   7.540   6.855   4.469  0.1343 -0.0146  0.1084
 1743W        W18004   4.309   4.704  11.904 -0.1857  0.1831  0.2793
 1744W        W18005   6.475  16.768  13.274  0.1047  0.1463  0.4151
 1745W        W18006  12.833  10.195  11.908 -0.0143  0.3083  0.2975
 1746W        W18007  18.208   3.094  13.205 -0.0000  0.0654  0.1696
 1747W        W18008  13.271  11.868  14.449 -0.2183 -0.1007  0.3483
 1748W        W18009  14.699   3.673   4.546 -0.1208  0.0005  0.1370
 1749W        W18010  18.383  13.935   1.850  0.0263  0.0579 -0.1201
 1750W        W18011   0.792  15.541  11.054  0.1015 -0.0553 -0.0194
 1751W        W18012  17.579  10.732   4.482 -0.0732 -0.0720 -0.0427
 1752W        W18013  12.017  16.682   1.582 -0.1124  0.1480 -0.1782
 1753W        W18014   1.323   5.039  13.817  0.0161 -0.1839 -0.4728
 1754W        W18015   6.406   1.111   4.655 -0.0860  0.0822 -0.4840
 1755W        W18016   9.844   1.793   1.717  0.1038  0.0467 -0.0796
 1756W        W18017   0.196  12.628   2.732 -0.1934  0.0433 -0.1089
 1757W        W18018   1.445  15.182  10.719 -0.0676  0.2232  0.1347
 1758W        W18019  18.412  12.255   2.977 -0.0148 -0.3077 -0.1526
 1759W        W18020   2.885   8.351  12.745 -0.1240 -0.1819 -0.0436
 1760W        W18021  14.318   2.026  15.108  0.0419 -0.1157 -0.0844
 1761W        W18022   1.044   7.725   1.442  0.2415 -0.2033 -0.3136
 1762W        W18023  14.052  11.013  12.588 -0.1866 -0.2488 -0.1393
 1763W        W18024  16.353   9.617  13.902 -0.1310 -0.1257 -0.1158
 1764W        W18025  14.905  14.198   4.708  0.0323  0.3702 -0.3863
 1765W        W18026   7.314  17.314  13.374  0.0225  0.0005 -0.3334
 1766W        W18027  16.009  10.236   1.410  0.3701  0.0581 -0.1803
 1767W        W18028   9.748  16.455   3.954  0.1803 -0.3302  0.0451
 1768W        W18029   7.939   7.473   3.440  0.1602 -0.0690 -0.0296
 1769W        W18030   7.991  10.502  12.288 -0.0179  0.0774  0.0841
 1770W        W18031   2.913   2.957   1.392  0.0082  0.4958 -0.1522
 1771W        W18032   2.440   4.233  12.584 -0.1312 -0.2851  0.0395
 1772W        W18033   5.787   6.456   3.846  0.1955 -0.2909  0.0824
 1773W        W18034   4.952  12.282   6.106  0.1877  0.2182  0.2703
 1774W        W18035  17.995  14.080  12.229  0.0842  0.0584 -0.0093
 1775W        W18036   4.326   6.243   4.633  0.1195  0.0683  0.2572
 1776W        W18037  14.146  12.076   3.589  0.1207 -0.3154  0.1814
 1777W        W18038   1.041  13.990   1.888  0.1221  0.0691 -0.1886
 1778W        W18039  12.124   9.099   4.955  0.1260 -0.0787  0.0992
 1779W        W18040  14.476  11.960  10.904  0.1022  0.3462  0.0890
 1780W        W18041   7.203   4.001  15.563  0.2880  0.3028 -0.2847
 1781W        W18042  17.613  18.067   2.519 -0.3362  0.2118  0.4014
 1782W        W18043   4.743   0.279  14.354 -0.1801 -0.2555 -0.1651
 1783W        W18044   0.562   6.950   1.177  0.1171  0.2729  0.1093
 1784W        W18045   2.084   4.693   0.759  0.0865 -0.1124 -0.0556
 1785W        W18046   7.547  18.413   0.351 -0.1954  0.3612  0.0740
 1786W        W18047   2.268  15.635  13.382 -0.1378  0.1113  0.0643
 1787W        W18048   5.907   7.462   2.353 -0.2003 -0.2168 -0.1435
 1788W        W18049  12.620   6.343   3.930  0.0241 -0.1276 -0.4203
 1789W        W18050   8.377   8.013  15.197  0.3400 -0.0939 -0.0618
 1790W        W18051   1.238  11.893   4.267 -0.1165 -0.3191 -0.0361
 1791W        W18052   9.663   4.160  13.683 -0.1076 -0.2233 -0.1198
 1792W        W18053   8.029  10.591   3.860  0.3239 -0.1900  0.2618
 1793W        W18054   4.426   9.999   5.337 -0.0467  0.3796 -0.1128
 1794W        W18055   1.120   8.195   2.566 -0.0139 -0.3218 -0.3803
 1795W        W18056  17.764   2.039  11.314 -0.0833  0.2007  0.0171
 1796W        W18057  10.358  13.416   0.676 -0.0711  0.2589  0.1544
 1797W        W18058   4.519  16.857   4.437  0.1190  0.4733 -0.2573
 1798W        W18059   4.929   8.612   0.085  0.2883 -0.0972  0.1672
 1799W        W18060   9.152   3.415  12.533 -0.1614  0.0575 -0.0134
 1800W        W18061  12.639  16.409   1.138 -0.0571  0.0033 -0.3792
 1801W        W18062  11.863   9.662  14.247 -0.3212 -0.1902  0.0578
 1802W        W18063  15.888  15.497  11.751  0.4019  0.0638 -0.0235
 1803W        W18064   8.815  18.156  13.065 -0.1653  0.3431  0.2496
 1804W        W18065  16.759   4.538   0.816 -0.0845  0.1557 -0.0736
 1805W        W18066  13.853  10.569   5.709  0.1793 -0.0120  0.1521
 1806W        W18067   2.496  17.209  14.543 -0.3074 -0.1391 -0.0010
 1807W        W18068  10.921  12.503  12.416 -0.1643  0.0153  0.0245
 1808W        W18069   1.825  17.787  12.046  0.0634 -0.1791  0.1941
 1809W        W18070  12.282  14.130   4.623 -0.2449  0.2247 -0.1424
 1810W        W18071  15.910   8.757  14.916 -0.3523 -0.1313 -0.1095
 1811W        W18072   2.802   8.537  15.461 -0.1797  0.1660 -0.3407
 1812W        W18073  13.734   1.223   3.258  0.1267  0.0537 -0.1067
 1813W        W18074  12.013  10.476  12.180  0.0918 -0.0310  0.3361
 1814W        W18075   2.498   4.306   4.254 -0.0175 -0.0418  0.0727
 1815W        W18076   3.722   9.490   3.053  0.0341 -0.0375  0.2845
 1816W        W18077  16.657   7.552   3.316 -0.3718 -0.0368  0.1019
 1817W        W18078  10.694   5.711  15.531 -0.0697  0.2265 -0.2033
 1818W        W18079   6.540   6.751  15.356 -0.4304  0.3904  0.3122
 1819W        W18080  12.477   1.021  11.219  0.2840  0.1230 -0.0837
 1820W        W18081  12.556   1.170  13.364  0.0372  0.0796 -0.2174
 1821W        W18082   8.898   7.867   0.769  0.3145 -0.3664 -0.2206
 1822W        W18083   5.101  17.608   0.919  0.0890 -0.0253 -0.0870
 1823W        W18084  16.077  12.910   4.015 -0.0580 -0.0270 -0.4053
 1824W        W18085  18.069   2.898  15.542  0.0412  0.1169  0.2167
 1825W        W18086  12.214  17.097  12.843 -0.1489  0.0926 -0.0257
 1826W        W18087   7.892   4.737   5.190 -0.1617 -0.1204 -0.0885
 1827W        W18088  15.802   2.471   3.150  0.1704 -0.1559  0.0624
 1828W        W18089   8.631   8.217   2.885  0.0017 -0.1268 -0.0068
 1829W        W18090   4.667   7.519   4.885 -0.3959  0.3673  0.0659
 1830W        W18091   6.613   5.125   5.202 -0.0454 -0.3402  0.1385
 1831W        W18092   7.355  10.059   3.411  0.0949  0.0504 -0.1802
 1832W        W18093   7.008  17.038   0.613 -0.0859 -0.1039 -0.0926
 1833W        W18094  17.332   0.803   4.025  0.1142  0.0569  0.1676
 1834W        W18095  18.017  12.101   0.512 -0.2814  0.1006 -0.1848
 1835W        W18096   9.195  12.452   4.224 -0.0559  0.2998  0.0778
 1836W        W18097   9.528   0.878  13.471  0.1265  0.1803  0.1945
 1837W        W18098   0.749  17.165  11.235 -0.1289 -0.4054  0.0875
 1838W        W18099   2.160  16.060   1.210  0.2885  0.1928 -0.0252
 1839W        W18100   1.963  12.537  13.540  0.1960 -0.1305  0.1292
 1840W        W18101   2.262  16.030   3.908 -0.0463  0.3131 -0.1988
 1841W        W18102   5.954   5.650  15.290  0.2043  0.0866  0.0905
 1842W        W18103   8.241  18.394  11.961  0.2076  0.0944  0.0630
 1843W        W18104   5.567  11.202   4.667  0.0568 -0.0019  0.5411
 1844W        W18105   1.289  16.268  12.428 -0.1743  0.0819  0.2572
 1845W        W18106  11.296  10.435   2.099  0.1001 -0.2398  0.3990
 1846W        W18107  11.291   0.035  13.662  0.2215 -0.0317  0.0928
 1847W        W18108   4.823  10.013   4.782  0.0143 -0.2796 -0.1458
 1848W        W18109  14.026   9.457  14.268  0.1989 -0.2082 -0.1701
 1849W        W18110  15.023  15.037   1.695 -0.2103 -0.0823  0.0076
 1850W        W18111  17.918   1.336   5.016  0.2274 -0.2166 -0.4081
 1851W        W18112   6.171   2.565   3.173  0.1389 -0.2456  0.0286
 1852W        W18113   7.588   5.848   0.255 -0.3774 -0.0676  0.3499
 1853W        W18114   2.530  11.787   6.006 -0.1475  0.0064 -0.0824
 1854W        W18115   3.013  18.290   4.460 -0.0435 -0.0244 -0.0411
 1855W        W18116   5.369  17.155   4.449  0.2050 -0.0439  0.2430
 1856W        W18117  14.131   3.736   1.837  0.0032  0.0304  0.3663
 1857W        W18118   8.616   1.568  11.401 -0.1225  0.2320 -0.0104
 1858W        W18119  15.551  10.448   4.888 -0.0518  0.0552  0.0639
 1859W        W18120  16.941  16.166   4.214  0.0555  0.1152  0.2526
 1860W        W18121   1.991   7.087  11.825  0.2210 -0.1158  0.1468
 1861W        W18122  17.067   9.344  15.894  0.5294 -0.2371  0.1676
 1862W        W18123   4.965   4.099   2.073  0.1385 -0.2512  0.3641
 1863W        W18124   1.037  11.138  12.449 -0.1063  0.2021  0.1088
 1864W        W18125   6.985  10.914  15.284  0.0015 -0.0921 -0.0331
 1865W        W18126   4.649   1.974  14.734 -0.1654  0.1381  0.0216
 1866W        W18127  13.781  14.553   2.740  0.0202 -0.3925  0.1115
 1867W        W18128   3.147   5.286   1.987  0.2410 -0.2178 -0.1080
 1868W        W18129  11.716   7.025  15.766 -0.3127 -0.0624  0.0150
 1869W        W18130  14.959   3.777  15.301  0.1382 -0.0260 -0.0438
 1870W        W18131  17.175  13.616   1.439 -0.0716  0.1424  0.2077
 1871W        W18132  13.514  13.131   3.985 -0.4122  0.2421  0.1224
 1872W        W18133  12.137  12.626   0.174  0.2176  0.1820  0.4115
 1873W        W18134  13.997   4.544   5.121  0.2642 -0.3737 -0.0043
 1874W        W18135  14.919   3.594   5.026  0.6262 -0.0226 -0.3622
 1875W        W18136   5.916  11.712   4.908  0.0208  0.0006  0.1422
 1876W        W18137  17.926   0.328  13.786 -0.1327 -0.1463  0.1134
 1877W        W18138  12.320  12.237  14.509  0.2613 -0.2758  0.1536
 1878W        W18139   9.133  18.451  12.137 -0.1547 -0.1185 -0.0871
 1879W        W18140  13.372  17.165  14.837  0.0568 -0.0555 -0.1390
 1880W        W18141   7.681   8.061  13.459 -0.2220  0.2226  0.1639
 1881W        W18142   8.522  12.388   0.361 -0.1955 -0.1095 -0.0726
 1882W        W18143   0.166   3.623  11.363  0.0468 -0.0669  0.0985
 1883W        W18144   4.143   9.376  12.003  0.1459 -0.0457  0.0731
 1884W        W18145   2.530  10.597  16.173 -0.2015 -0.2408 -0.0467
 1885W        W18146  17.843   1.535  15.013 -0.0410 -0.0706 -0.0433
 1886W        W18147  14.975   0.178   0.762  0.0813 -0.1968 -0.0791
 1887W        W18148  10.975   2.193   2.571  0.1058 -0.1237 -0.2356
 1888W        W18149   6.591   2.893   1.286 -0.1272  0.2208  0.1216
 1889W        W18150   5.427  11.656   2.097  0.1746  0.1753  0.3726
 1890W        W18151  10.359  15.685   1.445  0.2206 -0.0585 -0.2744
 1891W        W18152  14.856   7.376  12.105  0.1516  0.0018 -0.0147
 1892W        W18153  18.179   9.812   1.926  0.4846  0.1890  0.0981
 1893W        W18154   7.012   4.443   2.177  0.1188  0.0803  0.2040
 1894W        W18155   4.086   1.197  12.261 -0.0356 -0.0174  0.0984
 1895W        W18156  15.519   3.104  14.959 -0.0162 -0.2464  0.0927
 1896W        W18157  15.493  11.607  12.165  0.1258  0.1291 -0.0662
 1897W        W18158   7.191   1.938  14.218  0.1182  0.1180 -0.0331
 1898W        W18159  13.439  16.875  10.068  0.1581  0.1163 -0.1042
 1899W        W18160   7.160  18.333   0.929  0.1943 -0.0139 -0.0312
 1900W        W18161   7.633  10.994   4.665  0.2126  0.0440  0.0387
 1901W        W18162   3.459  14.849  14.664  0.0532  0.2564  0.0651
 1902W        W18163  15.315  10.441   4.394  0.2789 -0.0885  0.1431
 1903W        W18164   3.396  15.232  13.123  0.1003 -0.2230  0.0559
 1904W        W18165   4.199   8.936  13.476 -0.1941 -0.0296 -0.2292
 1905W        W18166   4.866  11.676  14.617  0.2972 -0.1840  0.2330
 1906W        W18167  18.136  11.779  14.258  0.2592 -0.5536 -0.3777
 1907W        W18168   4.045  17.654  11.589  0.2604 -0.0274 -0.0090
 1908W        W18169   7.503   0.451   2.716  0.0836 -0.1962  0.0143
 1909W        W18170  11.468  16.674   2.566  0.1615 -0.0416 -0.0330
 1910W        W18171   2.239  17.347  15.388  0.3041 -0.0404 -0.0079
 1911W        W18172   2.984   7.455   2.481 -0.1682 -0.0865  0.1382
 1912W        W18173   5.329   0.396   6.551 -0.1355  0.0129  0.0157
 1913W        W18174  15.318  18.011   2.196 -0.0421 -0.1815 -0.0243
 1914W        W18175  13.476   2.201  11.724  0.0594 -0.0627 -0.0156
 1915W        W18176  16.720  17.549  14.101 -0.2175  0.0163  0.2940
 1916W        W18177  17.698  17.458  13.797  0.3437 -0.0040 -0.0744
 1917W        W18178  16.242  17.876   2.356 -0.1820  0.2982 -0.0456
 1918W        W18179   7.350  17.505  14.370 -0.0595  0.3123 -0.0662
 1919W        W18180  17.987  14.409  11.800 -0.0258 -0.1698 -0.0064
 1920W        W18181   4.630   6.636  13.330 -0.3502  0.2876  0.1247
 1921W        W18182   8.671   9.006   3.373  0.2563  0.0534  0.1227
 1922W        W18183   5.436   9.043  13.612 -0.2228 -0.0632 -0.0964
 1923W        W18184   5.413   9.812   0.378  0.1347  0.1065 -0.1203
 1924W        W18185   1.497  11.005   4.922 -0.1568 -0.0721 -0.0957
 1925W        W18186   2.036  17.144   4.492 -0.0713  0.1125  0.0930
 1926W        W18187  18.324   3.819   4.855 -0.2242 -0.1268 -0.2306
 1927W        W18188   9.943   9.383  13.285 -0.0118 -0.2363 -0.1932
 1928W        W18189  18.232  15.388  11.661 -0.3246  0.0916  0.2828
 1929W        W18190  13.485   9.906  11.256 -0.2273 -0.0266 -0.3637
 1930W        W18191   3.694  11.164   1.439  0.0855 -0.1032 -0.0228
 1931W        W18192  13.335   6.587  13.078  0.1478 -0.2961  0.0829
 1932W        W18193   8.118   4.300   5.481 -0.1802 -0.2338  0.3388
 1933W        W18194  18.268   6.130  11.304  0.0447  0.0600  0.0689
 1934W        W18195  18.157   8.266   2.401  0.1396 -0.0375 -0.3550
 1935W        W18196  14.386   1.253  11.393 -0.0517 -0.0501 -0.1666
 1936W        W18197  10.844   5.046  11.748 -0.0758  0.1199  0.1033
 1937W        W18198   0.285  18.058   3.337  0.3147  0.1623  0.1621
 1938W        W18199   3.923  12.461  12.600  0.1195  0.1285  0.1179
 1939W        W18200  15.889   1.948  15.672 -0.1849  0.2772 -0.0198
 1940W        W18201   4.004  12.154  12.151 -0.1961 -0.1168  0.1572
 1941W        W18202   9.320  12.879  15.005  0.1353 -0.1774 -0.0004
 1942W        W18203  14.086  14.755   1.217  0.1568  0.2707 -0.1244
 1943W        W18204   0.784  13.151   0.585  0.0248  0.0733 -0.1976
 1944W        W18205   3.243   7.530  13.039 -0.2044 -0.1318 -0.0437
 1945W        W18206  16.608   9.362  12.328 -0.1461  0.0831  0.1419
 1946W        W18207  11.800  14.408  13.060  0.0510 -0.1521 -0.1426
 1947W        W18208   2.554  12.291   2.133 -0.1820  0.2381  0.3924
 1948W        W18209   2.417  13.445  15.655 -0.1139 -0.0780 -0.0192
 1949W        W18210   1.414  16.685   5.356 -0.1393  0.1478  0.1664
 1950W        W18211   3.416  10.663  15.026 -0.0447  0.1991  0.0129
 1951W        W18212  12.514  12.015  12.012  0.2027 -0.0532 -0.0048
 1952W        W18213  16.460  14.589  14.851  0.0547  0.0045 -0.4691
 1953W        W18214  16.290   8.166  14.996 -0.0894 -0.1471 -0.1621
 1954W        W18215  14.557  13.860  12.106  0.0604 -0.0174 -0.1836
 1955W        W18216  18.422  11.051  13.178 -0.0012  0.1471  0.0806
 1956W        W18217   2.248   9.979  13.147 -0.2535  0.0429  0.2334
 1957W        W18218  16.935   8.125   0.779  0.2304  0.2843  0.0645
 1958W        W18219  15.054   2.185   1.476 -0.0583  0.4406  0.0924
 1959W        W18220   5.870   4.579   4.892  0.0404  0.1753  0.0061
 1960W        W18221  10.366  11.707   5.046 -0.1612  0.0894  0.2163
 1961W        W18222  12.692   2.387  13.224  0.0498 -0.3575  0.1463
 1962W        W18223  14.629  11.551   3.241 -0.1117 -0.1032  0.0184
 1963W        W18224  16.155  15.734  13.806  0.2555 -0.2495 -0.2197
 1964W        W18225   3.991  15.445  16.174 -0.1526 -0.1655 -0.2523
 1965W        W18226  16.434   9.521   3.496 -0.0716  0.0353  0.0304
 1966W        W18227   1.463  17.496  15.531 -0.0646 -0.2256  0.0241
 1967W        W18228   0.648  13.163   5.350  0.0600  0.0846  0.1690
 1968W        W18229   4.093   8.601   3.518 -0.0462  0.0785 -0.2279
 1969W        W18230  15.989   9.597  13.562  0.1808  0.1431 -0.3744
 1970W        W18231   0.571  16.847   0.817  0.2723 -0.0555 -0.2632
 1971W        W18232   7.814  14.082   0.196 -0.0990  0.1189 -0.0085
 1972W        W18233  14.400  12.004   3.117  0.0569  0.0460 -0.3622
 1973W        W18234  10.261   4.177  15.142  0.1936  0.1479 -0.0813
 1974W        W18235  10.011  12.068   5.888 -0.1000  0.2352 -0.2267
 1975W        W18236  16.100   6.352  13.160  0.2888 -0.1441 -0.0631
 1976W        W18237   5.044  17.990   1.892 -0.0651 -0.3199  0.2721
 1977W        W18238   2.873   9.077   4.984 -0.2803  0.0283  0.0775
 1978W        W18239   2.329   4.678  11.775  0.3569  0.0405 -0.1866
 1979W        W18240  12.105  15.646   2.249 -0.0454 -0.2297 -0.4085
 1980W        W18241  16.914  11.992   3.755 -0.1177  0.0381  0.2161
 1981W        W18242   8.606  13.918   1.079  0.3214  0.1503  0.0826
 1982W        W18243   4.410  10.566   1.247 -0.0931 -0.1122  0.1766
 1983W        W18244   1.753  12.341  11.753  0.2267  0.0276  0.1938
 1984W        W18245  14.815   7.053  11.683  0.2606 -0.1313 -0.0247
 1985W        W18246  14.663   4.209   2.636 -0.3250  0.2379  0.0202
 1986W        W18247  10.338   8.700  12.383  0.1253  0.1817 -0.0194
 1987W        W18248   4.814   0.346   0.034  0.0150  0.0301 -0.0650
 1988W        W18249   5.864   0.889  13.807  0.0629 -0.2469  0.2027
 1989W        W18250   6.456   9.389  14.318 -0.0224 -0.0246  0.1155
 1990W        W18251   8.470   0.328  13.140 -0.0254  0.2065 -0.1791
 1991W        W18252  14.390   1.606   0.095  0.0467  0.0328 -0.1504
 1992W        W18253  16.315  18.020   3.769 -0.2050 -0.2813 -0.0195
 1993W        W18254   4.465   6.133   2.212 -0.2169 -0.0180  0.4017
 1994W        W18255   0.845   7.570   4.047 -0.2948 -0.0293 -0.1696
 1995W        W18256   1.532   8.441   0.845  0.1312 -0.3828 -0.0201
 1996W        W18257  14.410   9.833  14.521  0.0956 -0.0416 -0.3581
 1997W        W18258   5.421  17.495   0.214  0.1773 -0.2587  0.2389
 1998W        W18259  15.905  10.127  16.038 -0.0135 -0.0448 -0.0873
 1999W        W18260   5.565   6.983   2.912 -0.4186  0.1922 -0.0912
 2000W        W18261  15.087   4.060   1.460  0.0183  0.1870 -0.3014
 2001W        W18262  13.338   5.194  15.455 -0.0701  0.1421 -0.0014
 2002W        W18263  12.281   6.437  14.643  0.0580  0.1145 -0.0126
 2003W        W18264   2.954   8.106   6.473 -0.0387 -0.1535 -0.0413
 2004W        W18265   1.268  15.350   3.607  0.2647 -0.1075  0.1454
 2005W        W18266  16.105  11.417  14.556  0.0594 -0.1042  0.1438
 2006W        W18267   7.664   7.863  12.562  0.0342 -0.1067  0.0922
 2007W        W18268  12.400   5.203   0.447  0.2809 -0.0752 -0.1611
 2008W        W18269  16.429  13.816   2.034  0.0519  0.0851 -0.0862
 2009W        W18270   6.682   7.545   2.815  0.3797 -0.1522  0.3263
 2010W        W18271   1.667  15.319  10.287 -0.0910 -0.1832  0.1621
 2011W        W18272   4.283   1.959   5.131  0.2153  0.1841 -0.1221
 2012W        W18273  16.827   2.669  12.997  0.0204 -0.1211 -0.2205
 2013W        W18274  15.558   1.063   0.220 -0.1443  0.1563 -0.0593
 2014W        W18275   8.775  10.516   0.812 -0.0540  0.1184 -0.0801
 2015W        W18276   5.049   5.836  12.848  0.0738  0.0343 -0.1049
 2016W        W18277   5.197   4.026  12.424 -0.0788  0.1582 -0.1331
 2017W        W18278  10.107   5.079   3.805  0.3732 -0.1250  0.2768
 2018W        W18279  10.628   6.887   5.763 -0.0352  0.0700 -0.1237
 2019W        W18280  11.947   2.569   3.894 -0.0697 -0.3278 -0.1489
 2020W        W18281  10.143   1.846   0.885  0.0606 -0.0131  0.0648
 2021W        W18282   4.034   6.012  15.697  0.1031  0.0610 -0.0648
 2022W        W18283   6.168  12.815  13.391 -0.1235 -0.0778  0.2695
 2023W        W18284  13.715   8.431   4.333  0.2288 -0.2079 -0.1278
 2024W        W18285  10.133   9.336   3.302 -0.3282 -0.0308  0.1486
 2025W        W18286  11.024   9.715  13.427  0.1402 -0.1843  0.1561
 2026W        W18287  17.589  14.140  11.409  0.0270 -0.0500  0.0587
 2027W        W18288   2.270   5.257  14.260  0.1261 -0.0743  0.2442
 2028W        W18289   0.654  11.808   3.123 -0.2171  0.0187 -0.0087
 2029W        W18290   1.992   3.432  13.915 -0.1563 -0.2316 -0.1404
 2030W        W18291   6.078  17.619  13.558  0.1600 -0.3342  0.4859
 2031W        W18292   6.856   6.542   3.621 -0.0317 -0.0396 -0.3267
 2032W        W18293   3.188  17.133   4.371 -0.2875 -0.2216 -0.0741
 2033W        W18294   2.627   0.256  12.258  0.2817 -0.1881  0.0793
 2034W        W18295   3.603   4.962   2.215  0.0934 -0.3309 -0.1740
 2035W        W18296   1.322  11.526   0.070  0.2449 -0.1884 -0.2607
 2036W        W18297   4.055  16.403  13.058  0.1721 -0.0677  0.4043
 2037W        W18298  14.409   7.896   2.930  0.1954 -0.1321  0.0909
 2038W        W18299  15.329   6.085  13.638  0.1525 -0.1207  0.3086
 2039W        W18300   9.730   4.236   3.763 -0.0855  0.0785 -0.0811
 2040W        W18301   7.136  10.753   5.955  0.1442  0.0897 -0.1126
 2041W        W18302   9.335  18.421   3.326  0.1331  0.2541 -0.0239
 2042W        W18303  11.312   8.826  12.638 -0.0583  0.0432 -0.0141
 2043W        W18304   1.265   8.782  14.759  0.1257 -0.2071 -0.2726
 2044W        W18305  12.138   2.863  15.782  0.2312 -0.2499  0.0139
 2045W        W18306   7.592   0.117   3.957  0.3438  0.0642  0.0200
 2046W        W18307  10.580   0.014  13.061 -0.0782  0.0791  0.2407
 2047W        W18308  15.602   8.183  16.075 -0.0220 -0.0901  0.1765
 2048W        W18309  15.462   4.376  13.408  0.0362 -0.1580  0.4438
 2049W        W18310   9.384   6.098  15.205 -0.1067  0.2183  0.0300
 2050W        W18311   5.569   9.483   1.312 -0.0622  0.2498  0.2390
 2051W        W18312  18.137   9.487  11.842  0.2096 -0.0503  0.1753
 2052W        W18313   4.091   5.981   2.523 -0.0553  0.0951  0.0218
 2053W        W18314   8.922   2.499   0.934 -0.0577 -0.2723 -0.0615
 2054W        W18315   6.490  18.312   4.024  0.3114 -0.1128 -0.2546
 2055W        W18316   3.587   4.380   5.976  0.0141  0.0950 -0.1989
 2056W        W18317   5.396  14.358  13.588 -0.3553 -0.0877 -0.0497
 2057W        W18318   8.883   4.331   0.224  0.1978  0.0764 -0.0453
 2058W        W18319   6.697  16.655   4.577 -0.0185  0.0096  0.0348
 2059W        W18320  10.528   8.442   0.942 -0.1012  0.2127  0.1675
 2060W        W18321   4.594  14.103  15.293  0.2361 -0.1107  0.2715
 2061W        W18322  15.837   8.949   3.773 -0.2535  0.1227 -0.3241
 2062W        W18323   4.532  13.327  11.600  0.0270  0.0295 -0.0385
 2063W        W18324   5.445  12.456   0.179  0.0666 -0.0677 -0.1225
 2064W        W18325  16.470  10.732  11.115 -0.4587 -0.3234 -0.3253
 2065W        W18326   4.201  10.963  11.733 -0.0712 -0.0039 -0.2983
 2066W        W18327   1.624   8.329  14.639 -0.1769 -0.0075  0.1129
 2067W        W18328   1.644  11.233   1.951 -0.0174  0.4084 -0.0923
 2068W        W18329  14.060  11.676   3.954 -0.2199 -0.3393 -0.1958
 2069W        W18330  14.310   8.819   5.067  0.3468  0.1717  0.0843
 2070W        W18331  13.362  14.734  13.372  0.1161 -0.4655  0.0536
 2071W        W18332   4.612  17.917  13.813  0.2905  0.0009 -0.1545
 2072W        W18333  15.422  10.258  11.115  0.3775 -0.0700 -0.3465
 2073W        W18334   4.673   3.467  14.659  0.0312  0.1513  0.3080
 2074W        W18335   2.210  15.212   0.864  0.1197  0.0039  0.2426
 2075W        W18336  17.696   8.158  12.101  0.1614 -0.1038 -0.3044
 2076W        W18337   8.853  16.328  14.079 -0.1433  0.1280  0.3730
 2077W        W18338   4.046   1.118  12.771 -0.0038  0.0883  0.1153
 2078W        W18339   0.576   1.944  14.136 -0.1351 -0.1714  0.2611
 2079W        W18340  12.694   7.699  14.836 -0.3678  0.0187  0.1455
 2080W        W18341   4.812   5.492   1.584  0.0217 -0.0175  0.1800
 2081W        W18342   0.997   5.184  12.085 -0.2050  0.1310 -0.3020
 2082W        W18343  16.498  10.053  15.443  0.3295  0.4271  0.1603
 2083W        W18344   3.578   9.863   4.724 -0.0639  0.0493 -0.1076
 2084W        W18345  13.120   7.523   0.847  0.0670 -0.0523  0.1925
 2085W        W18346  12.223   6.625   4.121 -0.1632 -0.0759  0.0332
 2086W        W18347   3.960   7.488  15.642  0.2377 -0.2691 -0.1121
 2087W        W18348   3.692   6.837  11.837 -0.4092  0.0059 -0.2421
 2088W        W18349   9.490   8.810   0.027 -0.0256 -0.2227 -0.2594
 2089W        W18350   3.541  10.338   4.647 -0.0634  0.1239  0.2067
 2090W        W18351  18.386   4.161  12.399 -0.3010  0.0179  0.1346
 2091W        W18352   3.815   1.290  14.076  0.2357  0.0141  0.1837
 2092W        W18353   3.452   9.318   0.163  0.0744  0.2075 -0.0226
 2093W        W18354  12.305   8.639   3.141  0.0678  0.0345  0.0074
 2094W        W18355  10.730   0.581  14.998  0.2436  0.1703  0.0037
 2095W        W18356   4.550  17.622   1.094 -0.1838  0.0239 -0.3504
 2096W        W18357  14.922   0.360  11.667  0.0948 -0.4113  0.1734
 2097W        W18358  14.949  11.887  11.062 -0.0644  0.2780  0.1034
 2098W        W18359  14.886  11.898   4.083  0.2751  0.0414  0.2084
 2099W        W18360   2.889   7.377  12.266 -0.1270  0.1413  0.0500
 2100W        W18361  12.096   8.977  14.182  0.4567  0.1736 -0.0029
 2101W        W18362   2.947   3.936  13.500  0.0654 -0.0202  0.1766
 2102W        W18363  14.151   7.051   0.283  0.3466  0.2012  0.0128
 2103W        W18364   2.736   6.605   1.314  0.1625  0.2450  0.1334
 2104W        W18365   9.104   3.051  14.280  0.0531 -0.2366  0.0689
 2105W        W18366   3.509   7.962   5.436 -0.0143 -0.2094  0.1361
 2106W        W18367  11.242  17.988  13.584 -0.0429 -0.2005  0.1646
 2107W        W18368  17.425  16.550   4.129  0.1051  0.1716  0.0686
 2108W        W18369   7.757   2.815   5.074  0.0602 -0.2885  0.0643
 2109W        W18370   7.135  15.823   1.913  0.5649  0.3448 -0.2863
 2110W        W18371  14.322  12.781  14.673  0.0092 -0.0049 -0.1546
 2111W        W18372   8.315   7.518   4.289 -0.1965 -0.1505 -0.0077
 2112W        W18373  12.721  11.055  11.157  0.3951 -0.0242 -0.2184
 2113W        W18374  13.645   1.816   0.181  0.0963  0.2584  0.0710
 2114W        W18375   5.122  11.031   3.292  0.2866 -0.0267  0.0535
 2115W        W18376   5.099  18.329   0.931 -0.1572  0.2150 -0.0159
 2116W        W18377  13.389  13.236  11.763  0.0062 -0.2918 -0.1134
 2117W        W18378  17.208   8.033  11.911  0.1276 -0.1031 -0.0565
 2118W        W18379  10.717  15.928  10.841 -0.0488 -0.0030  0.1125
 2119W        W18380   3.865  11.335  14.931  0.4941  0.0088  0.2663
 2120W        W18381   5.326   5.472   5.938 -0.0638  0.5538  0.2106
 2121W        W18382   1.349   6.487   5.138  0.1010 -0.0442 -0.3145
 2122W        W18383   2.458  11.765  15.474  0.3616 -0.1318 -0.0133
 2123W        W18384  17.720   6.808   2.475 -0.0789 -0.1803  0.1295
 2124W        W18385  17.272  14.068   4.833  0.1599  0.0330 -0.1452
 2125W        W18386  11.795  11.080   0.716  0.0143  0.1583  0.2791
 2126W        W18387  11.181   4.937   1.003  0.0156 -0.2794 -0.2101
 2127W        W18388  15.175   1.259  12.093 -0.3462  0.0920  0.1475
 2128W        W18389  16.764   1.392  11.270 -0.2046 -0.0721  0.1118
 2129W        W18390  16.857   6.215  13.610  0.0095  0.0155  0.1002
 2130W        W18391  11.961  12.825  11.828 -0.1058  0.0768  0.3575
 2131W        W18392  14.671  11.424  11.036 -0.2040 -0.2207 -0.1559
 2132W        W18393  13.000  16.605   1.457  0.0687  0.2440  0.1732
 2133W        W18394   5.126  14.769   3.261  0.1395 -0.1198  0.2451
 2134W        W18395   9.271   4.910  15.763 -0.0213 -0.1787  0.0535
 2135W        W18396  18.430   6.619  15.267 -0.1184 -0.0185 -0.1175
 2136W        W18397   6.406   4.118  14.430  0.1363  0.2726  0.2751
 2137W        W18398  14.540  17.208  12.583 -0.1098  0.4057 -0.3841
 2138W        W18399  16.387  11.421  12.824  0.3407 -0.1400  0.1756
 2139W        W18400   3.666   6.538  14.585  0.0194  0.0273 -0.1370
 2140W        W18401  16.871  10.141   2.463  0.1112  0.3426 -0.1400
 2141W        W18402  17.317   2.132  11.035  0.2662  0.0991 -0.0032
 2142W        W18403  18.335  17.293   5.045  0.1668  0.1825 -0.1239
 2143W        W18404   8.329   8.217  12.647  0.0134  0.0174  0.2642
 2144W        W18405   5.831   0.061  12.687  0.4000  0.5195  0.2550
 2145W        W18406  10.491  11.862   4.026  0.0290 -0.1749  0.0006
 2146W        W18407   5.639   9.710   5.537 -0.1969  0.0047 -0.0003
 2147W        W18408  10.473   8.867   2.616 -0.3065 -0.1589  0.1822
 2148W        W18409  15.211  14.921  13.565 -0.2274  0.0078  0.1208
 2149W        W18410  17.053  18.481   2.605  0.0718  0.1455 -0.2566
 2150W        W18411   6.084   1.355  12.873  0.0094  0.1159 -0.0037
 2151W        W18412   4.927   3.403   4.594  0.0358 -0.0796  0.0958
 2152W        W18413   0.581  10.675  15.567  0.1641 -0.2467  0.1212
 2153W        W18414   2.714   2.948   2.970  0.0658  0.2071 -0.1050
 2154W        W18415   7.608  11.862  12.944 -0.4100 -0.1748 -0.2088
 2155W        W18416   4.798  12.039  15.696  0.1685 -0.0180 -0.2370
 2156W        W18417   1.845   7.051   3.072 -0.1907 -0.0949  0.0608
 2157W        W18418  14.456  16.660  14.306 -0.1031  0.1902 -0.2832
 2158W        W18419   0.428   3.576   3.646 -0.0640 -0.0860 -0.2635
 2159W        W18420  14.014   3.376  14.476  0.3124 -0.0247  0.0384
 2160W        W18421   6.771   0.112   0.906  0.2120 -0.2970 -0.1105
 2161W        W18422   4.616   5.722   3.910 -0.0529 -0.3248  0.1455
 2162W        W18423   1.907   5.894  12.664 -0.0420  0.0060  0.1367
 2163W        W18424  18.463  12.766  13.117  0.0776  0.0519  0.0482
 2164W        W18425   6.610   3.795  12.721 -0.0157  0.0777  0.1061
 2165W        W18426   8.974   1.769   3.094 -0.1291  0.3678 -0.1472
 2166W        W18427   8.193   9.272   4.464 -0.1694  0.0057  0.1141
 2167W        W18428  11.336  18.097   2.764  0.3985  0.2636 -0.0393
 2168W        W18429  12.035   5.892  12.371  0.0094  0.2063  0.1591
 2169W        W18430   4.533   9.955   0.544 -0.1262  0.0138 -0.1049
 2170W        W18431   2.593   8.999  13.797 -0.0046  0.0034 -0.0341
 2171W        W18432  14.020   2.934  14.901  0.2918  0.0721 -0.0536
 2172W        W18433   0.359  14.598  15.013 -0.0097  0.0652  0.0670
 2173W        W18434  13.744  17.933   4.911 -0.0075  0.1674 -0.0090
 2174W        W18435  15.798  10.127   4.032 -0.0714 -0.1130 -0.0032
 2175W        W18436   7.546   4.756  13.460  0.0251  0.0440 -0.0429
 2176W        W18437  15.540   1.076  11.078 -0.2313 -0.0847 -0.0548
 2177W        W18438  18.176  11.490   1.896 -0.1060  0.0670 -0.1136
 2178W        W18439   4.902   6.171   5.390 -0.5420  0.0377  0.4047
 2179W        W18440   6.266  15.862   0.384 -0.1833 -0.1344  0.3431
 2180W        W18441  17.559  17.911   2.025 -0.2425 -0.1481 -0.0366
 2181W        W18442   1.273   7.432  13.512 -0.1290 -0.0438  0.2477
 2182W        W18443  15.537   2.462   2.297 -0.0178  0.1255  0.1698
 2183W        W18444  17.417   9.477   2.887  0.2205  0.1750 -0.0326
 2184W        W18445   7.586  15.828  11.416 -0.2362 -0.2426 -0.1223
 2185W        W18446  18.375   7.046  11.097 -0.1882  0.2343  0.0243
 2186W        W18447  15.056  11.614   2.945 -0.0311 -0.0405 -0.0516
 2187W        W18448   4.543   9.161  13.167  0.1283  0.1485  0.2391
 2188W        W18449   5.099   2.761   3.334  0.0233  0.2934  0.2902
 2189W        W18450  16.806   0.518  12.780 -0.2399  0.0655 -0.1083
 2190W        W18451   0.320   6.126  15.445 -0.1055 -0.2870  0.0162
 2191W        W18452  15.357  13.944   3.851 -0.2036  0.4626 -0.3680
 2192W        W18453   3.301   1.601   6.207  0.0095 -0.4440  0.1140
 2193W        W18454  13.149  16.191   4.853  0.1348  0.0528 -0.1684
 2194W        W18455  14.399  17.565  11.200  0.2899  0.1405  0.4915
 2195W        W18456  11.263  18.452   4.667  0.0041  0.1220 -0.2708
 2196W        W18457   6.881   8.768  15.613  0.1280  0.2342 -0.1722
 2197W        W18458  15.005  11.606   3.590  0.1769  0.0018 -0.2617
 2198W        W18459  13.262  17.035  15.941  0.1552 -0.0725  0.0398
 2199W        W18460  12.314   6.020  11.316 -0.1889  0.0367 -0.3269
 2200W        W18461  14.263   0.419  13.856 -0.1469 -0.2643  0.0585
 2201W        W18462  10.118   1.269  12.942  0.2871 -0.1698 -0.1408
 2202W        W18463   8.464   3.243  14.554 -0.2603  0.1715  0.1989
 2203W        W18464  17.497   0.456  11.069 -0.1818  0.0483  0.0349
 2204W        W18465  16.046  13.184   2.894  0.0863 -0.0995 -0.3468
 2205W        W18466  16.282  11.444   0.454 -0.1163 -0.4358  0.0931
 2206W        W18467   5.666   7.598   0.712  0.3259 -0.1578 -0.1269
 2207W        W18468  13.694   0.663   3.433  0.2006  0.4495 -0.4258
 2208W        W18469  17.994   1.629  12.096 -0.3411 -0.0496 -0.0732
 2209W        W18470   1.516  16.672  14.877  0.2019 -0.0637 -0.1101
 2210W        W18471  15.084   7.857   3.700  0.0587 -0.1141 -0.0559
 2211W        W18472  17.730  17.957  14.542 -0.3003 -0.0322  0.1230
 2212W        W18473  18.241  16.225   0.229  0.1919 -0.0496 -0.0111
 2213W        W18474  12.159   1.499   0.967 -0.0084  0.0892  0.0528
 2214W        W18475   5.144   0.846   4.254 -0.0221  0.0472 -0.0711
 2215W        W18476   0.231   8.983   2.064 -0.0553 -0.0465 -0.1093
 2216W        W18477   5.214  15.501   5.691 -0.2849 -0.3011 -0.3532
 2217W        W18478   9.070  15.743  12.627 -0.0052  0.2607 -0.1619
 2218W        W18479   8.853  16.627  11.715 -0.2116  0.1642  0.0798
 2219W        W18480   9.809   2.505  15.393 -0.2978 -0.2543 -0.0178
 2220W        W18481   8.658  12.691  12.500  0.2527  0.2140 -0.0972
 2221W        W18482   0.751  12.860   5.888  0.3475  0.1479 -0.1295
 2222W        W18483  10.586   5.895  14.266  0.0843 -0.1856  0.0496
 2223W        W18484   4.338   5.561  13.359  0.1227  0.1578  0.0088
 2224W        W18485   0.709  11.808  14.555  0.0550  0.0292 -0.1473
 2225W        W18486   5.816  17.162  12.814  0.0105  0.2765 -0.2278
 2226W        W18487  12.278   9.844  14.032 -0.0944  0.0462 -0.0673
 2227W        W18488  17.209   7.197   3.770 -0.1631  0.3043  0.1430
 2228W        W18489  11.335  14.388   0.578  0.1961 -0.1128  0.0958
 2229W        W18490   7.260   3.297  13.286 -0.2545 -0.0801  0.1816
 2230W        W18491  14.654   2.245  15.416  0.0072 -0.4283 -0.0397
 2231W        W18492   3.149   4.505   3.628  0.3712  0.2341 -0.0474
 2232W        W18493   3.216  10.879   1.462  0.2286  0.3340  0.1876
 2233W        W18494   9.218   6.860   5.237 -0.0433  0.0892 -0.0567
 2234W        W18495  13.385  11.007  14.451  0.1444 -0.1344 -0.0426
 2235W        W18496   3.474   0.900   5.119 -0.1743  0.0940 -0.0540
 2236W        W18497   1.610  17.893   5.063  0.0795  0.4115  0.1737
 2237W        W18498  13.835   2.456  15.274  0.1134  0.1344 -0.0676
 2238W        W18499  11.192   2.982  15.425 -0.1536 -0.2193 -0.0983
 2239W        W18500   3.195  10.010   4.985 -0.0525 -0.1135  0.4638
 2240W        W18501   3.294  16.329   4.697 -0.3534 -0.1109  0.1519
 2241W        W18502  13.110  11.738  15.558 -0.0128  0.2129  0.0740
 2242W        W18503   7.006   2.881  14.762  0.3358 -0.1620  0.1169
 2243W        W18504  15.501   9.906   4.414  0.0148 -0.1679 -0.3674
 2244W        W18505   5.305  14.897   5.066  0.0480  0.0549  0.0357
 2245W        W18506   4.568   8.626  12.962  0.5331 -0.0564 -0.0876
 2246W        W18507   2.065   8.597  13.775  0.1203  0.3394  0.0434
 2247W        W18508   1.326   7.465  15.204 -0.2270 -0.2725 -0.1297
 2248W        W18509  11.751   0.288  12.581  0.0329 -0.1370  0.1794
 2249W        W18510  10.687  11.789   3.522  0.1822  0.3167 -0.1006
 2250W        W18511  11.581   8.046  13.145  0.3138  0.2076 -0.3043
 2251W        W18512  10.531   5.481  11.905  0.3284  0.1029  0.1085
 2252W        W18513  10.243  16.407  15.939  0.3990  0.1226 -0.0160
 2253W        W18514  16.072  18.004  11.273  0.2237 -0.1645  0.2389
 2254W        W18515  14.885   1.168   0.535  0.2484  0.0881 -0.0339
 2255W        W18516   6.670  16.715  12.349 -0.0733 -0.4644 -0.1029
 2256W        W18517   8.259   9.619  13.123  0.1788 -0.0550 -0.0915
 2257W        W18518  15.231  11.877  14.111  0.2553 -0.0158  0.1576
 2258W        W18519   1.345  11.032  14.543  0.1425  0.0415 -0.2798
 2259W        W18520   1.940   6.216   3.764 -0.0353 -0.0015  0.0443
 2260W        W18521  10.029  11.154   3.790  0.3085  0.1980 -0.0291
 2261W        W18522  12.462   8.654  10.596 -0.1573  0.1221 -0.0691
 2262W        W18523   3.994  18.098   4.815  0.0825 -0.2083 -0.0236
 2263W        W18524   5.071  10.470   5.632  0.0818 -0.0723  0.1870
 2264W        W18525   2.105   0.810   3.033 -0.1793  0.2432  0.0596
 2265W        W18526   9.005  10.923   2.407 -0.0348  0.1385 -0.1745
 2266W        W18527   5.034  11.485   2.522  0.0406  0.2061 -0.2077
 2267W        W18528   7.049   9.304   6.730  0.0445  0.1243 -0.3441
 2268W        W18529  10.396   5.674  15.950  0.0793 -0.1553  0.2959
 2269W        W18530  14.513   6.321  13.092 -0.0001  0.0156 -0.0597
 2270W        W18531   4.734  10.905  15.246  0.3109 -0.2470 -0.1644
 2271W        W18532  12.179   4.035   3.046 -0.2667 -0.4039 -0.0481
 2272W        W18533  11.102  16.750  13.678 -0.2548 -0.1186 -0.2973
 2273W        W18534   8.687  11.285  12.624  0.4510  0.0366 -0.1045
 2274W        W18535  11.911   8.452   0.576  0.1129 -0.2625  0.0820
 2275W        W18536   6.442   7.886  12.387  0.3327  0.3011 -0.2733
 2276W        W18537  15.449   8.916  15.717  0.1360 -0.2222  0.0465
 2277W        W18538   3.269  16.614  14.878  0.1497 -0.1158  0.4952
 2278W        W18539   5.199   8.177   1.614  0.0314 -0.1776 -0.3204
 2279W        W18540  11.305  13.764   1.662 -0.2409  0.0112  0.1509
 2280W        W18541   7.964  10.955   2.046 -0.1576  0.1107  0.0257
 2281W        W18542   9.786  13.021  11.611 -0.2725  0.0620  0.0194
 2282W        W18543   0.960   4.893  14.787  0.2479 -0.0703 -0.3067
 2283W        W18544   2.221  15.604  14.403 -0.2325 -0.0154 -0.0329
 2284W        W18545  17.266   6.994   6.179 -0.0955  0.1977 -0.1519
 2285W        W18546   0.823  17.259  15.525 -0.1399  0.1820 -0.0267
 2286W        W18547  17.643   7.307   0.605  0.0264  0.1219  0.3348
 2287W        W18548   0.656   1.085  12.521  0.4628  0.1783  0.2913
 2288W        W18549   6.117   1.411   4.331 -0.0452  0.0734 -0.1258
 2289W        W18550  15.599  10.966   1.090  0.4602 -0.1734 -0.0218
 2290W        W18551  17.164  17.238   1.382  0.1319 -0.3178  0.2791
 2291W        W18552  14.356   4.348   0.533 -0.1477  0.0760 -0.3685
 2292W        W18553   6.572  13.116   2.566  0.0930  0.0314  0.0483
 2293W        W18554   0.486  16.362   3.508  0.0333  0.4292  0.0334
 2294W        W18555  16.290   5.809  11.870  0.0007  0.2297  0.0735
 2295W        W18556  15.385  11.539   2.024 -0.0666  0.0874  0.0676
 2296W        W18557  15.097   8.042   4.188 -0.3269  0.0841  0.0475
 2297W        W18558  14.595   8.657  15.475 -0.0822  0.1464 -0.1682
 2298W        W18559   2.538  11.231   3.948  0.6402 -0.0112 -0.5197
 2299W        W18560   7.191  17.785   0.031  0.3692 -0.3537 -0.0216
 2300W        W18561  10.220  15.361  11.485  0.1702  0.0646 -0.1894
 2301W        W18562   1.257   8.176   1.593  0.2194 -0.1274 -0.1072
 2302W        W18563  11.048   2.044  14.570 -0.1589  0.0932  0.2139
 2303W        W18564   1.715   9.548   1.710  0.1015  0.5732  0.1611
 2304W        W18565  16.435   9.638   4.838 -0.0957 -0.0109 -0.3027
 2305W        W18566  16.923  12.328   3.343  0.1328 -0.3004 -0.1225
 2306W        W18567  14.685  11.718  13.906 -0.1442 -0.4190  0.0197
 2307W        W18568   6.226   8.327   3.341 -0.0225  0.1373 -0.1511
 2308W        W18569   2.776   1.968   4.317 -0.0942  0.0571  0.1874
 2309W        W18570  12.141   2.652   4.968  0.2671 -0.0079  0.0130
 2310W        W18571   8.846  14.321   1.310 -0.0811 -0.1333  0.1015
 2311W        W18572  11.448   4.827  11.584  0.0519  0.2235 -0.2264
 2312W        W18573  11.290   5.363  12.804 -0.1441 -0.3880  0.3704
 2313W        W18574   1.178   4.515  15.052  0.4022  0.4434  0.0654
 2314W        W18575  15.461  17.227  11.010  0.0383 -0.0165 -0.0275
 2315W        W18576  17.385   3.371   3.882 -0.1582 -0.0573 -0.0441
 2316W        W18577   3.361  18.092   2.671  0.0228  0.0997  0.1510
 2317W        W18578  18.040  10.519   1.357 -0.4251 -0.0506  0.2836
 2318W        W18579  12.554   6.397   2.973 -0.1108  0.1229 -0.0548
 2319W        W18580   1.840   2.574  15.956 -0.3626  0.0330 -0.2120
 2320W        W18581  11.278   4.890  12.851 -0.1787 -0.4597 -0.1705
 2321W        W18582   7.040   9.853   0.176  0.1802 -0.0592  0.0505
 2322W        W18583  11.437   3.561   2.505  0.2789 -0.2357 -0.3549
 2323W        W18584  11.924   0.920  15.795 -0.2578  0.1891 -0.0335
 2324W        W18585  11.639  11.419  14.703 -0.0280  0.0458  0.0749
 2325W        W18586  13.965   4.579   4.599 -0.1024 -0.1382 -0.0291
 2326W        W18587  15.985  13.167  10.501 -0.2624  0.4296  0.1208
 2327W        W18588   9.623   9.047   5.441 -0.1820 -0.0343  0.0421
 2328W        W18589   0.889  13.476  15.473 -0.1547  0.0485 -0.0552
 2329W        W18590   6.500  17.533   2.989 -0.1109 -0.0282  0.0896
 2330W        W18591   3.997  15.990   5.567  0.0715  0.1572  0.0399
 2331W        W18592   1.740  11.463  11.277  0.1188 -0.0572 -0.2401
 2332W        W18593  13.275  16.106   2.766 -0.4696 -0.0157 -0.1085
 2333W        W18594   5.218   0.510  13.025  0.0555  0.0934 -0.0214
 2334W        W18595   8.648  16.640   1.108 -0.0010  0.2531  0.0285
 2335W        W18596   2.896  11.376  16.102 -0.1755 -0.0287 -0.2227
 2336W        W18597   5.170  14.505   4.362  0.0174 -0.0865  0.2587
 2337W        W18598  15.119   7.985  14.738 -0.2491 -0.0100  0.1412
 2338W        W18599  10.699   1.113  12.082  0.2869  0.0286 -0.0109
 2339W        W18600   5.679   9.562   1.810  0.2067  0.1256  0.0188
 2340W        W18601   4.632   2.494  12.403 -0.2374 -0.4172 -0.0154
 2341W        W18602   2.316  15.338  14.843 -0.1761  0.4784 -0.0191
 2342W        W18603   0.257   2.027  13.753 -0.1059  0.0196 -0.0047
 2343W        W18604   1.673   0.191   2.490  0.0045 -0.0019 -0.0055
 2344W        W18605   4.441  17.077   4.916  0.3939  0.3027 -0.2247
 2345W        W18606   9.357  13.472   2.900  0.0249 -0.0825 -0.1746
 2346W        W18607  15.661   9.407  15.727  0.1709 -0.0564  0.3917
 2347W        W18608   4.854  17.095   2.266 -0.0014  0.0411  0.3500
 2348W        W18609   1.892   5.396  12.515 -0.2322 -0.0255  0.0385
 2349W        W18610   1.753  11.261  14.881 -0.1566  0.0639  0.0509
 2350W        W18611   1.896  17.564   0.826 -0.2218 -0.0811  0.3855
 2351W        W18612   4.185   1.324  15.287  0.1278  0.1738 -0.2512
 2352W        W18613  12.529   9.374   4.585  0.0709  0.0428  0.0587
 2353W        W18614  16.024   6.842   5.806  0.4789  0.0453  0.0093
 2354W        W18615  12.904   8.699  12.289  0.2296 -0.1104 -0.1250
 2355W        W18616   9.457   9.626   0.105  0.1049 -0.0335 -0.2086
 2356W        W18617  13.125   7.897  15.577 -0.2619  0.1692 -0.1304
 2357W        W18618   7.280   8.296   1.397  0.1545  0.0827 -0.0614
 2358W        W18619   8.971  15.917  13.375  0.0513 -0.0377 -0.0319
 2359W        W18620   2.657   0.777  10.934 -0.0585 -0.2424  0.0810
 2360W        W18621  17.042   8.641   2.004  0.0122 -0.0176 -0.1545
 2361W        W18622   2.759   2.592   0.094  0.0951  0.3321 -0.0992
 2362W        W18623  16.821   3.379  15.489 -0.2790 -0.1757 -0.0722
 2363W        W18624   6.532  18.447   3.527  0.1331 -0.1061  0.0388
 2364W        W18625   3.538  16.074  15.697 -0.1039  0.0475 -0.1554
 2365W        W18626   7.551   0.125   5.315  0.0290 -0.0477  0.2003
 2366W        W18627   0.420   2.445  15.353  0.0536  0.1831  0.0889
 2367W        W18628   6.645  18.214  13.489 -0.1985  0.0236  0.1302
 2368W        W18629   8.423   5.606  11.557 -0.0065 -0.2798  0.1431
 2369W        W18630  15.337   5.056  14.535 -0.2356  0.2308  0.0562
 2370W        W18631   7.041   7.445  15.491  0.0999  0.1845  0.1980
 2371W        W18632  11.229  14.457   5.105 -0.0392  0.0726 -0.0803
 2372W        W18633  14.643   5.241   3.489 -0.0035 -0.0732 -0.1849
 2373W        W18634  18.464   2.399   0.488  0.1014 -0.2538  0.0431
 2374W        W18635   9.637  16.616  13.691 -0.0210 -0.2575 -0.0950
 2375W        W18636  11.564   6.135   2.254  0.0069 -0.0187  0.1352
 2376W        W18637  14.719   4.904  12.150  0.1221 -0.2762 -0.0289
 2377W        W18638   6.659   7.719   0.220  0.1179 -0.1226  0.0293
 2378W        W18639   2.665  14.864   1.084  0.0561  0.0545  0.0511
 2379W        W18640   6.784   5.934   0.584  0.3016 -0.0043 -0.1391
 2380W        W18641   6.129   0.569   4.131 -0.2255  0.2075  0.0529
 2381W        W18642  13.507   2.523   0.704  0.1385  0.3684 -0.3319
 2382W        W18643   4.685   4.811  15.046 -0.0295  0.1430  0.0993
 2383W        W18644   4.645  13.150   2.760 -0.0800  0.1880 -0.1397
 2384W        W18645  10.778  14.549  14.585  0.5504 -0.1601  0.3854
 2385W        W18646   5.832   2.766  11.912  0.4398 -0.1740  0.2091
 2386W        W18647  13.888  16.117  14.282  0.1535  0.2251 -0.2087
 2387W        W18648   9.911  13.356  12.329 -0.1520 -0.2038 -0.2325
 2388W        W18649   6.208  14.358  11.180 -0.0015 -0.1611 -0.2050
 2389W        W18650  13.058   6.314  14.676  0.3270 -0.1938  0.1131
 2390W        W18651  16.906  12.524  10.114  0.2254  0.0190 -0.1807
 2391W        W18652   1.291  17.874   1.904  0.0282 -0.0664  0.3328
 2392W        W18653  17.883   2.691   2.676 -0.0827  0.0113 -0.1249
 2393W        W18654  18.022  13.644  10.863 -0.0200 -0.1377 -0.0508
 2394W        W18655  17.259   5.293  15.181  0.0020  0.1429 -0.1612
 2395W        W18656  11.067   6.271   5.032  0.0017  0.1266  0.1248
 2396W        W18657   3.297   8.362  14.640  0.0441  0.0127  0.0622
 2397W        W18658  11.641  13.052  12.810  0.4346 -0.0129  0.0073
 2398W        W18659   1.059   2.188   0.259  0.0186 -0.0514  0.1918
 2399W        W18660  12.756   9.859  15.398 -0.1296 -0.3389  0.5436
 2400W        W18661   2.367  17.431   4.714  0.4652  0.0631 -0.1987
 2401W        W18662   1.123   1.363  15.609 -0.2633  0.1452  0.2123
 2402W        W18663   3.869  10.385   0.140  0.2010 -0.1184  0.3036
 2403W        W18664   6.049  15.123   5.490  0.2956  0.3021 -0.2927
 2404W        W18665  11.677   3.146   3.404  0.2119 -0.2201 -0.1009
 2405W        W18666  12.952   5.053   0.374 -0.1939 -0.1423  0.2744
 2406W        W18667   8.388   1.983  12.864 -0.2564 -0.0796  0.0590
 2407W        W18668  14.565  12.889   0.508 -0.1241 -0.2921  0.1045
 2408W        W18669  14.968   5.567   4.338  0.0185 -0.1257  0.1136
 2409W        W18670   1.526   0.571   2.209 -0.0100 -0.1940  0.0866
 2410W        W18671   5.709   2.494   2.030 -0.0907 -0.1634 -0.2844
 2411W        W18672   9.864   9.730  14.430  0.2487 -0.2341  0.0513
 2412W        W18673   6.365  17.227  16.180  0.0120 -0.0292 -0.1657
 2413W        W18674   4.680  18.344   5.282  0.1247  0.0133  0.0390
 2414W        W18675   8.506  13.472  15.678 -0.5343  0.3071  0.0888
 2415W        W18676   8.277  14.604  15.133  0.1790 -0.2034  0.2937
 2416W        W18677  15.999  11.169  11.592  0.2695  0.0177 -0.0990
 2417W        W18678   0.801  16.229   4.755  0.1947  0.0333  0.0052
 2418W        W18679   4.299  10.697  14.594  0.1311 -0.4683 -0.1146
 2419W        W18680   9.124  12.032  12.545  0.1326  0.0131 -0.1483
 2420W        W18681  18.234   7.565   1.152  0.0108  0.0175 -0.0060
 2421W        W18682  15.222   2.985   0.047  0.1090 -0.0357 -0.2371
 2422W        W18683   8.507   4.711  12.166 -0.1899 -0.1284 -0.1934
 2423W        W18684  16.837   6.810   0.712 -0.0687  0.1684  0.1776
 2424W        W18685   6.163  15.474   1.585  0.1718  0.1268 -0.1731
 2425W        W18686  12.338   6.550  15.216  0.0243  0.2063  0.1545
 2426W        W18687   8.601  15.826   5.295 -0.1031 -0.1210  0.2398
 2427W        W18688   4.699   1.158  11.761 -0.2052  0.0832 -0.0011
 2428W        W18689   9.261   4.672  14.891  0.0656 -0.2329 -0.0426
 2429W        W18690  12.693  10.362   3.334  0.2990  0.1345  0.0705
 2430W        W18691  17.381  16.633   3.651 -0.0296 -0.0140  0.4180
 2431W        W18692   2.907  14.646   4.852 -0.0597  0.0062  0.0179
 2432W        W18693   0.853   9.609   0.123 -0.0109  0.1798  0.1983
 2433W        W18694  13.733   9.890   1.479  0.0897  0.0059  0.2071
 2434W        W18695   2.652   6.019   0.743 -0.2028  0.1145 -0.0608
 2435W        W18696   7.873  11.265  11.413 -0.3821  0.1342  0.0180
 2436W        W18697   9.996   1.653  12.084 -0.3757  0.1339 -0.2149
 2437W        W18698   6.634  17.409   1.497  0.1061  0.1492 -0.2098
 2438W        W18699   3.690  17.525   1.028 -0.0583  0.0701 -0.1294
 2439W        W18700  15.653   7.745  15.748  0.0338  0.2555  0.2359
 2440W        W18701   4.795   1.017   6.015  0.1059 -0.4043  0.2195
 2441W        W18702   2.636   9.712   5.613  0.1990 -0.0810 -0.0919
 2442W        W18703   9.628   9.132   0.423  0.1497  0.2046  0.0237
 2443W        W18704   1.824  14.117   2.610 -0.1229  0.1021 -0.2082
 2444W        W18705   9.036   4.046  14.659  0.1529  0.1506 -0.0333
 2445W        W18706  14.717   5.780   4.690  0.1621 -0.3715  0.0812
 2446W        W18707   9.688   8.495   4.936 -0.0288 -0.0978  0.2258
 2447W        W18708  11.991   5.978  11.884 -0.1642 -0.2775  0.2253
 2448W        W18709  14.862   2.658   2.966  0.4501 -0.0602  0.3144
 2449W        W18710  15.820   5.912   3.007  0.1831 -0.2783 -0.0175
 2450W        W18711   8.109   3.640  13.081  0.0550  0.1750 -0.1867
 2451W        W18712   3.022  11.368   1.524 -0.1222 -0.4118  0.0854
 2452W        W18713   7.404   6.769  13.544 -0.2990  0.1344  0.1395
 2453W        W18714   2.199   4.112   5.658 -0.0488  0.0384  0.1378
 2454W        W18715  13.254  17.235  12.439 -0.3253  0.3409  0.1303
 2455W        W18716   2.076  14.841   0.526 -0.0542  0.0600 -0.1958
 2456W        W18717   1.425  17.806  12.834 -0.1651  0.2028 -0.1045
 2457W        W18718  10.036  10.017   4.486 -0.1367  0.2274 -0.1010
 2458W        W18719  14.317  13.156  13.840 -0.6800  0.1739 -0.1156
 2459W        W18720  11.624   7.714   1.174 -0.2014 -0.1891 -0.0689
 2460W        W18721   3.791   6.731   5.799 -0.0255 -0.1021 -0.4612
 2461W        W18722   1.037  18.393  13.954  0.1455 -0.1261  0.1083
 2462W        W18723   0.168   2.218   0.080 -0.0762 -0.0933 -0.1287
 2463W        W18724   0.232  17.048   1.726  0.2167  0.0500  0.1483
 2464W        W18725  12.860  15.733  10.590 -0.1641 -0.0563 -0.2479
 2465W        W18726   2.860   1.106   5.100 -0.0948  0.1690 -0.1236
 2466W        W18727   9.925  16.553  14.980  0.2736  0.0882 -0.1966
 2467W        W18728   1.460  12.210  13.531 -0.2502 -0.0146  0.2689
 2468W        W18729  16.067  12.154  13.102 -0.1765 -0.1671  0.1132
 2469W        W18730   2.130   6.527  14.751 -0.2155 -0.0970  0.0310
 2470W        W18731  15.889  16.615  15.660 -0.1501  0.0657 -0.0630
 2471W        W18732  16.046  18.378   0.653 -0.0072  0.1781 -0.0364
 2472W        W18733   4.215  18.106  11.728  0.0727 -0.1117 -0.1539
 2473W        W18734   2.330   7.027  14.923  0.0202  0.0121 -0.1613
 2474W        W18735   3.589   5.533   1.929  0.0757 -0.0160  0.1465
 2475W        W18736   3.514  15.930   0.727 -0.0634 -0.2213 -0.0029
 2476W        W18737  10.229  12.651  15.628 -0.2078  0.1711 -0.1185
 2477W        W18738   4.851   4.398   1.116 -0.1950 -0.1742  0.2176
 2478W        W18739   9.311   0.912  12.602  0.0204  0.1005 -0.2799
 2479W        W18740   9.377   2.760  11.412 -0.1830  0.0667  0.0409
 2480W        W18741   0.283  10.827   2.886 -0.2870  0.0025 -0.3478
 2481W        W18742  14.044   2.919   4.929 -0.0142 -0.1372 -0.0203
 2482W        W18743   1.164   7.013  15.467 -0.0022 -0.3070  0.0165
 2483W        W18744   2.328   1.377  13.894  0.0633 -0.0706  0.1297
 2484W        W18745  14.376   5.320   4.248  0.0838  0.1439 -0.0339
 2485W        W18746   6.195  10.839  13.526  0.0014 -0.2355 -0.1706
 2486W        W18747   6.919  10.874  12.920 -0.0826 -0.1210  0.0221
 2487W        W18748   3.201   5.545   1.525  0.0416  0.0222 -0.3398
 2488W        W18749   6.600   6.423   4.602 -0.2204  0.2262 -0.0162
 2489W        W18750   2.270   2.589   3.011  0.1142 -0.1925 -0.0669
 2490W        W18751   6.088  16.709   1.376  0.0606 -0.1162 -0.1386
 2491W        W18752   6.948   9.663   0.656 -0.3169  0.1137  0.0513
 2492W        W18753   6.998  17.862  12.588 -0.3602  0.0206  0.1070
 2493W        W18754   0.235   0.373  12.538  0.7694  0.2401 -0.4383
 2494W        W18755   9.711  10.606  15.113 -0.1720  0.2233 -0.2946
 2495W        W18756  15.383   1.031   1.212  0.0784  0.0721 -0.1112
 2496W        W18757  18.219   3.539   4.436  0.0016 -0.2000 -0.3266
 2497W        W18758   1.523   1.353   1.405  0.3920 -0.0259  0.1018
 2498W        W18759  12.398   6.827   3.214  0.0034 -0.2189 -0.0485
 2499W        W18760  12.530  11.818   3.158 -0.1715 -0.0005  0.0806
 2500W        W18761  11.188   6.951   4.059  0.0854 -0.1306 -0.0399
 2501W        W18762  12.787   4.267   3.637 -0.3088 -0.3376  0.0974
 2502W        W18763  10.293   8.476  13.368 -0.1082  0.2928 -0.1311
 2503W        W18764   2.147  11.064   0.208  0.4080  0.1443  0.2019
 2504W        W18765  15.095  12.047   3.263  0.0791  0.5149  0.0173
 2505W        W18766  16.449   3.682  15.428  0.2156 -0.1501  0.1484
 2506W        W18767   4.069  17.506   4.122 -0.0062  0.0725  0.0528
 2507W        W18768   5.747  12.334   0.584  0.2655 -0.0567 -0.1312
 2508W        W18769  13.249   6.877   3.118 -0.2000 -0.1625  0.0319
 2509W        W18770  12.798  13.030  14.489 -0.2514 -0.0988 -0.2839
 2510W        W18771   1.822   2.371  11.584  0.2174  0.0886 -0.1333
 2511W        W18772  12.509  16.543  10.815  0.1761 -0.2121 -0.2354
 2512W        W18773   6.038   7.690   2.774  0.0895 -0.1672  0.1069
 2513W        W18774  11.598   4.034   3.962  0.2966 -0.0834 -0.5821
 2514W        W18775   5.286  10.961   3.792 -0.1783  0.2471 -0.1127
 2515W        W18776  11.904  17.481  12.543  0.0300  0.1278  0.0461
 2516W        W18777  17.467   3.536   2.957 -0.1737 -0.0299  0.0214
 2517W        W18778   8.429   0.661  12.228 -0.0822  0.0794 -0.3497
 2518W        W18779  11.255  11.358  12.563 -0.1378  0.0747  0.0127
 2519W        W18780   9.821   1.171   4.347  0.2600  0.0000 -0.2156
 2520W        W18781  15.825  13.100  13.744  0.0777 -0.2169 -0.1362
 2521W        W18782   6.286  13.705   3.795 -0.1347  0.2479 -0.2589
 2522W        W18783   9.922   1.964  14.277 -0.0918  0.0542 -0.0105
 2523W        W18784   0.198   6.308  11.423 -0.0880 -0.0639 -0.0533
 2524W        W18785   0.055   7.539  15.927 -0.3530  0.0706  0.0260
 2525W        W18786   0.614   8.329   4.999  0.2749 -0.1271  0.2350
 2526W        W18787   6.330   8.112   0.300 -0.1093 -0.1170 -0.0933
 2527W        W18788   3.172   3.523  13.374  0.1285  0.0199 -0.1714
 2528W        W18789  18.224  10.962  13.729  0.1286 -0.0724  0.1266
 2529W        W18790  13.822   5.494   5.247  0.3021  0.2179  0.2386
 2530W        W18791   8.338  15.308  15.741 -0.0982  0.3149 -0.1786
 2531W        W18792  18.191  14.447  13.858 -0.3077  0.0587  0.1727
 2532W        W18793  17.594   2.687  15.601  0.1787  0.1200  0.4022
 2533W        W18794   1.983  15.015   5.007 -0.0366  0.4284 -0.0018
 2534W        W18795  14.470   4.101   3.111 -0.2983 -0.2084  0.0156
 2535W        W18796  15.608   5.807   1.459  0.1290 -0.0152  0.1456
 2536W        W18797   6.955  12.108   0.585 -0.1571 -0.0451 -0.0077
 2537W        W18798  16.067  10.274  15.524  0.1057 -0.0123  0.2150
 2538W        W18799   5.476  17.891   5.090  0.1990  0.1349  0.0726
 2539W        W18800   1.349   4.247   5.563  0.2643  0.1286 -0.1151
 2540W        W18801   3.791   1.528   6.244  0.1437 -0.1849  0.3420
 2541W        W18802  16.798   3.741   4.667  0.0080 -0.1000 -0.0018
 2542W        W18803   9.816   7.853   3.948  0.1891 -0.2938  0.1046
 2543W        W18804   6.700  13.656   3.433  0.0831 -0.2036 -0.0883
 2544W        W18805  12.929   9.028  13.029  0.3610  0.2121 -0.0861
 2545W        W18806  11.907  10.142   0.960  0.1144  0.1125  0.0697
 2546W        W18807   2.200   6.799   4.998  0.2346 -0.3477 -0.3001
 2547W        W18808  13.968  12.792  10.740  0.0150  0.2818 -0.2302
 2548W        W18809   8.055   0.987   3.357  0.0123  0.0264  0.2984
 2549W        W18810  11.896   8.672  15.211 -0.0416  0.1790 -0.0912
 2550W        W18811   2.660   8.634   4.705  0.0655  0.1457  0.1202
 2551W        W18812  11.815  17.715  11.110  0.0249  0.0264  0.2990
 2552W        W18813  10.976   2.557   0.751 -0.0752 -0.0755  0.0127
 2553W        W18814   0.844   9.580   1.418  0.4263  0.1648 -0.4812
 2554W        W18815   7.799   8.228  13.897 -0.0991 -0.1260  0.3617
 2555W        W18816   9.169   3.502  14.466 -0.0356 -0.1242 -0.1318
 2556W        W18817   1.713   4.541   5.671  0.1285  0.3688  0.2473
 2557W        W18818  17.699   5.526  12.348 -0.2526  0.0834 -0.0944
 2558W        W18819   4.821   3.157  13.117  0.0337 -0.0362 -0.3273
 2559W        W18820  11.242  17.481   2.084 -0.2510 -0.0548  0.2270
 2560W        W18821  17.496  10.895  12.230 -0.0964 -0.1713  0.3211
 2561W        W18822  13.817   5.993   4.577 -0.2193  0.0060  0.0080
 2562W        W18823  11.657   1.065   3.233 -0.2028  0.1650 -0.2397
 2563W        W18824   1.000   7.720  13.910 -0.3919 -0.1320 -0.0265
 2564W        W18825   6.255   4.803   5.111  0.2978 -0.0834 -0.1745
 2565W        W18826  16.937   0.289   0.518  0.0525  0.0171  0.1455
 2566W        W18827   4.619   0.696   0.578  0.0850  0.1653  0.3013
 2567W        W18828  13.371   6.817   2.497 -0.1083 -0.1733  0.1718
 2568W        W18829   9.987  12.861  14.002  0.1972  0.0297 -0.3233
 2569W        W18830   9.817  11.310  15.274 -0.1264  0.1762  0.2645
 2570W        W18831   8.222   6.632  11.801 -0.0522 -0.1082 -0.1279
 2571W        W18832  17.664  16.674   4.583 -0.0664 -0.0424  0.0584
 2572W        W18833   0.764  12.755  14.226 -0.1806  0.1100  0.2189
 2573W        W18834   9.965  14.291   0.852 -0.1555  0.1332  0.0203
 2574W        W18835   6.904  16.543  15.990 -0.4701  0.1664  0.0291
 2575W        W18836  11.389  14.999   2.894  0.0644 -0.0959  0.1420
 2576W        W18837  12.291  17.163   1.619 -0.0879  0.0539 -0.0362
 2577W        W18838  13.789  16.727  11.504 -0.2860  0.5139 -0.2530
 2578W        W18839  15.954  15.050   5.472  0.0590 -0.1930 -0.0715
 2579W        W18840  14.278   0.120  14.336 -0.0807 -0.0909 -0.2059
 2580W        W18841  12.394   9.365  15.364 -0.0781  0.1795  0.1723
 2581W        W18842   7.827  11.280  13.559 -0.0189 -0.0555 -0.2023
 2582W        W18843   7.050   8.877   4.187  0.0154  0.0315  0.1686
 2583W        W18844   5.102   5.548  12.346 -0.0879 -0.0778  0.0641
 2584W        W18845  12.919   9.108   4.454 -0.1059  0.3064  0.0639
 2585W        W18846  16.554   8.117  12.263  0.1685 -0.4692  0.0675
 2586W        W18847   0.663   9.681  12.296 -0.0805  0.0320  0.0471
 2587W        W18848   9.483  17.727   3.297 -0.1016  0.1741  0.1168
 2588W        W18849   4.258  10.255  15.836  0.0025 -0.0697  0.0245
 2589W        W18850   4.645  11.393   0.719 -0.1914 -0.2184  0.0151
 2590W        W18851  17.280   9.347  12.066 -0.2042  0.1828  0.2270
 2591W        W18852   2.862  13.330  11.801 -0.3471 -0.0563  0.1852
 2592W        W18853  12.496   9.585   1.426 -0.2299 -0.1185 -0.0299
 2593W        W18854  10.436  17.876  11.831 -0.1600  0.0999  0.2782
 2594W        W18855  15.296  14.606   1.696 -0.0379 -0.1094  0.0681
 2595W        W18856  12.830  16.960  13.852  0.0801  0.0513  0.2992
 2596W        W18857  18.293   3.348  11.586  0.1339  0.1633 -0.3371
 2597W        W18858  15.547  18.456  13.810  0.1842  0.0664 -0.0851
 2598W        W18859   5.023   9.924   4.307 -0.0149 -0.0022 -0.2335
 2599W        W18860   0.595  12.776   3.104 -0.0866 -0.1861 -0.0139
 2600W        W18861   0.892   5.031  16.042  0.1593 -0.2227  0.1854
 2601W        W18862  15.685   4.819   2.078  0.3331  0.0261 -0.1434
 2602W        W18863  14.828   7.258   1.841  0.1735  0.0665 -0.1502
 2603W        W18864   8.889   6.845  12.368 -0.0891 -0.1035 -0.0171
 2604W        W18865   5.504   3.405   0.237  0.1064  0.0464  0.5285
 2605W        W18866   6.602   6.665   3.231  0.0139  0.2975 -0.0980
 2606W        W18867  16.879  11.720  13.000  0.0191 -0.0593  0.0250
 2607W        W18868   5.667   6.937   3.925  0.2590 -0.2718 -0.1850
 2608W        W18869  14.090   8.150  15.600 -0.0713 -0.0083  0.1045
 2609W        W18870   6.775  12.966   0.350  0.2385  0.2286 -0.2524
 2610W        W18871  14.233   5.222  15.728  0.1236 -0.1400 -0.2827
 2611W        W18872  16.668   6.444   1.037 -0.0506 -0.1055  0.2734
 2612W        W18873  17.965   4.120  14.993 -0.0097 -0.0909  0.0050
 2613W        W18874   2.279  15.426   1.746  0.4141 -0.0854 -0.0865
 2614W        W18875  13.638  13.508   2.337  0.1817  0.2468 -0.2047
 2615W        W18876   5.541   5.982   3.832  0.1975 -0.2767 -0.4980
 2616W        W18877   5.737  10.727  15.063  0.5216 -0.1361 -0.0886
 2617W        W18878  10.774   7.039  15.503  0.0433  0.0071 -0.1161
 2618W        W18879  15.654   4.336   2.669 -0.1759 -0.0377 -0.0287
 2619W        W18880  17.950   2.578  15.160  0.0788  0.2713 -0.1127
 2620W        W18881  18.080   7.470  13.880 -0.0424 -0.0699 -0.0273
 2621W        W18882   4.354   4.446   5.723 -0.0862  0.2818 -0.0152
 2622W        W18883  15.662   8.343  12.036  0.1751 -0.1922  0.1226
 2623W        W18884  16.990   6.154   0.107 -0.1651 -0.0807  0.1810
 2624W        W18885  12.280   6.888  11.155  0.2190  0.1007 -0.0997
 2625W        W18886   6.411  13.427   0.116 -0.1044 -0.1016 -0.1267
 2626W        W18887   5.853  15.599   0.300  0.2616 -0.0440  0.1135
 2627W        W18888   4.656   2.829   0.702 -0.0117 -0.0976  0.0241
 2628W        W18889  17.833  13.897   3.122  0.0646 -0.2546  0.1043
 2629W        W18890  11.771  17.354   2.285 -0.0688 -0.1962 -0.1630
 2630W        W18891   5.681  12.226  13.470  0.0462 -0.1932 -0.1140
 2631W        W18892   9.188  16.633  10.970  0.0366 -0.2194 -0.1840
 2632W        W18893  16.594   8.940  13.186 -0.0891  0.2444  0.1407
 2633W        W18894  13.986   4.021  12.515  0.1566 -0.1020  0.0811
 2634W        W18895  15.065   4.620  14.647  0.0846  0.2328  0.1589
 2635W        W18896  10.959   0.219  10.024 -0.0429 -0.4616 -0.0285
 2636W        W18897   4.929  17.992   4.876 -0.0163 -0.0360  0.1194
 2637W        W18898   1.211  10.994  14.042  0.2325 -0.1764 -0.0903
 2638W        W18899   3.582  15.478   3.539 -0.1777 -0.1463 -0.1937
 2639W        W18900   4.672   3.892  15.736 -0.1339 -0.2637  0.0432
 2640W        W18901  16.991  17.673  12.567  0.2565  0.0990  0.0909
 2641W        W18902   2.717   7.455   5.079 -0.0435  0.0881  0.1680
 2642W        W18903   2.314   5.018  13.556  0.0222 -0.0697  0.2541
 2643W        W18904  17.944  11.718   2.223 -0.2822 -0.1090  0.0139
 2644W        W18905   5.802  15.133  12.028 -0.1463 -0.2552  0.2963
 2645W        W18906   0.150   0.853   2.190  0.2686  0.0697 -0.0042
 2646W        W18907  12.102  17.271  15.134  0.5778 -0.0805 -0.2428
 2647W        W18908  15.918   9.031  16.024  0.0789 -0.0498  0.0903
 2648W        W18909   6.595   3.567  14.715 -0.2186 -0.0912 -0.2504
 2649W        W18910  15.004   8.826  10.024  0.0208 -0.2827  0.0667
 2650W        W18911   1.892   6.334   5.093  0.2522 -0.2738  0.1846
 2651W        W18912  15.799   9.148   4.265 -0.1203  0.2136  0.2677
 2652W        W18913  12.017   2.979  14.358 -0.0357  0.1851 -0.0272
 2653W        W18914  18.299  10.058   4.546  0.2786 -0.0042 -0.0481
 2654W        W18915  17.729   1.372  13.348  0.2018  0.1191 -0.0068
 2655W        W18916  13.877   5.093  11.603 -0.0272  0.2167  0.0152
 2656W        W18917   1.092   5.798   6.133 -0.3120  0.1133 -0.2734
 2657W        W18918  12.886   2.454  10.192 -0.0049  0.3227  0.1512
 2658W        W18919   2.706   3.263  16.076  0.1695  0.2083  0.1447
 2659W        W18920   8.221  11.713  14.384 -0.1862 -0.2279  0.1300
 2660W        W18921   2.880  13.354  14.067  0.0910 -0.1683  0.2468
 2661W        W18922  12.556   4.418  12.697  0.0327 -0.3605 -0.0322
 2662W        W18923   0.263  13.477  14.108  0.0881  0.0971 -0.1108
 2663W        W18924   8.308   8.640   0.235  0.1433  0.0760 -0.2328
 2664W        W18925  11.016   0.033  16.175 -0.1014  0.3136 -0.1847
 2665W        W18926   1.381  11.486   4.565 -0.0164  0.1561  0.1307
 2666W        W18927   1.453   1.614  14.511 -0.0769  0.2696  0.0121
 2667W        W18928   1.654   7.466  12.253  0.2364 -0.3279 -0.0352
 2668W        W18929  11.420  13.755  13.582  0.0652 -0.0753  0.0164
 2669W        W18930   3.021  16.187   3.166  0.0746 -0.1966  0.2317
 2670W        W18931  15.567  15.382   2.472  0.1159  0.0042  0.2465
 2671W        W18932   1.859   1.691   3.070  0.0869  0.3589 -0.0150
 2672W        W18933   6.478  12.517  16.032  0.1235  0.2599 -0.2758
 2673W        W18934   8.168  12.016   3.732  0.0441  0.1888 -0.0951
 2674W        W18935  13.309   2.720  12.719 -0.0267  0.1582 -0.2484
 2675W        W18936  14.778  16.877  10.726  0.0487  0.2126  0.0521
 2676W        W18937  13.016   6.474  15.996  0.2089 -0.2473  0.0481
 2677W        W18938   6.119   7.168   0.554 -0.2126 -0.5898  0.0781
 2678W        W18939   2.067  17.391   1.647 -0.1009 -0.0563 -0.3851
 2679W        W18940  16.328   7.306   0.754  0.2599  0.0379 -0.4231
 2680W        W18941   4.497  11.218   3.642 -0.0215 -0.0038  0.1498
 2681W        W18942   9.262  15.102  14.182 -0.3502 -0.2476 -0.0899
 2682W        W18943   4.509   3.881  13.873  0.0752  0.0537  0.1651
 2683W        W18944  14.640  16.195   4.479  0.0884 -0.0718  0.1063
 2684W        W18945  13.765  14.976  11.208 -0.1553  0.1910  0.2170
 2685W        W18946   3.235   2.694  12.454 -0.1338 -0.3346  0.3197
 2686W        W18947   8.816  12.670   3.931  0.2983 -0.1810  0.0979
 2687W        W18948  17.556   3.767   0.125 -0.0152 -0.1051 -0.2401
 2688W        W18949   1.091   7.197   2.435 -0.7104 -0.0747  0.3378
 2689W        W18950   5.775  14.854   5.910 -0.0284  0.1993  0.3861
 2690W        W18951   1.885   3.687   5.008  0.1070 -0.3498  0.0562
 2691W        W18952   1.249   9.738   2.434  0.1718 -0.0968  0.0890
 2692W        W18953   3.470  12.174   1.578 -0.0050  0.0353  0.2943
 2693W        W18954  11.693  11.457  10.993  0.3731 -0.2297 -0.1349
 2694W        W18955   0.191  17.645  15.992 -0.0419  0.2319  0.3475
 2695W        W18956   2.777  17.475   0.604 -0.0657 -0.0304  0.2467
 2696W        W18957   7.379   7.255   4.140  0.0591 -0.0808  0.0990
 2697W        W18958   7.685  12.351   2.806  0.1831  0.1411 -0.0246
 2698W        W18959  10.631   2.238  12.650  0.1401 -0.0548 -0.1335
 2699W        W18960  17.984   3.229   5.823  0.2557  0.0095  0.3560
 2700W        W18961   3.972   6.378   1.007  0.2964  0.0593  0.0187
 2701W        W18962   7.656  10.475   3.501  0.0687  0.1783  0.1674
 2702W        W18963  16.445   9.428   0.378 -0.3017 -0.0356  0.0910
 2703W        W18964  12.937  18.309  15.740  0.1138 -0.4582 -0.0349
 2704W        W18965   7.701   4.076  13.665  0.2558  0.3001  0.1017
 2705W        W18966   5.320   5.376   4.405 -0.0445 -0.1887 -0.1596
 2706W        W18967  10.702   5.740  12.965  0.1754  0.0221  0.0565
 2707W        W18968   5.055  17.776   3.852 -0.1517 -0.0574 -0.2801
 2708W        W18969   8.115   4.499  11.826 -0.0088 -0.3687 -0.0486
 2709W        W18970   5.167   0.161  15.383  0.2456  0.0598  0.2384
 2710W        W18971  13.840   9.199   0.867 -0.0893  0.1923  0.2019
 2711W        W18972   6.315  16.424   2.827 -0.0335 -0.0327 -0.3294
 2712W        W18973  15.407   8.955  14.849 -0.1220 -0.0418 -0.2444
 2713W        W18974  12.545   2.850   3.129 -0.3002 -0.1676 -0.1079
 2714W        W18975   3.529  12.228  13.528  0.2715 -0.0939  0.1997
 2715W        W18976  12.093  11.076   0.299 -0.0321  0.0168  0.0030
 2716W        W18977  18.041  13.912  11.275 -0.0204 -0.3304 -0.2375
 2717W        W18978  17.295   4.659  16.171 -0.0557  0.0214  0.2632
 2718W        W18979  16.279  10.388  12.242 -0.0517 -0.0493 -0.0124
 2719W        W18980  16.476   7.116   5.243  0.1996 -0.2168 -0.1460
 2720W        W18981  11.681  11.537  12.969  0.4129 -0.1409  0.0997
 2721W        W18982   1.711   9.046  10.959  0.0803 -0.1350 -0.1283
 2722W        W18983  17.332   7.022   4.991 -0.1985  0.0126  0.1653
 2723W        W18984   4.799   7.122  11.213  0.0748 -0.0202  0.1259
 2724W        W18985   2.988   1.947  14.902  0.1386  0.1394  0.1315
 2725W        W18986   4.597   5.309   5.632 -0.0030  0.1091 -0.1948
 2726W        W18987   8.287  14.126   2.548 -0.2221 -0.0616 -0.1253
 2727W        W18988   3.918  15.377  12.249  0.3230 -0.1393  0.0926
 2728W        W18989   3.822   3.145   3.910 -0.0071  0.2704  0.2179
 2729W        W18990  15.850   7.074   3.839  0.2361 -0.1293  0.0774
 2730W        W18991  17.386   4.342  13.381  0.0290  0.0373  0.0434
 2731W        W18992   1.627  15.038  15.701 -0.0647  0.1361 -0.4223
 2732W        W18993  12.472   7.085   4.076  0.0614  0.0429 -0.2172
 2733W        W18994  17.979   6.171   4.574  0.2864 -0.0317 -0.0316
 2734W        W18995  17.586  15.020  12.093 -0.2499  0.2768 -0.0539
 2735W        W18996  16.507   8.961   6.160  0.1094 -0.0533  0.3795
 2736W        W18997   0.806   1.402   0.270  0.0452  0.0102 -0.0876
 2737W        W18998   1.526   5.592   6.013  0.4640  0.0653 -0.0771
 2738W        W18999  11.293   8.925   3.863  0.2670 -0.0706 -0.0762
 2739W        W19000  12.384   7.348  11.502  0.3649  0.0362 -0.0230
 2740W        W19001  12.985  12.162   4.468  0.2002  0.1024 -0.1217
 2741W        W19002  12.810  10.011   4.141 -0.0241 -0.1422 -0.1822
 2742W        W19003   6.778  12.630   3.390  0.1029  0.0610 -0.0059
 2743W        W19004  13.184  16.224   5.325 -0.4402  0.0644  0.0971
 2744W        W19005   6.056  13.262  13.197 -0.2485 -0.0368  0.1863
 2745W        W19006  14.125  17.182   1.638  0.2174  0.1109 -0.1245
 2746W        W19007   0.812  12.404   1.577  0.0400  0.0267  0.0942
 2747W        W19008   2.522  16.379  15.276 -0.1656 -0.0040 -0.0657
 2748W        W19009   4.822  12.683  13.016  0.0222 -0.2475 -0.1156
 2749W        W19010   7.983   5.234  14.518 -0.3012 -0.1063 -0.1827
 2750W        W19011  16.096   4.406   0.655  0.3319  0.2313 -0.1654
 2751W        W19012  13.418   5.515   0.948  0.0437 -0.0346  0.0995
 2752W        W19013   6.176  16.271  15.432  0.0764 -0.1919 -0.2828
 2753W        W19014   1.267   7.523   4.358  0.1088 -0.3888  0.0844
 2754W        W19015   3.460   4.111   2.360 -0.0932  0.0429 -0.3466
 2755W        W19016   0.549  17.855  13.571  0.2003  0.0953  0.0258
 2756W        W19017   3.021   2.543  11.226  0.0569 -0.1133 -0.2417
 2757W        W19018  10.297  12.024   2.322 -0.1034 -0.1629 -0.0982
 2758W        W19019   5.781   9.451   2.834  0.2543  0.0520 -0.0488
 2759W        W19020  16.413   2.621  12.554  0.3349  0.3538  0.2436
 2760W        W19021   2.497  14.748   3.627  0.1779  0.0461  0.1111
 2761W        W19022   2.099  16.486   4.095 -0.0391 -0.1999  0.0709
 2762W        W19023  10.819   6.243  14.791  0.2596 -0.2094  0.2092
 2763W        W19024  16.991   5.498   1.717  0.1559  0.0874  0.1039
 2764W        W19025   3.081  16.256  11.800 -0.1966  0.1834  0.0121
 2765W        W19026   2.607  11.440  13.792  0.0557  0.1120 -0.0962
 2766W        W19027   6.988   1.879   3.959 -0.1625 -0.0713  0.1446
 2767W        W19028  10.579  13.437  15.042  0.1200 -0.4000 -0.3108
 2768W        W19029  11.394   7.975  14.625 -0.0673 -0.0560 -0.0631
 2769W        W19030   4.073  11.159  14.484 -0.1613  0.3548 -0.0184
 2770W        W19031   7.502  13.178   2.960 -0.0905  0.1558 -0.4206
 2771W        W19032  17.987  10.850  12.342 -0.0980 -0.2634  0.0349
 2772W        W19033   1.182  12.941   0.751  0.0645  0.1263 -0.1121
 2773W        W19034   4.027   4.036   5.384  0.0109  0.1959  0.1588
 2774W        W19035   7.181  18.208  15.403 -0.1597 -0.1044  0.1072
 2775W        W19036   0.703   9.671   1.981 -0.1577 -0.0833  0.2453
 2776W        W19037   7.129   2.874  14.223 -0.3168  0.3995 -0.1649
 2777W        W19038   1.427  14.573  14.391  0.5140 -0.0290 -0.0993
 2778W        W19039  15.531   1.087   4.004  0.0751 -0.0065  0.1202
 2779W        W19040   2.326   8.941   5.548 -0.1846  0.1154 -0.1388
 2780W        W19041  18.241   2.785   4.067 -0.3726  0.0834  0.0219
 2781W        W19042   6.016   9.808  12.705  0.0641 -0.0868 -0.1294
 2782W        W19043  10.052  17.452   1.038  0.1759 -0.3685  0.2115
 2783W        W19044   9.619  12.960   0.512  0.2075 -0.1240 -0.0510
 2784W        W19045  15.371   7.851   1.364  0.0687 -0.2721  0.1459
 2785W        W19046  16.408   0.227   1.828  0.0726 -0.1887 -0.0854
 2786W        W19047   0.398   9.817   0.176  0.0654 -0.0242 -0.0841
 2787W        W19048   2.737  17.963   0.485  0.2801 -0.2548  0.0228
 2788W        W19049   8.086   1.139  13.156 -0.0206 -0.0053 -0.1267
 2789W        W19050   4.406  14.965  13.051 -0.0747 -0.1393  0.1554
 2790W        W19051   6.095   0.970  14.658  0.0518 -0.0928  0.0568
 2791W        W19052   4.284   8.837   4.239 -0.0517 -0.0374  0.0284
 2792W        W19053  10.068  17.616  15.760 -0.1818  0.1282  0.3852
 2793W        W19054  17.304   6.614  11.991 -0.0567  0.0396  0.3591
 2794W        W19055  10.312  14.330   2.735  0.2696  0.0394  0.0917
 2795W        W19056  10.072  14.990  11.203  0.2911 -0.3177 -0.1945
 2796W        W19057   1.164   7.175   3.987 -0.0068 -0.1863  0.1842
 2797W        W19058   4.741   4.869   1.235 -0.0155  0.1865  0.0641
 2798W        W19059  15.210   6.681  13.907 -0.0008 -0.0014  0.5137
 2799W        W19060   3.838  11.795  11.518  0.1070  0.3232 -0.1597
 2800W        W19061  14.457  17.917   0.478 -0.0915  0.3133 -0.2456
 2801W        W19062  18.113   3.344  14.659  0.1998  0.3672 -0.3376
 2802W        W19063  11.324   1.919   1.238  0.1938  0.2724  0.1611
 2803W        W19064  11.858   3.435  12.044  0.2057 -0.0612  0.2787
 2804W        W19065   5.327   9.985   4.701  0.0202 -0.1050 -0.2951
 2805W        W19066   9.743   9.115  15.344  0.0152 -0.0371 -0.1657
 2806W        W19067  18.275   0.532   1.970 -0.0554 -0.2036  0.1576
 2807W        W19068  15.874   6.172   3.518 -0.0100 -0.1403 -0.0954
 2808W        W19069  18.445  15.818  12.756  0.1705 -0.0903 -0.1985
 2809W        W19070   4.599  16.470  11.641 -0.1037  0.0041  0.0705
 2810W        W19071   0.322   7.935  15.820 -0.4563 -0.1150 -0.0698
 2811W        W19072   1.897   1.929   2.022 -0.0110  0.3024 -0.0016
 2812W        W19073  12.377  14.513  15.537 -0.0277 -0.0081 -0.2369
 2813W        W19074   9.774   9.471   5.632 -0.0805 -0.0063  0.1136
 2814W        W19075   1.966   1.412   5.184 -0.1334 -0.3546  0.1606
 2815W        W19076   9.127   6.030  10.377 -0.0617 -0.2302 -0.2217
 2816W        W19077   2.022   7.345   2.654  0.0837  0.0942 -0.0221
 2817W        W19078  12.597  11.653  11.333  0.4064  0.3067  0.1268
 2818W        W19079   9.719   6.628  12.883 -0.0698  0.0283  0.4192
 2819W        W19080   2.018   0.075   3.847 -0.2059  0.2478  0.0794
 2820W        W19081  12.397  14.073  12.255  0.2120  0.3251 -0.0572
 2821W        W19082  12.460  14.022  11.711  0.1314  0.0192 -0.2114
 2822W        W19083   6.185  13.767  14.632 -0.0732  0.2577  0.1091
 2823W        W19084  13.508  11.725   4.047  0.1115 -0.1011 -0.4332
 2824W        W19085  14.193   3.414  15.611 -0.1576  0.1042 -0.1530
 2825W        W19086  11.881   5.640  14.669 -0.0923  0.0871  0.0949
 2826W        W19087  14.273  11.645  13.094  0.1214  0.0942  0.1557
 2827W        W19088  16.845  17.237   4.237 -0.2537 -0.1676  0.1345
 2828W        W19089  16.537   8.236  16.046 -0.3136  0.0527  0.1434
 2829W        W19090   7.866   8.807   4.664 -0.0930 -0.3228 -0.2113
 2830W        W19091  16.397  11.962   1.951 -0.0533 -0.2382  0.4146
 2831W        W19092   6.530  11.189  14.585  0.1110  0.0480  0.0924
 2832W        W19093  15.880  16.103  13.487 -0.0205 -0.0081 -0.0201
 2833W        W19094   8.630  16.307   5.169  0.3952 -0.0578 -0.2076
 2834W        W19095  13.778  13.081   0.957 -0.5873 -0.0632 -0.1203
 2835W        W19096   0.398   2.101  12.738  0.1386 -0.0706  0.0322
 2836W        W19097   0.156  12.597  14.108  0.1142 -0.2275  0.1457
 2837W        W19098   7.492  15.095  14.616 -0.0266 -0.1460 -0.2426
 2838W        W19099   8.269   8.754   6.172  0.2316  0.0667 -0.2499
 2839W        W19100   2.173   7.803   3.816  0.3800  0.1541  0.1194
 2840W        W19101  17.015   9.422  15.045  0.1513  0.0674  0.1238
 2841W        W19102  15.638   6.158   5.282  0.0233 -0.2440  0.0599
 2842W        W19103  17.113   6.110   2.372 -0.2558  0.1325 -0.1266
 2843W        W19104   7.080   5.215   2.372  0.2270 -0.0560  0.1680
 2844W        W19105  14.733   2.639   1.659 -0.2080  0.3169 -0.3977
 2845W        W19106  17.418  13.783   0.771  0.1144 -0.1609 -0.3598
 2846W        W19107   7.847  17.846   5.241 -0.0438  0.2916  0.0166
 2847W        W19108   3.227  13.536  15.637 -0.0221 -0.2542 -0.1582
 2848W        W19109   0.081  16.840   0.904 -0.2266 -0.0780 -0.0838
 2849W        W19110   3.557  18.034   0.240 -0.2635 -0.1171 -0.0962
 2850W        W19111   9.897   4.732  13.043  0.1229 -0.2383  0.0644
 2851W        W19112  13.837   4.147   4.041 -0.1615  0.3518  0.2607
 2852W        W19113  16.341  18.425  12.483  0.3268 -0.1485 -0.0027
 2853W        W19114  13.701   6.625  13.408  0.0105 -0.2398 -0.1296
 2854W        W19115   5.658  16.303   5.635 -0.0304  0.1880  0.1934
 2855W        W19116  17.958   0.997   5.412 -0.1036 -0.0073  0.2256
 2856W        W19117   0.467   4.430  14.799  0.0493 -0.3873 -0.4119
 2857W        W19118   2.718  15.958  15.540  0.1663  0.0805  0.0266
 2858W        W19119  10.235   1.102  13.421  0.2468 -0.1666  0.0453
 2859W        W19120  17.139  17.181  13.245  0.0400 -0.1492 -0.3981
 2860W        W19121  17.433  13.232   2.067  0.0735  0.0654  0.0014
 2861W        W19122   3.651  10.838   4.574 -0.3256 -0.3335 -0.2220
 2862W        W19123   0.462   9.710  11.294  0.2665 -0.1026  0.0576
 2863W        W19124   3.966   8.659  13.898 -0.0769  0.2386  0.3424
 2864W        W19125   5.554   4.953   4.230  0.0092 -0.3843  0.3885
 2865W        W19126   0.251  10.571  13.947 -0.0741 -0.3332  0.2722
 2866W        W19127   2.224  13.984  14.382 -0.1696  0.3410  0.2311
 2867W        W19128   6.614  16.388  15.201  0.2608 -0.1940 -0.3064
 2868W        W19129   3.445  11.203  13.480  0.1052 -0.0737 -0.1529
 2869W        W19130   5.127  14.848   2.225 -0.0999 -0.0370  0.1338
 2870W        W19131   7.957  12.199  14.818  0.0940  0.1262 -0.3192
 2871W        W19132  17.627   9.912   3.236  0.0540  0.1827 -0.2850
 2872W        W19133   2.981   3.744   3.334  0.0317 -0.0763 -0.1459
 2873W        W19134  18.169  13.887  15.804 -0.0100 -0.0235  0.1493
 2874W        W19135  14.013  16.350  13.872 -0.0289  0.1133  0.2848
 2875W        W19136  12.207  14.434  11.799 -0.0958  0.1737 -0.0932
 2876W        W19137   4.725   4.836  12.142  0.0121  0.0759  0.0972
 2877W        W19138   3.046  11.998  14.242  0.1705  0.0237 -0.1410
 2878W        W19139   6.177   1.971   4.437  0.0348 -0.1283 -0.1222
 2879W        W19140  18.453   7.866  12.878 -0.1469 -0.2258 -0.0040
 2880W        W19141   6.620   5.848  11.674 -0.0012  0.0414  0.6408
 2881W        W19142   1.875   3.159   5.537  0.2633 -0.1505  0.2008
 2882W        W19143  17.142  18.317  15.994  0.3420  0.1665  0.0153
 2883W        W19144  12.948  16.969  13.321 -0.0576 -0.1910 -0.0820
 2884W        W19145   1.677  14.671   5.205  0.0871  0.0780  0.0500
 2885W        W19146   2.823   0.363  12.803  0.0417  0.0001 -0.1725
 2886W        W19147  11.892   8.856  12.780 -0.2490  0.0278  0.2173
 2887W        W19148  14.906  14.500   0.593  0.0503 -0.3046  0.0941
 2888W        W19149   9.460   9.745  12.631  0.2308  0.0015  0.0688
 2889W        W19150   2.466  13.119  14.328 -0.1756  0.1528  0.1770
 2890W        W19151   8.152  12.360   2.424 -0.2738 -0.2312 -0.0590
 2891W        W19152  17.288  13.957  15.725  0.1033 -0.0740  0.1287
 2892W        W19153   2.517   4.763   1.531 -0.0009 -0.4177  0.0744
 2893W        W19154  12.327  11.576  11.780  0.1910  0.1821 -0.0487
 2894W        W19155   7.606   9.225   0.616  0.1525  0.0732 -0.3099
 2895W        W19156   8.628  11.944  14.655 -0.3314 -0.5185 -0.2004
 2896W        W19157  15.006   9.506  13.304  0.2042  0.1644  0.0675
 2897W        W19158   9.369   1.721  11.481  0.3558 -0.2053  0.0123
 2898W        W19159   2.344   7.672   4.779 -0.2832 -0.1334  0.0488
 2899W        W19160   4.639   0.419   2.462 -0.1106  0.1455  0.1104
 2900W        W19161  12.675  15.406   0.533 -0.0313  0.2143  0.0817
 2901W        W19162   6.587  16.065   3.366  0.1118 -0.1658 -0.0058
 2902W        W19163  16.483   3.343   3.799  0.1733  0.1151  0.2956
 2903W        W19164  16.165   0.243   3.473  0.0236 -0.3033  0.1521
 2904W        W19165  13.034  14.684   3.858 -0.4568  0.0950 -0.0737
 2905W        W19166   3.597   9.437  15.293  0.1807  0.4054  0.0609
 2906W        W19167   6.513   2.661  15.709 -0.0448 -0.0308  0.0071
 2907W        W19168   3.668  18.357   0.622 -0.2006  0.2651 -0.1631
 2908W        W19169   0.319  12.155   0.682 -0.2261 -0.1305 -0.0729
 2909W        W19170  10.264   1.298   4.294 -0.2539  0.0077 -0.1796
 2910W        W19171   5.741  15.826   1.629 -0.0149  0.0584 -0.2985
 2911W        W19172   1.113  11.400  13.244  0.1174  0.1249  0.0834
 2912W        W19173   9.112   4.835   2.157 -0.0906  0.1753 -0.3626
 2913W        W19174  13.952   9.054  14.541 -0.0633  0.0937  0.0732
 2914W        W19175  13.966   7.179   4.363  0.1312 -0.2294 -0.0114
 2915W        W19176   9.126  14.060  15.327  0.0228 -0.1932 -0.3994
 2916W        W19177  14.148   2.754  11.499 -0.3599  0.4936 -0.1896
 2917W        W19178  17.964  14.636  12.300  0.1998 -0.1724  0.5527
 2918W        W19179  18.336  16.863   2.063 -0.2484 -0.0517  0.0004
 2919W        W19180  12.779   3.891  11.469 -0.0150  0.2331  0.0360
 2920W        W19181  12.185   0.938  13.916 -0.2206  0.0968 -0.0608
 2921W        W19182   1.319  12.391  13.093  0.1440  0.2529  0.2798
 2922W        W19183   8.052  13.080   5.419  0.2673  0.1516 -0.4744
 2923W        W19184   3.804  14.969   1.474  0.2300  0.1816  0.1502
 2924W        W19185   8.227  13.976  11.393 -0.0706  0.0878 -0.1353
 2925W        W19186   2.313  12.503   4.973  0.2243 -0.0676 -0.0823
 2926W        W19187  16.993   1.757   1.266  0.1085 -0.1018  0.0346
 2927W        W19188  17.345  10.447   2.859 -0.4254 -0.2018  0.0907
 2928W        W19189   8.011  14.225  15.949 -0.3041  0.1931 -0.0700
 2929W        W19190   9.009  13.880  13.057  0.1453 -0.3409 -0.0770
 2930W        W19191  18.247  16.683  11.749 -0.0791 -0.3004  0.1990
 2931W        W19192  10.028   6.533   1.749 -0.1981 -0.1161  0.1761
 2932W        W19193   4.390  10.338   2.231  0.1170 -0.4330 -0.0284
 2933W        W19194   7.616   7.953   0.190  0.1501  0.3204 -0.0329
 2934W        W19195   1.028  10.754   4.919  0.5543  0.2763  0.1593
 2935W        W19196   7.016   9.042   2.407 -0.1707  0.1246  0.3871
 2936W        W19197   1.736   8.860   1.090 -0.2743  0.2994 -0.3549
 2937W        W19198   2.580  12.324  14.121  0.2810  0.2656 -0.2370
 2938W        W19199   3.087   8.775   3.953 -0.2493  0.4325  0.0931
 2939W        W19200  12.357  16.353  15.750 -0.4179  0.1499 -0.1651
 2940W        W19201  11.403   3.212   0.127  0.0411  0.6495 -0.0883
 2941W        W19202  14.338  10.119  15.527  0.0694  0.3097 -0.2735
 2942W        W19203  10.904   0.748  15.435 -0.0384  0.1276 -0.3223
 2943W        W19204  11.208  12.218   5.197 -0.0748  0.0117 -0.1746
 2944W        W19205  17.618  16.604   2.779  0.2080  0.1032 -0.0736
 2945W        W19206   4.014   5.860   4.907  0.0386 -0.2573 -0.1388
 2946W        W19207  14.437   6.478   0.675 -0.0063 -0.2352 -0.2345
 2947W        W19208  15.318   6.214   6.225 -0.0538 -0.0804 -0.3701
 2948W        W19209   8.967   7.116   2.974 -0.0250 -0.1022  0.5474
 2949W        W19210   8.695   9.463  15.532  0.2540  0.0362  0.2098
 2950W        W19211   0.794  17.575  10.983  0.0328 -0.1799 -0.0118
 2951W        W19212   1.457   1.052   2.323 -0.0225 -0.4937 -0.2000
 2952W        W19213  10.216   9.676  12.936  0.1779  0.4260  0.0379
 2953W        W19214  18.410  14.499   3.004  0.0762 -0.1480  0.0635
 2954W        W19215   8.843  15.229  11.823 -0.0136  0.1525  0.3153
 2955W        W19216   7.303   2.199   2.680 -0.1673  0.1150  0.0424
 2956W        W19217  15.500   5.644   0.938 -0.0258 -0.0018  0.0760
 2957W        W19218   7.220   4.030   5.009 -0.3462 -0.1641  0.3184
 2958W        W19219   6.106   5.937  11.735 -0.0418 -0.0900  0.1942
 2959W        W19220  11.400   3.167  14.215  0.2173  0.1757  0.2418
 2960W        W19221  16.068   2.176   3.631  0.1977 -0.2132 -0.0373
 2961W        W19222  18.209  14.751  10.970 -0.4936  0.0667 -0.0158
 2962W        W19223  12.660   0.399   1.286  0.1699 -0.2791 -0.0288
 2963W        W19224  13.475   2.080   0.954 -0.0657  0.1309  0.1204
 2964W        W19225  17.718   5.033  12.544  0.2961  0.2737  0.2704
 2965W        W19226  18.398   4.699  11.527  0.1508  0.0570 -0.1602
 2966W        W19227  10.459   1.700  14.820 -0.5234  0.3043  0.0378
 2967W        W19228  12.162  15.418  11.052  0.0348  0.1874 -0.0016
 2968W        W19229   5.078   1.106  13.702 -0.0121  0.0071  0.0955
 2969W        W19230   0.989  15.854  11.773 -0.1384  0.0952  0.0553
 2970W        W19231   0.433   8.375  16.089 -0.0667 -0.2789  0.0067
 2971W        W19232  11.127   1.926  13.778 -0.1308 -0.0640  0.2934
 2972W        W19233   4.471  11.092  13.515  0.1744 -0.0795  0.4138
 2973W        W19234   0.399   3.799  14.639  0.2345 -0.3196 -0.3286
 2974W        W19235  11.596  16.294  14.427 -0.1461 -0.1323  0.0625
 2975W        W19236   4.302  12.792  15.413 -0.1744  0.1261 -0.0393
 2976W        W19237  11.554  12.459  15.486 -0.1539 -0.0393  0.1252
 2977W        W19238  18.196   8.269   0.703  0.2984 -0.1579 -0.0029
 2978W        W19239   4.433  13.763   3.917  0.0828  0.1230 -0.1626
 2979W        W19240   5.294  16.690   4.718 -0.1220 -0.4857  0.0837
 2980W        W19241  12.289  13.599  12.166 -0.2369  0.0330 -0.4060
 2981W        W19242   4.635  11.683   3.321 -0.1326  0.3905  0.0708
 2982W        W19243  16.623   2.337   3.334 -0.2615  0.1308 -0.0728
 2983W        W19244   5.163  12.959  12.259  0.0766 -0.0552 -0.0847
 2984W        W19245   9.055   5.670  12.026  0.0732 -0.0070 -0.3981
 2985W        W19246   6.750   7.889   3.916 -0.0346  0.1830 -0.3587
 2986W        W19247   1.882  15.580  15.027 -0.0152 -0.0409  0.0245
 2987W        W19248   1.483   0.541  11.244 -0.2975 -0.0298 -0.1870
 2988W        W19249   4.415  15.271   0.462  0.2270  0.0382  0.0652
 2989W        W19250  16.952  15.083  15.679 -0.2979 -0.5346  0.1759
 2990W        W19251   5.309  13.723  15.709 -0.3897  0.0987 -0.1948
 2991W        W19252   9.350  12.195   2.381 -0.0198  0.2983 -0.2022
 2992W        W19253   6.732  17.546  16.074  0.4286  0.0367 -0.0629
 2993W        W19254   6.288   7.972   3.760  0.0307 -0.1361 -0.2615
 2994W        W19255   5.042   1.564   4.151 -0.2818 -0.0176 -0.0407
 2995W        W19256   1.061   7.120   2.969 -0.1497  0.1690 -0.3132
 2996W        W19257   0.177   7.764   1.336 -0.0730 -0.2956 -0.5499
 2997W        W19258   5.989   4.819   3.374  0.2060  0.1846  0.0226
 2998W        W19259  12.529  12.362  15.043  0.0253 -0.4003 -0.1069
 2999W        W19260   8.694  15.551  12.184 -0.3814 -0.0201 -0.0111
 3000W        W19261   4.122  12.416  13.685  0.0181 -0.0174 -0.2932
 3001W        W19262   2.973   0.961  15.047 -0.0254  0.0773  0.1692
 3002W        W19263   7.177   7.465   2.844 -0.3264 -0.1002 -0.1951
 3003W        W19264   2.829  12.159   0.551  0.2392 -0.1604 -0.1851
 3004W        W19265   7.806  17.939   6.096 -0.2738  0.3800 -0.0606
 3005W        W19266   0.348   7.143  16.110 -0.3067  0.0008  0.3022
 3006W        W19267   3.781   6.809   2.359 -0.2514  0.1915  0.2129
 3007W        W19268   8.931   5.265   3.499  0.3556 -0.2334 -0.0732
 3008W        W19269  15.867   5.661  11.566 -0.0182  0.0150  0.1423
 3009W        W19270  16.038  12.124   1.549  0.0677  0.1745  0.1957
 3010W        W19271  14.867  15.624  12.634 -0.1460  0.1733  0.1127
 3011W        W19272  14.117   7.722  13.136  0.0141  0.2070 -0.0465
 3012W        W19273   4.492   5.849   4.884 -0.0319 -0.2337 -0.1632
 3013W        W19274   7.035  14.062   2.471  0.0956  0.2284 -0.1196
 3014W        W19275  15.977  11.109   4.284  0.1641 -0.1551 -0.0913
 3015W        W19276  13.726  11.205   2.341 -0.0973  0.0628 -0.0498
 3016W        W19277   7.833   7.427   0.258  0.0190 -0.0670  0.1093
 3017W        W19278   2.681   4.690   2.066  0.0097  0.1022 -0.0527
 3018W        W19279  15.191   1.882   0.132 -0.3332  0.0239  0.2909
 3019W        W19280  14.841  15.237  15.233 -0.0040  0.0895  0.2256
 3020W        W19281   7.670  18.333   0.819  0.1688  0.0430 -0.1747
 3021W        W19282  18.161  17.273   1.679  0.0847  0.2602  0.0885
 3022W        W19283   0.232   8.925   2.928  0.2520 -0.2309 -0.0414
 3023W        W19284   0.047  10.025  11.486  0.0523 -0.1271 -0.3113
 3024W        W19285  15.210  18.313   2.589 -0.1491  0.1810 -0.0803
 3025W        W19286  12.268  14.740   2.531  0.1319 -0.0938  0.2552
 3026W        W19287   4.537   2.568  14.717  0.0939 -0.0988  0.1912
 3027W        W19288  13.509   6.895   4.582 -0.1247 -0.0062  0.0654
 3028W        W19289  13.027   4.285  13.566 -0.0443 -0.1768 -0.0305
 3029W        W19290  11.444   7.346  13.887  0.1941  0.0816 -0.4204
 3030W        W19291   6.558   0.309   3.949  0.4346  0.2017 -0.2694
 3031W        W19292   7.173   3.375  15.676 -0.0088  0.1728 -0.1717
 3032W        W19293  18.403  13.706   3.456  0.2883  0.1019 -0.4937
 3033W        W19294   1.798  10.252  11.910  0.1820 -0.2015  0.1813
 3034W        W19295   2.997   2.053   2.379  0.1298 -0.1358 -0.0462
 3035W        W19296  14.983  17.999  14.460  0.0458 -0.0940 -0.1903
 3036W        W19297   9.527   2.131  14.527 -0.2113 -0.1616 -0.0997
 3037W        W19298   7.220  16.881  10.569 -0.2173  0.1974  0.0486
 3038W        W19299   8.201  10.177   1.156 -0.0283 -0.0646 -0.2134
 3039W        W19300  14.450   4.198   0.098  0.0917 -0.0322 -0.2749
 3040W        W19301  17.961  14.081   4.844  0.2158  0.0149  0.3367
 3041W        W19302  10.721  17.780   2.839  0.3407  0.0975  0.3598
 3042W        W19303   3.626   2.864  12.944  0.1347 -0.1087  0.1865
 3043W        W19304   1.702  14.746   6.032 -0.0098  0.0436  0.0875
 3044W        W19305   5.849   9.954  12.030  0.0019 -0.1141  0.2228
 3045W        W19306   3.482  16.522   3.320 -0.0471  0.0437 -0.3122
 3046W        W19307  15.452  12.038   1.075  0.0937  0.1094 -0.2442
 3047W        W19308  12.032   2.221   3.395 -0.0293  0.0748 -0.1449
 3048W        W19309   3.572   3.813  13.506 -0.1997 -0.0379  0.3707
 3049W        W19310  15.411  14.592   0.507  0.1399 -0.0643 -0.4648
 3050W        W19311  17.760  15.353   4.553 -0.2664 -0.0191  0.3796
 3051W        W19312  14.197   7.920  15.109  0.0464 -0.0103  0.1684
 3052W        W19313   1.464  16.940   1.594  0.0587 -0.2389 -0.0365
 3053W        W19314   6.301   0.589   4.600 -0.2726 -0.1975 -0.1160
 3054W        W19315  10.805  17.101   4.280 -0.0194  0.3622 -0.0292
 3055W        W19316   9.405   4.693  11.894 -0.0564  0.1153  0.1601
 3056W        W19317  17.476   9.917  12.912 -0.3020  0.0619 -0.0347
 3057W        W19318   2.576   8.932   3.892  0.0609  0.3504  0.0062
 3058W        W19319  13.253   4.982  14.943 -0.1063  0.4675  0.1082
 3059W        W19320  18.268  14.689  11.445 -0.2665 -0.0228  0.5228
 3060W        W19321   5.727   1.935   4.911 -0.0667 -0.1636 -0.3298
 3061W        W19322   2.021   7.983   1.444 -0.3501  0.0965 -0.2237
 3062W        W19323  13.870  14.820  13.278  0.1316 -0.0433  0.0993
 3063W        W19324  13.875   7.722   0.912  0.0449  0.0052  0.2486
 3064W        W19325  15.324   5.350  13.405  0.0862 -0.1305  0.0991
 3065W        W19326   2.350   5.879  14.862 -0.0989  0.0793 -0.1661
 3066W        W19327   6.201  10.562   4.158 -0.1876  0.1162 -0.1988
 3067W        W19328   4.081  14.954   4.118  0.1132  0.0629  0.0006
 3068W        W19329  12.394   8.702  12.190 -0.1295 -0.0123  0.1150
 3069W        W19330  17.563  17.540   2.425  0.1156 -0.2245 -0.0047
 3070W        W19331   1.792   1.043   4.733  0.0822 -0.1137 -0.2321
 3071W        W19332   2.040  13.217   4.044  0.0424 -0.1085  0.0042
 3072W        W19333  14.117  10.593  11.146  0.3298  0.0686 -0.2684
 3073W        W19334  15.048  11.551  12.347 -0.1901  0.2324  0.0037
 3074W        W19335   2.751   9.777   3.536  0.3616  0.0273 -0.1190
 3075W        W19336   3.730  16.260   1.218 -0.1926  0.2065 -0.2230
 3076W        W19337   5.645   0.178   0.764  0.3554  0.4739 -0.2118
 3077W        W19338   4.916   1.137   3.868  0.2269 -0.0091 -0.0058
 3078W        W19339  10.383  17.266   3.619  0.2843 -0.0276  0.2312
 3079W        W19340  17.021   4.123   4.837  0.0232 -0.3562  0.0209
 3080W        W19341   8.337  15.481  16.179 -0.0953  0.0325 -0.0498
 3081W        W19342   5.732  15.387  13.526 -0.0048  0.0853  0.0536
 3082W        W19343   3.661   5.477   0.608  0.1265 -0.4581  0.1102
 3083W        W19344  18.416   4.959   5.732  0.1938 -0.0084 -0.0380
 3084W        W19345  13.107  18.106   3.518  0.0715 -0.0514 -0.2316
 3085W        W19346  14.991   5.712  13.841  0.0519 -0.2068  0.2040
 3086W        W19347   6.347  16.002   4.967 -0.0140  0.0380  0.2612
 3087W        W19348   2.807   1.651   5.389 -0.1874  0.0913  0.0475
 3088W        W19349  11.955  10.110  14.991 -0.0849  0.3073 -0.0725
 3089W        W19350   1.839  13.857   3.076  0.2043 -0.0906 -0.2810
 3090W        W19351  15.747   4.671   4.958  0.5047 -0.0889  0.0640
 3091W        W19352   8.034   2.117  12.468  0.2977  0.2688 -0.0130
 3092W        W19353  10.783   5.123   5.739  0.0348  0.1325  0.0287
 3093W        W19354   7.770   0.692  11.555  0.1449 -0.1316  0.1120
 3094W        W19355   5.256   6.678  12.011  0.1021 -0.1021 -0.1168
 3095W        W19356   5.792   1.862   6.390  0.5712 -0.2222  0.0802
 3096W        W19357   3.037   8.334   1.850 -0.1653  0.0829  0.5220
 3097W        W19358   9.555  15.140  14.758  0.0032 -0.0654  0.0835
 3098W        W19359   6.784  11.737   2.396 -0.0372  0.0495  0.1260
 3099W        W19360  13.842  15.170  15.982  0.1897 -0.4183 -0.2211
 3100W        W19361   5.062   7.297  11.686 -0.0463 -0.1115  0.4820
 3101W        W19362   8.206   4.200  12.240 -0.0327 -0.3693 -0.0592
 3102W        W19363  15.942   5.132  13.872 -0.2123 -0.0435 -0.2660
 3103W        W19364   2.469   5.956   3.906 -0.0939 -0.1425 -0.1841
 3104W        W19365  14.612   7.690  12.423  0.1369  0.0721  0.1271
 3105W        W19366   1.301  17.314   1.839  0.1440 -0.1261  0.2263
 3106W        W19367  12.116  10.795   2.137 -0.1386 -0.0743 -0.1641
 3107W        W19368   0.685   5.153  12.537 -0.0574  0.1384 -0.0395
 3108W        W19369   4.815   7.412  13.752  0.3444  0.0466  0.0767
 3109W        W19370   1.194   7.217   0.582 -0.1096  0.0834 -0.4040
 3110W        W19371   9.632  17.832   4.144 -0.1919  0.0380 -0.3706
 3111W        W19372   8.287  11.125  11.721 -0.1623  0.0809  0.1238
 3112W        W19373  17.162  17.552   3.080  0.1815 -0.0346 -0.0679
 3113W        W19374  11.709   6.685   0.061 -0.2145 -0.1528 -0.0184
 3114W        W19375  10.814  11.146   4.437  0.1904 -0.1944  0.0426
 3115W        W19376  10.579  11.968   0.842 -0.1277 -0.0815 -0.0553
 3116W        W19377   3.268  13.028  15.429  0.0147 -0.5581  0.0342
 3117W        W19378  16.194  18.273  15.153  0.0862  0.1166  0.0056
 3118W        W19379   4.994  17.432  14.595  0.1342  0.3808  0.1323
 3119W        W19380   0.714  11.221   1.933 -0.2759 -0.1121  0.0253
 3120W        W19381   2.263  13.539  14.129 -0.2392  0.0197  0.2254
 3121W        W19382  11.051  15.340   4.587 -0.1328 -0.1271 -0.1090
 3122W        W19383   6.268   6.722  15.765 -0.1779  0.3214  0.4324
 3123W        W19384  13.537  13.568  14.726 -0.1639  0.0471  0.1965
 3124W        W19385   0.860  17.231   3.062  0.1321 -0.0265  0.0561
 3125W        W19386   9.184   3.961  14.164  0.1629  0.0915  0.2509
 3126W        W19387   0.128  16.766   3.644 -0.1618 -0.4204 -0.0996
 3127W        W19388   3.007   3.370   2.927 -0.0934 -0.0047 -0.0598
 3128W        W19389   3.570  10.075   1.867  0.0606  0.1409 -0.1106
 3129W        W19390  15.957   4.680   2.859  0.4812  0.6453  0.0818
 3130W        W19391   8.382  10.489   0.140  0.1891 -0.0582 -0.1243
 3131W        W19392   0.942   0.928   0.248 -0.0194 -0.0567  0.2742
 3132W        W19393   6.604  12.090   2.101 -0.1015 -0.0062 -0.0557
 3133W        W19394  17.366   7.694   5.129  0.1448 -0.1152  0.1396
 3134W        W19395   6.088   9.132   1.921 -0.1120 -0.0225  0.0245
 3135W        W19396  12.166   9.085  14.963 -0.1028  0.0350 -0.2064
 3136W        W19397   9.709   5.030   0.802 -0.1649 -0.1496  0.1175
 3137W        W19398   4.817   5.070   3.309  0.2559 -0.1472 -0.2636
 3138W        W19399  16.643  13.144   2.730  0.0073  0.2444 -0.2305
 3139W        W19400   7.210  12.317  12.566 -0.2657 -0.0046 -0.2536
 3140W        W19401   5.233   0.797  15.174 -0.0672  0.2607  0.3239
 3141W        W19402   9.631  14.556   0.587  0.1861  0.3213 -0.0880
 3142W        W19403   2.180  14.753   1.023 -0.2254 -0.0736 -0.1458
 3143W        W19404  12.561   5.265  12.936  0.1258 -0.1028 -0.0335
 3144W        W19405   9.875  12.776  12.867 -0.0068 -0.4265  0.1578
 3145W        W19406   4.571   5.331  14.159  0.0960  0.0902  0.2641
 3146W        W19407   6.773  14.179  15.802 -0.1110 -0.0632  0.0115
 3147W        W19408   5.555   8.048   4.905 -0.1457  0.4214 -0.1667
 3148W        W19409  13.561   2.687  13.293  0.0316 -0.0761 -0.1689
 3149W        W19410   6.517   5.439  12.032 -0.1021 -0.0450  0.0260
 3150W        W19411  17.777   6.280  14.516  0.0661 -0.1215 -0.0229
 3151W        W19412   9.074  12.293   5.697 -0.0407 -0.0548  0.2452
 3152W        W19413   8.234   7.963   1.841  0.1044  0.0577  0.2231
 3153W        W19414  14.649  11.237   2.810  0.3607 -0.4643 -0.0438
 3154W        W19415   8.745  11.899   0.407  0.2849 -0.1890  0.2075
 3155W        W19416  11.974   0.868   3.560  0.1567 -0.1906 -0.2864
 3156W        W19417   6.891   3.870   0.464 -0.0783  0.1743 -0.2116
 3157W        W19418   3.625  15.451   0.886  0.0304 -0.4505  0.2581
 3158W        W19419  16.244  17.409  10.783 -0.1353  0.3074  0.6274
 3159W        W19420  12.471  13.180  14.883  0.1699 -0.2945 -0.0834
 3160W        W19421   7.500   8.887  15.752 -0.2834  0.3675  0.2881
 3161W        W19422  10.539  17.478   3.221  0.0390 -0.0725  0.2648
 3162W        W19423   0.016   9.336   1.025  0.1048  0.2381 -0.0248
 3163W        W19424   3.318   3.132  14.155  0.0047 -0.0720  0.3450
 3164W        W19425   9.541   7.073  12.958 -0.0473  0.0209  0.1774
 3165W        W19426  10.836   3.925  11.923  0.3293  0.0664  0.2864
 3166W        W19427   6.216  12.473   1.353 -0.2639 -0.2613 -0.0605
 3167W        W19428  18.317   3.962  13.699 -0.0791  0.0382 -0.0948
 3168W        W19429   8.739  16.379   2.144  0.1698  0.4505 -0.0212
 3169W        W19430  11.196   6.915  13.375 -0.3735 -0.1011 -0.2575
 3170W        W19431   4.136   0.680   0.619  0.0220 -0.1049 -0.2041
 3171W        W19432  16.101   4.145   2.536 -0.0200 -0.4578 -0.3930
 3172W        W19433  11.478  16.396   3.263 -0.2845  0.1187  0.0233
 3173W        W19434  12.651   3.786  13.500 -0.0859 -0.2117 -0.0205
 3174W        W19435   8.786   9.810  14.685 -0.1249  0.1552  0.1686
 3175W        W19436   0.677   5.561   1.475 -0.0210  0.1325  0.2124
 3176W        W19437   8.726   7.171   4.479 -0.0840 -0.0655 -0.0986
 3177W        W19438  12.508  12.879  10.938 -0.0980  0.0414 -0.1763
 3178W        W19439  16.680  18.243  15.770  0.0472 -0.0291  0.1654
 3179W        W19440  15.747   3.111   0.274 -0.3080  0.0718  0.2717
 3180W        W19441  16.935  10.257  15.508 -0.1890 -0.0131  0.0026
 3181W        W19442  16.999   7.697  15.272  0.3022 -0.2386 -0.0286
 3182W        W19443   5.794  13.168   0.741 -0.5172  0.2173  0.3321
 3183W        W19444   5.929   6.063  15.945 -0.0679  0.0724 -0.0604
 3184W        W19445  14.655  13.134   1.083  0.1356 -0.1914 -0.2553
 3185W        W19446  17.668   2.205   4.329 -0.0541  0.0513 -0.2901
 3186W        W19447   3.397   1.096   1.048 -0.0206  0.1590 -0.1597
 3187W        W19448  15.175  10.309   3.294 -0.0897  0.0872  0.0872
 3188W        W19449  10.018  11.625   5.695  0.0325  0.2427  0.1372
 3189W        W19450  18.426   0.379   5.290  0.0305 -0.0136  0.0316
 3190W        W19451  14.917   6.220  13.826 -0.2440  0.0297  0.1626
 3191W        W19452   2.866   3.791  16.034  0.0777 -0.3221 -0.3010
 3192W        W19453  13.813   5.520   4.703 -0.0333  0.1861  0.0192
 3193W        W19454   5.717   2.275  13.523  0.1530  0.0638  0.0616
 3194W        W19455  11.769  10.189   4.243  0.1932 -0.2498 -0.0797
 3195W        W19456   3.340   6.052  12.741 -0.1410  0.2750  0.2760
 3196W        W19457   5.029  16.637  11.543  0.1645 -0.1405  0.0990
 3197W        W19458   6.564   3.768  13.723  0.0497  0.4170 -0.3881
 3198W        W19459   6.628   9.819  13.889 -0.0051  0.1360 -0.2002
 3199W        W19460  11.796  13.425   0.895 -0.0267 -0.1976  0.1344
 3200W        W19461  10.407   4.593   4.956 -0.3321  0.0098 -0.3274
 3201W        W19462   3.541   0.107  11.590 -0.2931 -0.0399  0.4195
 3202W        W19463  17.412   7.899   5.723  0.0356  0.0144 -0.0481
 3203W        W19464   7.039  10.016   2.656  0.1773  0.0233  0.0280
 3204W        W19465   0.247  13.311   3.689  0.0232 -0.1945  0.3328
 3205W        W19466   5.857   4.643   0.488  0.3838 -0.0901 -0.3222
 3206W        W19467  16.242   3.001  13.339  0.0625 -0.1952 -0.0712
 3207W        W19468  16.476  10.323   1.128  0.1256 -0.1018  0.1528
 3208W        W19469   6.182  17.234   1.366  0.1159 -0.4297  0.2777
 3209W        W19470   8.804   2.114   3.855 -0.1784  0.0654  0.2071
 3210W        W19471   1.917   5.043   3.926  0.0962  0.1922  0.3900
 3211W        W19472   2.035  13.150   1.846  0.1381  0.1446  0.2557
 3212W        W19473  14.858  13.160   3.994 -0.3025  0.2966  0.0758
 3213W        W19474  13.717  11.322   4.707 -0.0019 -0.1632 -0.1779
 3214W        W19475  10.390   7.887   0.240 -0.1027 -0.0096 -0.0541
 3215W        W19476   0.475   1.215   0.652  0.0241  0.0488 -0.1811
 3216W        W19477  14.706   5.368  15.813 -0.0695 -0.0719 -0.0578
 3217W        W19478   7.855  14.429   2.595 -0.2929 -0.3410 -0.0797
 3218W        W19479   4.688   2.779  13.433 -0.3786 -0.1187 -0.2834
 3219W        W19480  14.901   1.744  10.851 -0.2289  0.1016 -0.4843
 3220W        W19481   4.140   8.555  12.526  0.2148  0.0235 -0.1370
 3221W        W19482   5.872   7.043  15.772  0.0301  0.0702  0.1528
 3222W        W19483   7.991  16.542   3.729 -0.1106  0.0945 -0.0949
 3223W        W19484   2.466   9.859  15.397  0.2524  0.0510 -0.0258
 3224W        W19485  17.220  16.867  10.811  0.0178 -0.4158  0.0212
 3225W        W19486   0.269  14.741  11.928  0.1041  0.1539  0.0632
 3226W        W19487  13.224   0.805  15.711 -0.2478 -0.2517  0.1217
 3227W        W19488  12.665   7.038   1.084  0.1239  0.0291 -0.1358
 3228W        W19489  11.888   1.967  14.379  0.1863  0.3545  0.0230
 3229W        W19490   7.959   8.197  12.323 -0.2910 -0.1377 -0.0601
 3230W        W19491   8.681   9.958  11.389 -0.1507  0.1992  0.1845
 3231W        W19492   5.197   3.063  14.570  0.0635 -0.2869 -0.0452
 3232W        W19493  11.717   4.197  13.369  0.0514 -0.0366  0.0119
 3233W        W19494   8.132  16.350  13.335 -0.2278 -0.3272 -0.0309
 3234W        W19495  14.958  14.839  15.496  0.0860 -0.0537 -0.1822
 3235W        W19496   0.956   2.795   2.944 -0.5513  0.0462 -0.0087
 3236W        W19497  12.597   2.625  15.087 -0.1708  0.3323 -0.4137
 3237W        W19498  13.194  13.332  14.404  0.1233 -0.0736 -0.0477
 3238W        W19499   4.297  14.730  13.954  0.1307  0.0397 -0.2730
 3239W        W19500  11.879   0.166   4.573  0.0688  0.0786  0.1651
 3240W        W19501   3.665  15.552   1.830 -0.1984 -0.2713 -0.1810
 3241W        W19502   8.521   2.837  13.034 -0.0960 -0.0233  0.3757
 3242W        W19503   6.832  16.111  13.096  0.1438  0.2895 -0.2894
 3243W        W19504   2.987   6.733  15.550  0.1261 -0.0120  0.3510
 3244W        W19505  17.863  15.755  11.462 -0.3474  0.2348 -0.4115
 3245W        W19506  12.286   0.789   4.458 -0.0253  0.0628 -0.0285
 3246W        W19507   2.727   3.777   5.180 -0.2314 -0.3739 -0.1235
 3247W        W19508   3.729   3.595   5.122 -0.0763  0.2845  0.1245
 3248W        W19509   5.645  11.063  15.606  0.0172  0.3955 -0.0194
 3249W        W19510   9.653  16.101   4.386  0.0752  0.0429 -0.1125
 3250W        W19511  18.163   9.504  12.320  0.3503  0.3306  0.1538
 3251W        W19512  13.258   7.820  12.779 -0.0034  0.1551 -0.0823
 3252W        W19513  17.718  17.445   3.790  0.2993 -0.0430  0.2622
 3253W        W19514  14.272   3.925  12.140 -0.2437 -0.2770 -0.1246
 3254W        W19515  15.958   3.122  14.418 -0.1226 -0.2577  0.0921
 3255W        W19516  17.580  10.768  12.755 -0.1015 -0.0886  0.3761
 3256W        W19517   3.706   2.389  12.997 -0.0639  0.0740 -0.0561
 3257W        W19518  11.892   1.382   3.521  0.1849  0.0437 -0.1625
 3258W        W19519  18.024  12.282  14.313  0.1095 -0.4171 -0.3409
 3259W        W19520   1.773   8.827  13.352  0.0371  0.0601 -0.1335
 3260W        W19521  14.357   9.777  13.617  0.1345 -0.0168 -0.1315
 3261W        W19522  14.162   5.014  12.802 -0.1290 -0.1235 -0.1703
 3262W        W19523   3.238   4.540   2.182 -0.0657  0.1044  0.1733
 3263W        W19524   9.293   2.615  12.666 -0.0442  0.2370 -0.1896
 3264W        W19525   4.364  15.719   1.926  0.0426 -0.1834  0.1005
 3265W        W19526   9.273  17.275   3.504  0.0008  0.0055  0.2107
 3266W        W19527   8.757  11.022   5.176 -0.1039  0.1098  0.0577
 3267W        W19528  10.057   4.446  14.552 -0.1074 -0.0388 -0.0479
 3268W        W19529  17.373   5.356   3.551  0.0797  0.2161  0.0748
 3269W        W19530   0.041   7.580   0.256 -0.2999  0.0494  0.0161
 3270W        W19531   4.440  11.382   0.177 -0.3975 -0.2682  0.1203
 3271W        W19532  13.508   7.791   2.205 -0.1994  0.2352  0.2676
 3272W        W19533   8.842   2.042  13.103 -0.2221 -0.1972  0.3086
 3273W        W19534  11.709   7.089   2.396  0.4066 -0.0578  0.3009
 3274W        W19535   9.358   1.234   2.908  0.0226  0.0722  0.0828
 3275W        W19536  14.763  14.991  11.291  0.2783  0.1282 -0.0035
 3276W        W19537  17.334   7.131   1.005 -0.1480 -0.0463  0.0075
 3277W        W19538  15.713  15.634  13.669 -0.0721 -0.2143 -0.0303
 3278W        W19539   2.541  17.069   3.657 -0.1871  0.1043  0.0473
 3279W        W19540  16.670  11.029   2.300 -0.1048  0.1161 -0.1398
 3280W        W19541  15.438   7.303   3.751  0.1903 -0.2273  0.0074
 3281W        W19542  11.121  13.527  15.059 -0.1500  0.0577 -0.2419
 3282W        W19543   1.476  13.511   3.119  0.2190 -0.0993  0.2310
 3283W        W19544  13.974  15.853  12.983 -0.0047  0.1005 -0.2783
 3284W        W19545  13.479   3.844  12.864  0.2753  0.1831  0.2397
 3285W        W19546  10.981  12.011   3.929 -0.0954  0.2587 -0.2447
 3286W        W19547  12.376   8.068   4.997 -0.1381  0.4510 -0.1632
 3287W        W19548   2.861   6.480  14.019 -0.0486 -0.0061  0.0986
 3288W        W19549   1.931  14.095  15.531  0.0218 -0.2468  0.1865
 3289W        W19550   1.929  11.401   1.490 -0.1009  0.1669  0.0619
 3290W        W19551   7.371   9.659  16.000  0.2957  0.0346  0.0854
 3291W        W19552  18.219  10.643   2.838  0.3300 -0.3100 -0.1558
 3292W        W19553   2.901   9.827  11.770  0.3819  0.1076  0.1984
 3293W        W19554  17.988  13.086   5.115 -0.1339  0.0731 -0.1645
 3294W        W19555  17.824  15.585   3.275 -0.0610  0.1051 -0.0799
 3295W        W19556   5.248   2.578   2.550  0.4555 -0.2357  0.3484
 3296W        W19557  11.281  14.688   3.718 -0.1252 -0.0730 -0.2281
 3297W        W19558   3.109   2.598   0.556  0.2265  0.3875  0.0380
 3298W        W19559  10.222   9.604   0.788  0.2814  0.1790  0.2936
 3299W        W19560  12.065  11.185  14.451 -0.2663  0.1238  0.3000
 3300W        W19561  10.491   4.248   5.937  0.2418  0.0982 -0.1344
 3301W        W19562   1.025   1.144   2.489  0.2053  0.0049 -0.0715
 3302W        W19563   5.426  15.987  15.127 -0.1611 -0.0537  0.0609
 3303W        W19564   9.069  14.430   3.180 -0.0207  0.0334  0.1969
 3304W        W19565  11.259   4.200  13.624  0.0479  0.0138 -0.1438
 3305W        W19566  11.053  17.743   2.492  0.0327  0.3782  0.1860
 3306W        W19567  11.997  15.581   1.315  0.0201  0.0156 -0.1588
 3307W        W19568  17.749  15.470  12.316  0.0693  0.0456  0.1196
 3308W        W19569   6.515   8.332   1.612  0.0162  0.2111  0.1503
 3309W        W19570   1.256  18.397  11.550 -0.1176  0.1427  0.3480
 3310W        W19571   8.714   4.067  13.812  0.0043 -0.1503 -0.0421
 3311W        W19572   3.488   0.833   3.321  0.2414 -0.3179 -0.0309
 3312W        W19573  17.858  15.607  12.826 -0.2050  0.2106 -0.3164
 3313W        W19574   0.639  15.346  14.185  0.0384 -0.2774 -0.0563
 3314W        W19575  14.653   9.358  15.629 -0.0332 -0.0300 -0.0409
 3315W        W19576   1.873   6.604   1.742 -0.2111 -0.1027  0.0222
 3316W        W19577   2.653  15.704  14.154 -0.2173  0.2117  0.0690
 3317W        W19578  15.200   9.593   2.742  0.0293  0.0542 -0.0390
 3318W        W19579   3.358   9.826  11.465  0.1130  0.3064 -0.0473
 3319W        W19580   6.893   3.153  16.129 -0.2264  0.0534 -0.2324
 3320W        W19581   0.150   1.918  11.454  0.1230 -0.0297  0.1924
 3321W        W19582   2.276  15.666  12.467  0.3117  0.1477 -0.1361
 3322W        W19583   9.670   0.389   3.883 -0.1933 -0.2707 -0.1636
 3323W        W19584  16.115   8.709  11.327 -0.0526 -0.1423 -0.2504
 3324W        W19585  17.014  11.524   4.628 -0.3714 -0.3376  0.0244
 3325W        W19586   2.140   2.442  12.981 -0.1467  0.0731 -0.2052
 3326W        W19587  15.715   8.066  15.065 -0.2847  0.0602  0.0982
 3327W        W19588   6.023  15.546  15.672  0.0569  0.0778 -0.3900
 3328W        W19589  17.900  14.418   3.105  0.0534 -0.1143  0.0213
 3329W        W19590  16.844  16.895  13.555  0.1872  0.1330 -0.0754
 3330W        W19591   3.942   2.047   5.505  0.3946  0.1516 -0.1029
 3331W        W19592   4.819  17.559  12.639  0.1320 -0.0185 -0.1605
 3332W        W19593  14.459   8.717   4.629 -0.0535  0.1359 -0.3901
 3333W        W19594   9.654   8.948   1.434 -0.0973 -0.1763  0.1250
 3334W        W19595   1.146  16.177   5.138 -0.2709  0.1494 -0.1451
 3335W        W19596  14.215  15.481  12.593  0.1027  0.2998  0.2669
 3336W        W19597   5.900   5.811   5.022  0.1437 -0.1028 -0.0941
 3337W        W19598   3.829   4.836  14.134 -0.1933 -0.0434 -0.1338
 3338W        W19599  11.853  16.484  14.939  0.0552 -0.2649  0.1913
 3339W        W19600   4.504  11.479  15.352 -0.0020 -0.2830 -0.0801
 3340W        W19601   4.410  11.981  13.782  0.0815  0.0613 -0.3013
 3341W        W19602  15.720  10.657   1.517  0.0285 -0.0086 -0.2786
 3342W        W19603   3.895   1.957   6.565  0.2042 -0.1090 -0.4279
 3343W        W19604   9.817   7.376   3.699  0.5162 -0.1407  0.3919
 3344W        W19605   3.290   0.665  14.632 -0.2281  0.0196  0.1585
 3345W        W19606   0.235  12.130  15.747 -0.1554  0.1303 -0.0809
 3346W        W19607  16.493   4.746   4.420 -0.2432 -0.2334 -0.0395
 3347W        W19608   3.211   1.991   3.219 -0.1504  0.3109 -0.1337
 3348W        W19609   2.286  14.411  15.857  0.1065  0.0632  0.0530
 3349W        W19610  17.563  17.305  11.873  0.3478  0.0214 -0.2668
 3350W        W19611  17.515   0.083   2.386  0.2025  0.1161 -0.0170
 3351W        W19612   7.389  12.996  11.839 -0.3331 -0.1215  0.0177
 3352W        W19613  10.139   2.143  12.768  0.2236  0.0341  0.0728
 3353W        W19614   4.903   4.318  15.555  0.2075 -0.4733 -0.2062
 3354W        W19615  13.265  17.348  11.848  0.0718  0.1732  0.4097
 3355W        W19616   1.918  14.116  16.045 -0.1616 -0.0454 -0.0739
 3356W        W19617   9.082   2.561   4.644  0.0779 -0.0750  0.0544
 3357W        W19618   9.167   0.371  14.012 -0.1120  0.1501 -0.3232
 3358W        W19619  10.542  15.920   4.042 -0.0862  0.0883 -0.2284
 3359W        W19620   2.968  16.917  12.878 -0.3162  0.0794  0.0726
 3360W        W19621  13.907  15.379   2.449 -0.0545  0.0781  0.1209
 3361W        W19622   3.094   1.626  12.883 -0.2210  0.0029  0.1010
 3362W        W19623   5.477   4.596  14.830 -0.2577 -0.0427 -0.0768
 3363W        W19624   9.914   3.996  14.788 -0.0532  0.0420  0.1207
 3364W        W19625  10.943   5.294   1.836  0.0339  0.1012  0.3509
 3365W        W19626  15.816  10.483  11.947 -0.1295 -0.2496  0.0097
 3366W        W19627  16.161   9.127  12.982  0.1006  0.3414  0.3998
 3367W        W19628   6.972  12.771  14.651  0.0479 -0.0416  0.2232
 3368W        W19629   8.190   7.326   1.789 -0.1953 -0.0267 -0.1178
 3369W        W19630   2.000   7.731   2.256 -0.1539 -0.2622 -0.0617
 3370W        W19631  13.791   2.871   1.015  0.3216 -0.0895 -0.1764
 3371W        W19632   9.853   3.736   1.923  0.4018 -0.2221 -0.0586
 3372W        W19633  16.987   2.297   2.519 -0.0144  0.0158 -0.3744
 3373W        W19634   4.626   2.631  12.938  0.0168 -0.1831  0.0210
 3374W        W19635   0.117  12.744  10.691 -0.0445  0.4045  0.1816
 3375W        W19636  17.163   9.793  14.635 -0.0268 -0.1140  0.3357
 3376W        W19637  11.433   8.845  15.320 -0.0107  0.0583 -0.1867
 3377W        W19638   2.187  16.604   4.581  0.0471  0.0357 -0.0409
 3378W        W19639   6.885  11.685  15.669 -0.1982  0.3007  0.1131
 3379W        W19640  15.717  11.059   3.875  0.2018 -0.3453  0.0948
 3380W        W19641   8.288  16.451  14.859 -0.1303 -0.0741 -0.1377
 3381W        W19642   4.156   4.945   0.507  0.0103  0.0549 -0.1814
 3382W        W19643   8.468   2.910   2.790 -0.0648  0.2514 -0.0659
 3383W        W19644   5.388  10.361   0.413 -0.3403 -0.1273 -0.0659
 3384W        W19645   8.403  13.250  14.725 -0.0223 -0.0857 -0.0551
 3385W        W19646  16.642   5.871   0.965 -0.2455  0.2623 -0.3754
 3386W        W19647  15.205   3.533   5.454  0.1168  0.4134  0.5104
 3387W        W19648  13.370   7.850   4.576  0.0961  0.2588 -0.2950
 3388W        W19649  15.719   9.168   4.850 -0.1745  0.0486 -0.0129
 3389W        W19650  13.881   0.244   3.684  0.1587  0.1849 -0.1122
 3390W        W19651  14.611   7.878   5.434  0.0253 -0.2862  0.5377
 3391W        W19652  12.427  13.114  12.486 -0.1219  0.3341  0.2480
 3392W        W19653  11.617  13.320  14.421 -0.2826  0.2484 -0.3656
 3393W        W19654   2.751   2.263  15.252  0.1251  0.1387 -0.0693
 3394W        W19655  17.828   6.247  13.948  0.1877 -0.1328  0.0486
 3395W        W19656  14.142   6.718  14.602 -0.0233 -0.0665 -0.0550
 3396W        W19657  16.373  16.817  13.372 -0.1684  0.3084 -0.0592
 3397W        W19658  10.493  16.296   4.523  0.1069 -0.1337 -0.3405
 3398W        W19659   8.116   9.760  13.914 -0.0338  0.0768 -0.1884
 3399W        W19660  13.023   2.657  15.903  0.0224  0.1070  0.0388
 3400W        W19661   1.078  15.953   0.817  0.0288 -0.0345 -0.1878
 3401W        W19662  13.167  14.825   3.344  0.1878 -0.0865 -0.0330
 3402W        W19663   2.199  12.670   1.798 -0.1328 -0.1928  0.1236
 3403W        W19664  10.020   0.104  12.433 -0.1164 -0.0506 -0.1727
 3404W        W19665   7.866   9.419   2.611  0.0798 -0.0142  0.1209
 3405W        W19666  16.603   7.413   4.554 -0.0400 -0.0358 -0.1311
 3406W        W19667   7.608  16.375   1.557 -0.1261 -0.1190 -0.0469
 3407W        W19668  16.766   4.800  13.843 -0.1157 -0.3871  0.0075
 3408W        W19669   8.847   3.549   0.944  0.2429  0.1049 -0.2960
 3409W        W19670  15.067   8.587   2.691  0.1266  0.3462 -0.1516
 3410W        W19671   8.747  17.826   0.411  0.2787  0.0507 -0.0783
 3411W        W19672  13.970  16.248  11.581  0.1896 -0.0569 -0.0462
 3412W        W19673  16.646  17.469  15.326 -0.1001 -0.0762  0.3213
 3413W        W19674  18.478  15.618   4.567  0.0139  0.0126 -0.0385
 3414W        W19675   8.756   5.344   5.392  0.0614 -0.1968  0.1681
 3415W        W19676  16.907   0.516  14.817 -0.0647 -0.1610 -0.0254
 3416W        W19677  15.422   6.633   0.771  0.1835 -0.4811 -0.0105
 3417W        W19678   9.752   0.907  14.021 -0.3058 -0.2821 -0.2615
 3418W        W19679   3.661  17.465   4.450 -0.1114  0.0753  0.2805
 3419W        W19680  16.185  15.667  10.397  0.0532  0.3092 -0.1292
 3420W        W19681   5.416  11.016  12.543 -0.1112 -0.0677 -0.0117
 3421W        W19682   1.793   3.017  14.106 -0.2873 -0.2047 -0.0779
 3422W        W19683  12.127  17.365   4.514  0.0014  0.0562  0.2504
 3423W        W19684   1.091   6.720  11.871  0.3323  0.0370  0.0956
 3424W        W19685  12.559  12.769  14.169  0.0660  0.2743  0.0890
 3425W        W19686   9.593  16.827   1.591  0.0006 -0.1103 -0.1239
 3426W        W19687   9.449  12.409  12.575 -0.1370 -0.1858  0.2656
 3427W        W19688   7.113  14.691   3.701  0.2076  0.0404  0.1825
 3428W        W19689   9.822  14.002  12.835 -0.1074 -0.3462  0.1976
 3429W        W19690   3.310   2.096  14.413 -0.1310  0.1260 -0.0626
 3430W        W19691  15.367  10.422  11.687  0.3494 -0.3442  0.0427
 3431W        W19692   8.862  14.526   4.176 -0.2084  0.0021 -0.4300
 3432W        W19693   0.058   5.628   4.889 -0.0594 -0.1181  0.2153
 3433W        W19694   1.823  16.848   2.886  0.0060 -0.4152  0.2150
 3434W        W19695   7.857   9.452   1.039 -0.0136 -0.1592 -0.1923
 3435W        W19696   2.185  15.448   3.816 -0.2785 -0.0635  0.1640
 3436W        W19697   3.724   7.038  14.527 -0.0291 -0.0431  0.0460
 3437W        W19698   8.054  15.533   1.575  0.0659  0.1631 -0.0162
 3438W        W19699   2.406   9.539  13.743 -0.2417  0.2678  0.1757
 3439W        W19700   5.833  10.593  13.180  0.2460  0.2278  0.0257
 3440W        W19701   6.718   3.572  15.725  0.0829 -0.1313 -0.0954
 3441W        W19702  14.031   0.586   2.737 -0.0680 -0.0527  0.0482
 3442W        W19703   7.672  14.329   2.135  0.0799  0.0422  0.2302
 3443W        W19704  15.679  14.388  14.491 -0.1923  0.2906 -0.1089
 3444W        W19705   2.783   5.714  12.696 -0.0255 -0.4093  0.1181
 3445W        W19706  13.180   3.582  11.623 -0.0700  0.0501 -0.1952
 3446W        W19707   5.278  14.844  12.778 -0.3519  0.0778 -0.1723
 3447W        W19708  17.175   5.004  14.795  0.0958  0.0353  0.1007
 3448W        W19709  15.205   1.486  15.198 -0.0337  0.1159  0.1534
 3449W        W19710  10.854  13.719  12.812 -0.0580  0.1192  0.3752
 3450W        W19711  15.531  15.465  10.775 -0.2054 -0.1694 -0.0541
 3451W        W19712   2.336   1.146   6.072 -0.3318 -0.0720 -0.1955
 3452W        W19713   8.729   9.651  13.296 -0.4918 -0.4622  0.0051
 3453W        W19714  11.133   1.218  11.280 -0.1209  0.2425 -0.0426
 3454W        W19715   0.207   1.390   1.936 -0.2670 -0.0954 -0.1514
 3455W        W19716  12.396   7.619   6.368 -0.1479 -0.3388  0.5240
 3456W        W19717   9.253  13.777  14.899 -0.1059 -0.1317  0.0352
 3457W        W19718  16.102   6.936  12.310 -0.3937  0.1125  0.2278
 3458W        W19719  11.533  10.938   5.060  0.1376 -0.0315 -0.0115
 3459W        W19720  14.702  15.372   0.286  0.0370 -0.2336  0.1481
 3460W        W19721   0.840  18.403   2.711  0.3371 -0.0200  0.2756
 3461W        W19722   5.395   9.364  13.198  0.2323 -0.2439  0.1455
 3462W        W19723  12.256   8.249  12.031 -0.5813 -0.4260 -0.3063
 3463W        W19724   8.172   3.952   2.640  0.3771 -0.2251 -0.0667
 3464W        W19725  14.858   2.616  14.376 -0.0650 -0.0207 -0.7529
 3465W        W19726   7.453   9.464   1.728 -0.1608 -0.1244 -0.0761
 3466W        W19727   0.264  15.135   2.619  0.0118  0.0443  0.0822
 3467W        W19728   8.015  18.152   0.465  0.1479 -0.1215  0.3989
 3468W        W19729   9.497   0.854  14.778 -0.0475 -0.1730  0.0133
 3469W        W19730   0.835  15.721  15.680  0.0938  0.0885  0.1802
 3470W        W19731   7.314  10.279   4.948 -0.0767  0.0365  0.2823
 3471W        W19732   4.242   2.088  16.035 -0.2733 -0.0669  0.2499
 3472W        W19733  12.395  12.578  12.702 -0.3244 -0.2080 -0.1876
 3473W        W19734  13.850   9.739   0.816 -0.0591 -0.1529 -0.0421
 3474W        W19735   5.851   6.525  12.667 -0.0894  0.0575 -0.2501
 3475W        W19736  12.954   5.957   5.424  0.3130 -0.0638 -0.3338
 3476W        W19737   5.152  12.924   2.385 -0.0855 -0.1298  0.3526
 3477W        W19738  10.362   8.748   5.552 -0.2463  0.2318  0.0022
 3478W        W19739   3.070  16.442   3.599  0.3101  0.0280 -0.2374
 3479W        W19740   5.553  15.912   4.528  0.0590  0.2493  0.0380
 3480W        W19741   5.683   8.863  14.055  0.0478 -0.0165 -0.0981
 3481W        W19742  18.373  14.967   4.017 -0.1191 -0.1514 -0.1275
 3482W        W19743  18.377  15.412  14.582 -0.1443  0.2328 -0.2517
 3483W        W19744   0.822   8.782  16.078 -0.0092 -0.1788  0.1263
 3484W        W19745   0.425   8.008  11.885 -0.1030  0.3075  0.1761
 3485W        W19746  14.342  10.036  14.088 -0.0224 -0.2877 -0.0026
 3486W        W19747   8.007  14.791  13.114 -0.2185 -0.1616 -0.3721
 3487W        W19748   2.048  12.149   0.854  0.0017 -0.0336  0.0625
 3488W        W19749   1.232  12.412  14.338  0.1215  0.3095 -0.1709
 3489W        W19750  14.449   2.243   1.464  0.0895  0.0297  0.2667
 3490W        W19751   8.831   1.951  15.094 -0.1753 -0.1057 -0.2354
 3491W        W19752   5.715  11.771  15.519 -0.0162  0.2320 -0.2128
 3492W        W19753   6.768   2.085  14.530  0.1422  0.0090 -0.2998
 3493W        W19754  12.643  12.093   1.220 -0.1375  0.3938 -0.1671
 3494W        W19755   1.979   4.034   1.287  0.2022  0.3501  0.0813
 3495W        W19756  14.914   9.772  11.688 -0.2685  0.2500  0.0032
 3496W        W19757   3.400  17.122   5.752 -0.2655  0.0674  0.0915
 3497W        W19758   1.561   5.332  14.119 -0.2552 -0.0925 -0.2521
 3498W        W19759   7.795  12.724   4.190 -0.1949  0.0678  0.0210
 3499W        W19760  10.499   6.566  15.645 -0.1777 -0.2394 -0.1371
 3500W        W19761   2.165  16.956   0.471 -0.0282 -0.0434  0.0791
 3501W        W19762  13.336   8.131   4.151  0.3843  0.2909  0.3570
 3502W        W19763  14.783   0.009  14.521 -0.1451 -0.0736 -0.2018
 3503W        W19764  11.125   5.466  13.824 -0.1972  0.1391 -0.1695
 3504W        W19765   3.547  13.909  13.885 -0.0178 -0.2503  0.2972
 3505W        W19766   5.341   1.935  12.634 -0.0693  0.2577 -0.0722
 3506W        W19767  17.814  14.923  11.628  0.0310  0.2251  0.1536
 3507W        W19768   1.530   1.171   0.570  0.0956 -0.1475 -0.0116
 3508W        W19769  15.675  16.041  11.886 -0.0552  0.1821 -0.1784
 3509W        W19770  11.907   6.303   4.503 -0.1403  0.0027  0.0648
 3510W        W19771  12.875   8.093   4.861  0.0537 -0.1685 -0.1638
 3511W        W19772  12.739  14.874   4.278  0.1061  0.2674  0.2271
 3512W        W19773  17.865   3.088  12.018  0.1121  0.1210 -0.0137
 3513W        W19774  13.815   7.735   3.277 -0.1111 -0.0278  0.1714
 3514W        W19775  14.998   5.955   0.500 -0.2275  0.1363  0.1205
 3515W        W19776   2.465   1.938   2.414 -0.6210  0.2518 -0.0062
 3516W        W19777   9.955   7.542  13.824  0.0546  0.2593  0.4164
 3517W        W19778  15.782   4.845  12.692 -0.1536  0.1004 -0.0268
 3518W        W19779  16.821  11.691  14.399 -0.0360  0.1078  0.2158
 3519W        W19780   3.572  11.981  12.799 -0.4814  0.1536  0.1424
 3520W        W19781   6.372  15.958  15.047  0.4039  0.0161 -0.2039
 3521W        W19782   9.327   5.655  12.721 -0.1212 -0.0728 -0.2175
 3522W        W19783  12.653  14.877   1.273  0.0039  0.2048 -0.4606
 3523W        W19784  15.754   6.094  12.862  0.4096 -0.2367 -0.1612
 3524W        W19785   0.049   3.124   1.989 -0.3044  0.5371 -0.0105
 3525W        W19786  11.855   4.303   2.503 -0.0143  0.2078 -0.2188
 3526W        W19787  11.533   5.044   3.280 -0.0444  0.2770 -0.2087
 3527W        W19788  11.331   4.062   3.462 -0.0829 -0.1968  0.3001
 3528W        W19789   5.268   5.316  16.165 -0.2704 -0.1244  0.2774
 3529W        W19790   0.860  17.467  13.897 -0.3473  0.0907 -0.0869
 3530W        W19791  13.027  15.751  15.118 -0.1600  0.1358 -0.1443
 3531W        W19792  17.108   9.207  14.039  0.2118  0.2285  0.1587
 3532W        W19793  17.071   5.391   4.020 -0.0348 -0.2529 -0.0752
 3533W        W19794  17.646   7.041   4.624 -0.2139 -0.1450  0.0903
 3534W        W19795   8.122  11.254  13.964 -0.2260 -0.3208 -0.0204
 3535W        W19796  17.692  13.590  15.280  0.2681 -0.1688 -0.2629
 3536W        W19797  11.382   2.469   1.430  0.0309 -0.1150  0.0041
 3537W        W19798   3.860   5.094   5.483  0.3689 -0.2295  0.2160
 3538W        W19799  14.345  11.334   4.194  0.0906 -0.0227  0.1839
 3539W        W19800  12.126   4.402   1.179 -0.0318 -0.2493  0.0098
 3540W        W19801   6.061  16.031  14.432 -0.1895  0.0411 -0.0146
 3541W        W19802  12.168   3.433  12.469 -0.1181 -0.0485 -0.1673
 3542W        W19803   8.926  14.673  16.103  0.0991 -0.5674 -0.0550
 3543W        W19804  12.032  16.761   5.199  0.0834 -0.0855  0.1297
 3544W        W19805  11.471   9.554   2.005  0.0672 -0.2197 -0.4927
 3545W        W19806   1.760  16.055  13.037  0.0392 -0.0336 -0.1659
 3546W        W19807   7.916   8.650  14.604  0.0637 -0.0841 -0.1929
 3547W        W19808   1.791  10.737   3.414  0.0931 -0.0438  0.2346
 3548W        W19809  13.254  14.694   4.409  0.1667  0.0350 -0.0584
 3549W        W19810   1.123   5.311   1.572  0.1411  0.2678  0.0879
 3550W        W19811  12.837   0.800   0.996  0.1415  0.1427  0.1728
 3551W        W19812   5.603   0.353   5.096 -0.1450  0.1771  0.2058
 3552W        W19813  17.261   7.978  14.736  0.1445  0.2419 -0.2319
 3553W        W19814   4.237   0.098   3.278  0.5367  0.1786 -0.1910
 3554W        W19815   7.615  10.185  12.160  0.2149  0.2616  0.0031
 3555W        W19816  16.564   3.681   4.208  0.2422  0.2406 -0.1029
 3556W        W19817   3.435  17.973   2.134 -0.0841 -0.1520 -0.1078
 3557W        W19818   9.867   2.760   3.002 -0.1114 -0.0809  0.2216
 3558W        W19819  12.231   0.593   0.556 -0.3139  0.0345 -0.0271
 3559W        W19820   0.114  15.097  15.803 -0.2125  0.2525  0.1127
 3560W        W19821   4.591  14.737  15.332 -0.1449 -0.3715 -0.0245
 3561W        W19822  15.745   8.442   3.866  0.2843  0.1062  0.2891
 3562W        W19823   3.584   9.484   3.576 -0.0859  0.1088  0.1294
 3563W        W19824  10.800   7.536   3.892  0.3026  0.2069 -0.1688
 3564W        W19825   5.192   1.491   0.185 -0.1917 -0.1652 -0.1305
 3565W        W19826  10.108  17.596  10.159  0.1697  0.0905  0.2182
 3566W        W19827  12.348   8.045  14.900 -0.1399 -0.1711 -0.1160
 3567W        W19828  16.265   3.142   0.050  0.0189  0.0667 -0.2524
 3568W        W19829   8.848  17.967  14.997  0.0564 -0.1857  0.0293
 3569W        W19830   6.494   8.731   2.517 -0.2149  0.2130  0.3803
 3570W        W19831  13.031   4.189   1.149  0.0665 -0.2284 -0.4086
 3571W        W19832   0.313   9.406   2.891 -0.2393  0.2021 -0.1985
 3572W        W19833   4.893  10.853  12.831  0.0828 -0.0676 -0.1115
 3573W        W19834  11.627   4.917   3.785  0.0772 -0.1777  0.2751
 3574W        W19835  11.288   4.561  14.035 -0.3076  0.3917  0.2734
 3575W        W19836   5.774  17.558   1.365  0.3094 -0.4170  0.0714
 3576W        W19837  12.027  13.756   4.246  0.0248  0.1567 -0.3377
 3577W        W19838  11.331  15.889  14.669 -0.0321  0.2786 -0.1690
 3578W        W19839  16.838   8.040  13.341  0.2486 -0.0617  0.0116
 3579W        W19840  14.103   1.288  15.822  0.1149 -0.0919  0.1381
 3580W        W19841   1.823  14.311  14.027 -0.0565  0.3273 -0.1361
 3581W        W19842  12.148  14.132   0.141 -0.0928  0.0185  0.1612
 3582W        W19843  13.749   2.148   0.528  0.1435  0.0122  0.1554
 3583W        W19844   5.587   4.458   5.896  0.4422 -0.2266 -0.0719
 3584W        W19845   3.287   3.558   5.992  0.3066  0.0456 -0.1084
 3585W        W19846  11.172   6.168  15.581 -0.2974  0.1534  0.2959
 3586W        W19847  17.294  17.827   3.475 -0.1452 -0.1833  0.0363
 3587W        W19848  16.631   2.476  15.914 -0.2995 -0.2479  0.1376
 3588W        W19849   0.174   2.570   1.907 -0.0015 -0.0194 -0.0584
 3589W        W19850   7.656  16.434  12.996  0.0396 -0.2483  0.2637
 3590W        W19851  13.824   5.429  14.039  0.0869 -0.1531 -0.2978
 3591W        W19852   3.109  10.320  14.685 -0.2738 -0.3448 -0.1535
 3592W        W19853   5.411   2.507   4.478  0.2309  0.0333  0.0584
 3593W        W19854  12.964   0.007  15.258  0.3311  0.3032  0.1412
 3594W        W19855  12.468   5.737  11.738  0.3490  0.0131 -0.1636
 3595W        W19856   2.906  11.988   2.264 -0.0050 -0.1881  0.0497
 3596W        W19857   4.114   5.434   0.306 -0.0545 -0.1578 -0.4675
 3597W        W19858   3.022   6.076  10.908 -0.1616  0.0065  0.2542
 3598W        W19859   4.002   5.795  16.155 -0.0503 -0.0227  0.0043
 3599W        W19860  16.951  18.145   3.065  0.1360  0.2891 -0.2009
 3600W        W19861  11.311   5.752   5.142  0.1681  0.0284 -0.2032
 3601W        W19862  17.266   5.731   0.271 -0.0798  0.1113 -0.0416
 3602W        W19863   7.486  16.886   5.024  0.0205  0.1167  0.0194
 3603W        W19864  17.326   8.420  11.210 -0.1875  0.1098  0.2757
 3604W        W19865  15.793  15.033   0.275 -0.1083  0.2433 -0.0942
 3605W        W19866   5.075   1.226  15.570 -0.0627 -0.1213  0.0010
 3606W        W19867  10.017  14.132  15.178 -0.1055  0.0113  0.0412
 3607W        W19868  13.863  15.115   5.784 -0.2359  0.1185 -0.1792
 3608W        W19869   9.774  10.781  14.677 -0.2653 -0.1507 -0.1921
 3609W        W19870  10.684  12.712   1.226  0.0238 -0.3205 -0.0445
 3610W        W19871   1.395  10.357   0.108 -0.0360 -0.2326  0.1120
 3611W        W19872   8.685   6.832   6.017 -0.4393  0.0217 -0.1065
 3612W        W19873   5.839   7.772   3.662 -0.2270  0.0109 -0.1771
 3613W        W19874   8.561   2.397  13.402  0.1820  0.1754 -0.0607
 3614W        W19875   9.884  17.001   3.869  0.1609  0.0203 -0.0678
 3615W        W19876  13.405   8.800  14.818  0.1018  0.0643  0.5388
 3616W        W19877  13.605  13.665  10.769  0.0800  0.2525 -0.4322
 3617W        W19878  15.043  16.969   2.571  0.1842 -0.0843 -0.2616
 3618W        W19879   9.410  11.544  16.106  0.3804 -0.1652  0.1885
 3619W        W19880   4.954   1.622  14.537  0.1481 -0.2417 -0.2780
 3620W        W19881   0.740  11.021  13.860 -0.0635  0.1417 -0.1759
 3621W        W19882  11.249   1.626   5.034  0.1367 -0.1615 -0.1215
 3622W        W19883   9.474   2.529  15.783  0.2260  0.1808 -0.1489
 3623W        W19884   9.862   1.998  15.367  0.1696 -0.2960  0.0058
 3624W        W19885  14.760   4.585   0.440 -0.4752 -0.0520 -0.0518
 3625W        W19886   1.020   5.606  12.374  0.0695  0.2426  0.0077
 3626W        W19887  11.113  11.793  14.085 -0.2742 -0.0787  0.1855
 3627W        W19888  18.048  17.661   4.694 -0.1043  0.0157 -0.1176
 3628W        W19889  13.202   8.186  11.658 -0.2806 -0.0679 -0.2938
 3629W        W19890  17.547   5.201  13.126 -0.0530  0.0761 -0.3156
 3630W        W19891  11.301  10.870  15.007  0.0165  0.3191  0.0358
 3631W        W19892   7.320  12.373   4.537 -0.1487 -0.1791 -0.2925
 3632W        W19893  11.877  10.193   0.344 -0.2253  0.2286  0.0969
 3633W        W19894  11.496   1.835  14.035  0.0238 -0.1411  0.0696
 3634W        W19895   8.913   3.222  14.791 -0.0838 -0.1133 -0.3030
 3635W        W19896   7.467   8.906  14.602 -0.0101  0.2801  0.4317
 3636W        W19897   7.953   1.858  15.936  0.0697 -0.0128 -0.0834
 3637W        W19898   5.355   0.081  12.850  0.1624 -0.2579 -0.0839
 3638W        W19899  16.053  11.788  13.513  0.0496  0.0164  0.3774
 3639W        W19900  12.958   8.035   2.880 -0.1796 -0.0261 -0.0686
 3640W        W19901  15.344  15.845   2.350  0.0162  0.0005  0.1369
 3641W        W19902   1.425   1.391   6.054 -0.0310 -0.1133 -0.2151
 3642W        W19903  12.566   4.792  15.292 -0.2847 -0.3694 -0.2159
 3643W        W19904  15.030   1.594  14.361 -0.0427  0.1614 -0.1031
 3644W        W19905   2.302   6.455   2.637  0.0591  0.0761  0.0076
 3645W        W19906  14.078   6.678   3.432 -0.0905 -0.3338 -0.2152
 3646W        W19907  16.186   1.217   3.432 -0.1967 -0.0550 -0.2761
 3647W        W19908   2.081  16.104   4.936  0.6378  0.1558 -0.2245
 3648W        W19909  14.752  15.634  15.812  0.0074  0.4655  0.0344
 3649W        W19910   0.996  16.032  13.495  0.0747 -0.2705 -0.3458
 3650W        W19911   5.258   6.568   4.039 -0.3543  0.2076  0.1947
 3651W        W19912  14.504   7.041  15.574 -0.2909 -0.1016  0.3369
 3652W        W19913   6.683  14.474  11.410 -0.1563  0.1782  0.3465
 3653W        W19914  12.755   9.166  15.611  0.1597 -0.2503  0.2099
 3654W        W19915  12.884  17.400  11.478  0.2374  0.0621  0.2435
 3655W        W19916   5.508  15.518  11.831 -0.4072  0.0063  0.0141
 3656W        W19917  15.668   9.076  14.415 -0.1028 -0.2777  0.0002
 3657W        W19918  17.900   0.270   3.307  0.1999  0.0006 -0.0801
 3658W        W19919   3.273  17.521   2.129  0.0065  0.1314 -0.0695
 3659W        W19920  13.291   0.561   4.450  0.1431  0.0573 -0.3261
 3660W        W19921  18.002   6.777  14.544  0.0445 -0.0295 -0.1932
 3661W        W19922   2.552   3.952  15.292 -0.0791  0.1623 -0.2379
 3662W        W19923  15.159   4.042   2.952  0.3784 -0.3646 -0.1308
 3663W        W19924   7.988   3.306   0.897  0.0339  0.4070 -0.0695
 3664W        W19925   7.239  18.040   0.476  0.1997  0.1919  0.0383
 3665W        W19926   4.910  15.592   1.527  0.1852  0.0927  0.0878
 3666W        W19927   2.852   2.835   4.574  0.3654  0.0840  0.2159
 3667W        W19928   8.826  10.588  10.836  0.0856 -0.4647  0.1266
 3668W        W19929   7.751  17.408  11.895  0.2234  0.2713 -0.1203
 3669W        W19930  18.204  15.683  13.236  0.1151 -0.3087 -0.1551
 3670W        W19931  15.299   5.734  11.468  0.1248  0.0882 -0.3566
 3671W        W19932   1.339   9.991   3.464  0.0911 -0.1243  0.3834
 3672W        W19933   1.865  17.858  16.109 -0.0205 -0.0514 -0.1334
 3673W        W19934  12.166  17.054   2.943  0.1628  0.0478 -0.1666
 3674W        W19935   0.339   5.821  11.457  0.0212 -0.0554 -0.1405
 3675W        W19936   2.574  13.250  16.091  0.1942 -0.1044 -0.0633
 3676W        W19937  15.178   9.793   5.509 -0.3640 -0.0230 -0.1799
 3677W        W19938   9.340   8.813   3.106 -0.0821 -0.1521  0.0639
 3678W        W19939   2.613   9.181   1.625  0.0276 -0.2371  0.3147
 3679W        W19940  13.478   7.828   5.570 -0.1234  0.1609 -0.0588
 3680W        W19941  16.532  15.325  11.418 -0.3814  0.0020 -0.1477
 3681W        W19942   4.189  13.335   3.700  0.0730 -0.0803 -0.1431
 3682W        W19943   0.648   6.532  15.515 -0.0734 -0.3635  0.0661
 3683W        W19944  14.632  12.142   1.100 -0.0305  0.3979 -0.0955
 3684W        W19945   6.765  11.514   4.941 -0.0482  0.0147  0.1175
 3685W        W19946  10.823   6.877  12.918  0.2111 -0.1760  0.1904
 3686W        W19947   3.851   8.028   0.346  0.0029  0.1294  0.2561
 3687W        W19948  13.396  18.441   3.229 -0.0103 -0.2936  0.1129
 3688W        W19949  13.023   7.896   1.596 -0.0473  0.3922  0.2101
 3689W        W19950  10.903   4.751   4.777  0.1034 -0.0676 -0.0319
 3690W        W19951   5.268  16.110   3.804  0.0582 -0.2663  0.0896
 3691W        W19952  15.945  13.572   4.615  0.1177 -0.0365 -0.1129
 3692W        W19953  12.301   1.437  13.766 -0.1917  0.0737 -0.1171
 3693W        W19954   1.818   8.648  15.520 -0.1320 -0.2911  0.1119
 3694W        W19955  15.447   0.076   3.997  0.0800  0.2131  0.0551
 3695W        W19956   2.740  14.739   5.321 -0.3230  0.1771 -0.0551
 3696W        W19957   4.136  12.006  12.697  0.0828 -0.1288  0.1318
 3697W        W19958   0.274   7.416  12.742  0.2614  0.1887 -0.1629
 3698W        W19959   6.928  16.280  13.798 -0.2268  0.1154 -0.0499
 3699W        W19960   1.863   8.756   5.348 -0.0788 -0.2622  0.0552
 3700W        W19961  16.212  14.311   0.996 -0.0482 -0.1296 -0.2069
 3701W        W19962   1.155  15.184   0.344 -0.0937  0.0308  0.1023
 3702W        W19963   1.227   7.507  12.542  0.0032 -0.1712 -0.0112
 3703W        W19964  11.326   2.907  13.716  0.0243 -0.0588 -0.0764
 3704W        W19965   7.707   3.657   3.890 -0.0285  0.0311  0.0842
 3705W        W19966   9.652  11.641  14.434 -0.0786  0.0057  0.1355
 3706W        W19967  15.383   7.407  11.069 -0.0711 -0.4821  0.3330
 3707W        W19968  13.294   5.336  13.583  0.0870 -0.0016 -0.1871
 3708W        W19969   7.753   9.230  12.000  0.1115  0.4070 -0.0857
 3709W        W19970   6.871  10.912  11.428  0.0296 -0.1222 -0.1535
 3710W        W19971   2.683  11.179   5.398 -0.3727  0.1177  0.1689
 3711W        W19972   1.795  13.512  10.977 -0.1584  0.1566  0.2455
 3712W        W19973   1.447   4.573   0.851  0.2107  0.2115  0.4604
 3713W        W19974  18.251   2.054  12.788  0.0490  0.0563  0.1195
 3714W        W19975   8.359  15.442  14.251 -0.2769  0.3367 -0.2718
 3715W        W19976   7.419   0.825  12.396  0.1619 -0.1160 -0.0493
 3716W        W19977   9.318   9.463  12.174 -0.1554 -0.1911 -0.2812
 3717W        W19978   5.386  15.634   2.951  0.0432 -0.1206 -0.0856
 3718W        W19979  12.192   3.324   0.934  0.0749  0.1001  0.2089
 3719W        W19980   7.755  10.724   6.706  0.1070 -0.6934  0.0159
 3720W        W19981   0.960  11.818  13.501  0.2958 -0.0332  0.2016
 3721W        W19982  17.276  11.381  13.024  0.1275  0.2476  0.4118
 3722W        W19983   7.072   0.011   0.467  0.0254 -0.0366 -0.0423
 3723W        W19984  13.701   6.569  12.447 -0.0113 -0.1382 -0.3188
 3724W        W19985   6.722  12.281  12.739 -0.4653  0.0973 -0.1325
 3725W        W19986   3.286  11.759  12.446  0.0995 -0.0130  0.0283
 3726W        W19987   3.196  11.808  16.090  0.0484 -0.0762  0.3072
 3727W        W19988   4.230  10.200  15.049 -0.0775  0.0781 -0.0297
 3728W        W19989   3.690   8.548  12.692  0.0477 -0.0817 -0.0665
 3729W        W19990   5.191  14.807  14.436  0.0539  0.0406 -0.0452
 3730W        W19991   3.795  14.073   5.178  0.1240 -0.0069  0.1071
 3731W        W19992   7.046  13.192  14.379  0.1023  0.0646  0.3254
 3732W        W19993  12.525   4.229  13.736 -0.2820  0.1614 -0.2441
 3733W        W19994   0.124   1.051  15.335  0.0405  0.0190  0.1056
 3734W        W19995  13.193  16.921   3.081  0.0723 -0.1814 -0.1362
 3735W        W19996  17.893   1.477  11.162  0.1211 -0.1063 -0.0106
 3736W        W19997   0.122  13.246  15.234  0.3076 -0.3518  0.0720
 3737W        W19998   6.446   1.293  13.327 -0.1365  0.3158  0.0195
 3738W        W19999  16.174   2.903   2.392 -0.4222 -0.2989 -0.1966
 3739W        W20000   4.541  17.797  14.482 -0.0396 -0.2624  0.4735
 3740W        W20001   4.545  13.579   5.556  0.1008  0.4088  0.0782
 3741W        W20002   0.547  10.990  12.633  0.1868 -0.4433 -0.0265
 3742W        W20003   5.648   6.305  14.234 -0.1492 -0.0034  0.1959
 3743W        W20004   9.032   8.457   1.978 -0.0227 -0.1251  0.1227
 3744W        W20005   1.190  16.864   2.010 -0.0916 -0.0192 -0.0070
 3745W        W20006  11.227   1.608   1.659  0.2367  0.2190 -0.0542
 3746W        W20007   0.485   2.810   2.604  0.1883  0.2470  0.3740
 3747W        W20008  17.883  11.598   4.294  0.2487 -0.1405  0.4929
 3748W        W20009   0.449   0.031   1.386 -0.2640 -0.0274  0.0470
 3749W        W20010   2.032   0.620   0.233  0.1569 -0.0160  0.3430
 3750W        W20011  10.278   8.358  11.471 -0.1375  0.2624  0.0925
 3751W        W20012   8.069   9.977  11.970 -0.0750  0.2232 -0.1967
 3752W        W20013   2.516   1.133  13.397 -0.1419 -0.2044  0.4261
 3753W        W20014  14.592   4.062  13.063 -0.0862 -0.1969  0.2140
 3754W        W20015   7.560   5.315   5.361 -0.1847 -0.0603 -0.0384
 3755W        W20016   7.382  12.125   0.333 -0.4343 -0.2121  0.0369
 3756W        W20017   8.238   6.519  15.385  0.3349  0.0077  0.1030
 3757W        W20018  10.665   0.925   4.150  0.0143  0.0382  0.0963
 3758W        W20019   6.996  16.920  13.206 -0.0548 -0.0514  0.0983
 3759W        W20020   0.711  12.161  12.975  0.1524 -0.1117  0.1652
 3760W        W20021   6.619   2.355   1.360  0.1464  0.1501  0.2559
 3761W        W20022  13.359  14.710   2.908  0.0489  0.3163 -0.1482
 3762W        W20023   1.148   4.578  13.924 -0.1099  0.0423  0.3239
 3763W        W20024   4.513  16.827   2.564  0.0840  0.0314 -0.0315
 3764W        W20025   6.925   3.511   1.407 -0.1475  0.3688  0.2121
 3765W        W20026  14.138   5.035  12.083 -0.0661 -0.4107 -0.0674
 3766W        W20027  12.771  13.260  14.058  0.1104 -0.3478 -0.3718
 3767W        W20028  18.387  15.953   1.138 -0.2128  0.1629 -0.4037
 3768W        W20029   7.511  17.499   2.068 -0.0630 -0.2201  0.1953
 3769W        W20030  17.946  16.320   4.793  0.2120 -0.3062  0.1293
 3770W        W20031   6.772   6.518   5.086  0.3454  0.2008 -0.1972
 3771W        W20032   5.071  12.262  16.037  0.1701  0.2608  0.4204
 3772W        W20033   3.347  12.536  15.288 -0.1339  0.0033  0.0540
 3773W        W20034  10.837   6.159   4.212 -0.0870  0.0651 -0.0717
 3774W        W20035  16.454   9.330   0.923 -0.0134 -0.2652 -0.1404
 3775W        W20036   8.404  16.779   0.636 -0.0662  0.3977 -0.1703
 3776W        W20037   5.865   6.112   3.429  0.0953  0.1484 -0.0753
 3777W        W20038   7.785  10.198  12.647  0.3643  0.2740  0.3819
 3778W        W20039   1.397  11.452   5.155 -0.1858  0.1773 -0.2842
 3779W        W20040   0.810  14.856   2.035 -0.0640 -0.0542 -0.0456
 3780W        W20041   6.713  10.929   0.984 -0.2592 -0.0037 -0.0157
 3781W        W20042   4.834  14.801   3.798 -0.2086  0.1897 -0.0008
 3782W        W20043   6.942  14.724   1.483 -0.0682 -0.0800 -0.3099
 3783W        W20044   1.458   6.098  15.493 -0.3521  0.2888  0.2131
 3784W        W20045   2.631   1.769  14.574  0.0171 -0.1347  0.2291
 3785W        W20046  10.393  10.294   4.824 -0.3557  0.2011  0.1782
 3786W        W20047  17.399   8.025   2.053 -0.0500  0.0920 -0.2289
 3787W        W20048   2.469   2.992  15.170 -0.0766  0.4062  0.0085
 3788W        W20049   7.645  16.362  12.511 -0.0554 -0.2065  0.2592
 3789W        W20050  11.130   8.056   4.244  0.2604  0.2226  0.1627
 3790W        W20051   7.648  17.477   5.524 -0.1708 -0.1394 -0.2480
 3791W        W20052   7.013   4.627  12.015 -0.0164 -0.1384 -0.1654
 3792W        W20053  17.083   5.010   3.308  0.3233 -0.1330 -0.3776
 3793W        W20054   8.658  18.160  12.253  0.1374  0.0098 -0.2635
 3794W        W20055   0.337  10.307  15.343  0.0994  0.2061 -0.2406
 3795W        W20056  17.814  17.703  14.972 -0.1328 -0.5401  0.2410
 3796W        W20057   5.234   0.396   1.005 -0.1482  0.2332  0.0441
 3797W        W20058   8.702  15.915   0.266  0.1456 -0.3194  0.0206
 3798W        W20059   2.969   4.582  12.587 -0.0693 -0.0316 -0.0117
 3799W        W20060   6.286   6.965  14.835 -0.0232 -0.1195  0.1243
 3800W        W20061   6.846  13.259   1.534 -0.3282  0.1232 -0.0261
 3801W        W20062  14.748   2.278  11.011  0.1090  0.1731  0.1130
 3802W        W20063  13.203   4.405  15.895 -0.3264 -0.1328  0.1060
 3803W        W20064   8.801   9.781   5.254 -0.1840 -0.2611 -0.1635
 3804W        W20065  17.127   0.758  10.925  0.2605 -0.4072 -0.1923
 3805W        W20066   5.871   3.634  11.786 -0.3268 -0.0539 -0.1059
 3806W        W20067   4.113   1.539   1.652  0.3385  0.0124 -0.1230
 3807W        W20068  10.398  13.626  11.159 -0.1405 -0.0845 -0.0949
 3808W        W20069  16.488   5.836   4.099 -0.2407  0.2171 -0.0484
 3809W        W20070   9.235   6.253  15.736 -0.3598 -0.2716 -0.0821
 3810W        W20071  12.321   9.129   5.487  0.0246 -0.0698 -0.2061
 3811W        W20072  15.461   3.380  16.066  0.3238  0.1146  0.2064
 3812W        W20073   8.318   1.944  11.511  0.0983  0.0218  0.2839
 3813W        W20074   9.006  17.611   1.759  0.3008 -0.1848 -0.0467
 3814W        W20075   1.199   6.569  12.838 -0.2711 -0.1785 -0.2540
 3815W        W20076   4.777   9.071  10.246 -0.1688  0.0637  0.1282
 3816W        W20077   6.024  16.764  15.527 -0.1123  0.1628 -0.0989
 3817W        W20078   1.627  16.504   4.896 -0.2698 -0.1249 -0.0650
 3818W        W20079  16.062  13.985   4.322  0.1276  0.1564  0.4120
 3819W        W20080  14.080   2.799  10.794  0.0040 -0.0799 -0.1183
 3820W        W20081   7.111   8.759   1.102  0.1945  0.3438  0.0656
 3821W        W20082   7.215   7.714  13.670  0.0692 -0.3176  0.1889
 3822W        W20083   1.966  12.820   5.026 -0.1938 -0.0452  0.0024
 3823W        W20084  14.900  18.447   3.272 -0.2989  0.1339  0.0085
 3824W        W20085  17.596   5.101   3.942  0.4236 -0.0417  0.0401
 3825W        W20086   8.541  11.095   2.306 -0.0584 -0.1672  0.0038
 3826W        W20087  10.743  17.443   1.852 -0.0190  0.2148  0.0446
 3827W        W20088  14.746  16.756   0.426  0.2209  0.0519 -0.0282
 3828W        W20089   2.913  13.026  15.008 -0.1858 -0.0180 -0.0766
 3829W        W20090   5.862   5.391  14.784 -0.0336 -0.5710 -0.0022
 3830W        W20091   9.327  16.262   4.073  0.1676  0.0005 -0.3400
 3831W        W20092  10.934   7.044   2.157  0.3196  0.1904 -0.1925
 3832W        W20093  18.448  17.848  11.477 -0.2301  0.0957 -0.0912
 3833W        W20094  11.999  15.315  13.388 -0.0408  0.1310  0.0425
 3834W        W20095  18.412   2.360  11.504 -0.0552  0.0283 -0.0270
 3835W        W20096   4.100  13.027  15.827  0.2750  0.2712  0.0891
 3836W        W20097  15.233   9.524   4.275 -0.1862 -0.0167 -0.0130
 3837W        W20098   8.635  16.031   0.847  0.0866  0.0439 -0.3791
 3838W        W20099  11.931   7.944   4.351  0.1120 -0.0536 -0.2023
 3839W        W20100  14.460   3.807   5.033 -0.0440  0.1531  0.0489
 3840W        W20101   0.613   8.275  14.391 -0.1484 -0.0070 -0.1256
 3841W        W20102  12.145   0.935   3.078  0.1593 -0.0518 -0.1467
 3842W        W20103  16.409  17.504   3.500  0.0104 -0.1372 -0.3983
 3843W        W20104  17.935   0.493  11.466  0.0136  0.1241 -0.0308
 3844W        W20105  17.960   7.865  12.938  0.1262  0.0097  0.2888
 3845W        W20106  13.150   6.144   1.518  0.0641  0.4304 -0.1360
 3846W        W20107  15.292   7.754  16.172  0.0249 -0.1811 -0.0143
 3847W        W20108  16.759   0.111  10.989 -0.2473  0.3749 -0.2080
 3848W        W20109  15.158   3.641   0.309 -0.2418 -0.0709 -0.0315
 3849W        W20110   9.442   6.311   2.014  0.0998 -0.1512  0.0368
 3850W        W20111  18.190   7.990   3.290  0.1794  0.1089 -0.0121
 3851W        W20112   5.046   3.004  15.896  0.1554  0.1633  0.3002
 3852W        W20113   2.475   0.856   0.594 -0.3985  0.1973 -0.3071
 3853W        W20114  15.981  18.367  14.040  0.4763 -0.0285 -0.0809
 3854W        W20115   0.694   1.702   0.750  0.0158  0.0996  0.3491
 3855W        W20116  14.956  17.874   1.858  0.0707  0.2545  0.0359
 3856W        W20117  16.357   4.239  15.490 -0.1023  0.0358  0.0136
 3857W        W20118  18.330  12.366  10.992  0.2006 -0.1429 -0.0155
 3858W        W20119  11.646   6.024  15.006 -0.0969  0.1366 -0.0427
 3859W        W20120  11.489   3.794  15.110 -0.0592 -0.0320 -0.1572
 3860W        W20121  12.697  17.633   0.242  0.1967 -0.0630  0.2330
 3861W        W20122  12.153  13.861   5.245 -0.0437  0.1993 -0.1261
 3862W        W20123   2.592  15.704   4.610 -0.0790 -0.0459  0.1391
 3863W        W20124  11.237  10.911  11.651 -0.1045  0.0785  0.0002
 3864W        W20125  14.839   3.601  11.939 -0.0402  0.0369  0.3661
 3865W        W20126   6.246   3.491  15.837  0.0798 -0.2436 -0.1267
 3866W        W20127  16.487   5.397   1.759 -0.0382  0.2106  0.0164
 3867W        W20128  14.098   8.205  14.698  0.0065 -0.1053  0.3490
 3868W        W20129  16.104  13.848  11.276 -0.0732 -0.1026  0.1749
 3869W        W20130   4.600  12.624  14.450  0.1440 -0.0613 -0.1111
 3870W        W20131   3.116   0.193  12.023  0.2542 -0.1103 -0.3499
 3871W        W20132  15.912   4.222   3.102 -0.0103  0.3402  0.2837
 3872W        W20133   2.630   1.560  13.148 -0.0163  0.1493 -0.2647
 3873W        W20134   9.578  12.862  12.405 -0.0217  0.0521 -0.3175
 3874W        W20135   2.506   0.348   3.808 -0.2744  0.0217  0.0552
 3875W        W20136   6.576   0.199  12.615 -0.0027  0.0342 -0.0085
 3876W        W20137   4.890   6.859   3.600  0.0454 -0.0052  0.3164
 3877W        W20138   6.622   0.946   1.649  0.0605 -0.0113 -0.1255
 3878W        W20139  14.238   3.192  14.101  0.2433 -0.1960 -0.1592
 3879W        W20140   9.838  15.489   1.402  0.0707 -0.2682 -0.1395
 3880W        W20141   8.091   4.113  13.381 -0.1561  0.2409 -0.0106
 3881W        W20142  18.167   1.065   1.951 -0.0067 -0.3475  0.4648
 3882W        W20143  15.284  16.864   3.808  0.1574 -0.0451  0.1699
 3883W        W20144   8.411   0.084   1.908  0.1749  0.0524 -0.2071
 3884W        W20145   4.597   8.780   3.289  0.3562  0.1411  0.1528
 3885W        W20146   2.781   1.488  14.999 -0.0260 -0.3653 -0.2195
 3886W        W20147  17.555   7.077   3.365  0.0022  0.1176  0.0032
 3887W        W20148  14.022   7.608   2.148  0.0049  0.0068 -0.2667
 3888W        W20149  13.604  11.861  15.518  0.3782 -0.3439  0.3081
 3889W        W20150  11.405  15.815  12.057 -0.0881 -0.0698 -0.1082
 3890W        W20151   6.309   6.464  15.000  0.1005  0.0856  0.0775
 3891W        W20152  12.706  13.826  10.853  0.2237 -0.0656 -0.0879
 3892W        W20153   4.365  14.523   0.404 -0.1097 -0.4184  0.2103
 3893W        W20154  14.211   0.096   0.200  0.0992 -0.1798 -0.1114
 3894W        W20155  16.135  13.282  14.791  0.1320 -0.0738 -0.1884
 3895W        W20156  11.517   9.918   5.219 -0.0847  0.2630 -0.1381
 3896W        W20157  16.239  17.180   3.843 -0.0965  0.2351  0.2509
 3897W        W20158   4.175  18.102  14.652  0.3123 -0.3992 -0.0808
 3898W        W20159  15.765  17.123  15.582 -0.0903 -0.1713  0.1469
 3899W        W20160   4.916  13.844   2.564  0.1690  0.1229  0.0894
 3900W        W20161  16.552  14.185   5.228 -0.2348 -0.1225  0.1048
 3901W        W20162   0.861  17.533   2.098 -0.0303 -0.0510 -0.2920
 3902W        W20163  10.713  14.093   2.426  0.1092  0.0282  0.0450
 3903W        W20164   5.312  15.226  15.695  0.0760  0.0581 -0.2832
 3904W        W20165  12.182   7.764   5.320  0.2498 -0.2266  0.2529
 3905W        W20166  16.522  12.559   5.428  0.1342 -0.0159 -0.1199
 3906W        W20167  16.205   2.620   1.178  0.1515 -0.2493 -0.4815
 3907W        W20168  11.409   8.665   3.374  0.1829 -0.2851  0.2895
 3908W        W20169  17.753  15.942  13.254  0.4074  0.0121  0.1007
 3909W        W20170   2.210  13.663  15.174  0.2775  0.0446 -0.2768
 3910W        W20171  14.121   4.913   2.751  0.1749  0.1765  0.0814
 3911W        W20172   5.771  17.228   3.177 -0.1230 -0.1158 -0.1619
 3912W        W20173   5.648   6.562  13.672 -0.0418 -0.2159  0.2300
 3913W        W20174  10.022  10.412   5.605  0.0650  0.1839 -0.0171
 3914W        W20175   8.735   8.681  14.122  0.1098 -0.3545  0.1095
 3915W        W20176   9.893   7.579  13.065  0.1348  0.1108 -0.2580
 3916W        W20177   6.844  13.999   6.270  0.0578  0.0976 -0.1249
 3917W        W20178   0.511  17.690  15.582  0.0394 -0.0108  0.1351
 3918W        W20179   0.870   0.668  15.280  0.0662  0.0033 -0.0418
 3919W        W20180  14.600  12.392  12.290 -0.0439  0.0706  0.0235
 3920W        W20181  16.796  16.248  10.423  0.1745  0.2598 -0.0237
 3921W        W20182  12.991   3.007   0.652 -0.1082  0.1079 -0.1666
 3922W        W20183  12.815   0.082  11.978  0.0398  0.0308 -0.1996
 3923W        W20184   4.079  10.667   5.836 -0.4359 -0.3171  0.0644
 3924W        W20185   5.222  13.509   3.497  0.1928 -0.2242 -0.1507
 3925W        W20186   5.705  16.395  15.320  0.0685  0.0988  0.1090
 3926W        W20187   4.423  17.307  11.579 -0.1971 -0.2280 -0.0425
 3927W        W20188  16.076   9.918   3.662  0.1213 -0.0750 -0.2915
 3928W        W20189   0.792  15.427  16.164 -0.1796 -0.0529 -0.1148
 3929W        W20190   2.832  16.853   4.073  0.0238  0.0518  0.1119
 3930W        W20191   7.785  18.366   4.372  0.2093 -0.2163 -0.0814
 3931W        W20192   6.947  10.097  12.425 -0.0741 -0.0796 -0.0826
 3932W        W20193   1.324   8.575  13.398 -0.1057  0.1010  0.1865
 3933W        W20194  11.409   9.892   3.953 -0.2588  0.1415  0.1342
 3934W        W20195  10.988  14.865   5.308  0.0123  0.4716  0.3111
 3935W        W20196   3.848   0.807  14.672  0.3267 -0.0766  0.2798
 3936W        W20197   8.545   1.546  13.212  0.0607  0.2577  0.1480
 3937W        W20198   8.826   8.581  15.604  0.0230 -0.4442 -0.0006
 3938W        W20199   7.051   5.915  12.828 -0.0451 -0.1218 -0.1072
 3939W        W20200   8.816   0.146   2.214  0.0345 -0.0087  0.3730
 3940W        W20201   9.587  18.090   2.317  0.0288 -0.1188  0.0550
 3941W        W20202   0.494  11.322  14.356 -0.0226 -0.1461 -0.0514
 3942W        W20203  10.172  12.027  13.627  0.1531  0.3066  0.2087
 3943W        W20204   0.500  12.958  16.144  0.3604  0.2647  0.2350
 3944W        W20205   8.726  16.984   3.334 -0.2463  0.0569  0.0966
 3945W        W20206   1.527   3.435  16.176  0.2507 -0.0257 -0.0759
 3946W        W20207   8.496  11.816  13.195  0.1589  0.1107  0.1904
 3947W        W20208   7.818  11.761  14.039  0.2783  0.1285 -0.1880
 3948W        W20209   5.385   6.123   1.010 -0.1095 -0.0759  0.1747
 3949W        W20210  17.386  16.079  14.758 -0.2306 -0.1850  0.1087
 3950W        W20211   0.009   0.524  13.134 -0.3031  0.1470 -0.2446
 3951W        W20212  18.248   1.427  13.710 -0.1433 -0.1115  0.2712
 3952W        W20213  16.313   0.586  15.650 -0.0535 -0.0808 -0.0335
 3953W        W20214   9.780   3.321   2.644 -0.2733  0.3655  0.0828
 3954W        W20215   2.155  13.279   0.256  0.4745  0.2506  0.1995
 3955W        W20216  15.322   1.763   2.708  0.0758 -0.2864  0.0106
 3956W        W20217   7.830  10.205   4.274  0.0214 -0.1564  0.0455
 3957W        W20218  12.491   7.435   4.991 -0.1767  0.0446 -0.0167
 3958W        W20219  15.524  12.295  13.381  0.0551 -0.1210  0.1880
 3959W        W20220  13.522   4.659   0.895  0.0587  0.1477 -0.0775
 3960W        W20221   0.729  10.071  12.689 -0.0681  0.0841 -0.1857
 3961W        W20222   9.379  10.599  12.091  0.1710 -0.0247  0.1470
 3962W        W20223   6.282  11.109   3.395 -0.0144  0.3684  0.0946
 3963W        W20224  16.062  17.058   1.688 -0.1450 -0.2681 -0.2634
 3964W        W20225   3.246  11.097   2.510 -0.1592  0.3158  0.0657
 3965W        W20226   2.524   3.369  12.645  0.0273 -0.2015 -0.0476
 3966W        W20227   0.984   2.017   1.618  0.0079 -0.1992  0.2532
 3967W        W20228   9.740   2.879  15.045  0.3589 -0.1293  0.0655
 3968W        W20229   2.900  15.447   4.132 -0.2052  0.3300 -0.2019
 3969W        W20230   1.895  18.237   0.291  0.1341  0.1639 -0.3369
 3970W        W20231  11.918  11.702   4.788  0.0284 -0.0959 -0.1360
 3971W        W20232  13.248  18.040   4.122 -0.0093  0.0731 -0.2554
 3972W        W20233   4.878  15.495   0.431  0.1599 -0.0111 -0.2691
 3973W        W20234  11.390   2.387   2.889  0.3039 -0.0404  0.2429
 3974W        W20235  13.148   8.524   2.708  0.0371  0.3030  0.0188
 3975W        W20236  14.564  10.674  13.756 -0.0132  0.0671 -0.3562
 3976W        W20237   3.850   7.580  14.701 -0.2985 -0.3364  0.1551
 3977W        W20238  17.148  16.740  12.995 -0.2322  0.3242  0.1461
 3978W        W20239  15.316   6.168  14.125  0.0127 -0.0025  0.0294
 3979W        W20240   3.897  18.467   1.357  0.3333  0.1648  0.0006
 3980W        W20241  15.992   0.549   4.368 -0.2043 -0.0378 -0.0446
 3981W        W20242  15.186   8.386  12.149  0.3973 -0.1507  0.4490
 3982W        W20243   4.001  17.710   6.148 -0.1411  0.0508 -0.2345
 3983W        W20244  13.468   1.613   3.878 -0.0256  0.2238 -0.0403
 3984W        W20245  11.546  12.094  15.959 -0.1997 -0.1186 -0.2299
 3985W        W20246  12.772   8.352  11.886 -0.0279 -0.0969  0.1976
 3986W        W20247   1.935   3.370  14.960 -0.0613 -0.2442  0.0130
 3987W        W20248  10.279   2.434  13.575 -0.1745 -0.0787 -0.2608
 3988W        W20249  16.084   6.640   0.113  0.1379 -0.1038  0.0665
 3989W        W20250   7.441   3.813   1.248 -0.0542 -0.2228  0.1309
 3990W        W20251  14.066  18.377  10.215  0.1433  0.0669  0.3089
 3991W        W20252   9.330   9.046   5.059  0.1595 -0.1612  0.0433
 3992W        W20253  10.485  18.116  15.441  0.0113 -0.0018  0.0699
 3993W        W20254   2.696  13.703  14.405  0.0073  0.1336 -0.1189
 3994W        W20255   7.665   4.187   3.500  0.0405  0.0639 -0.3368
 3995W        W20256   9.588  12.780   4.239  0.1078 -0.0135 -0.2065
 3996W        W20257  15.380  12.291   4.875  0.4314 -0.3482 -0.0873
 3997W        W20258  10.821   3.495  12.143 -0.2803 -0.1360  0.1874
 3998W        W20259  16.727  18.000  13.832 -0.1362 -0.2781  0.2236
 3999W        W20260  14.731   4.100  15.868 -0.1530 -0.3296  0.0649
 4000W        W20261  12.960   1.200  15.837 -0.2360  0.0128  0.0910
 4001W        W20262  16.681  15.731   4.442 -0.0687  0.1853 -0.1774
 4002W        W20263   9.509   9.079  11.905 -0.0376 -0.4420 -0.0551
 4003W        W20264  18.285   9.500   4.326  0.0401  0.0456  0.1114
 4004W        W20265   1.153   0.335   4.608  0.2419 -0.1913  0.0312
 4005W        W20266   3.466   9.945  14.495  0.0434 -0.2006 -0.0929
 4006W        W20267   6.852   6.471   6.035  0.0417  0.0650  0.2779
 4007W        W20268   8.972  10.541   2.038 -0.2321  0.0526 -0.3247
 4008W        W20269   8.417   3.304  12.185  0.3042 -0.0285  0.1594
 4009W        W20270  12.890   8.037   4.306  0.2569 -0.0105 -0.1380
 4010W        W20271   0.344  11.268   4.378  0.0897  0.1273  0.0324
 4011W        W20272   1.337   2.175   0.767  0.1029  0.0963 -0.0201
 4012W        W20273   1.998  12.328  14.877 -0.3274  0.2422  0.0239
 4013W        W20274   8.219   8.466   2.778  0.3398 -0.1176 -0.0699
 4014W        W20275  17.410  15.652   1.084 -0.0015  0.0164 -0.1049
 4015W        W20276  15.129  12.756  14.950 -0.1488  0.1672  0.1839
 4016W        W20277   9.641   5.115  14.022 -0.1158  0.1354 -0.0539
 4017W        W20278   7.510  15.571   4.901 -0.0636  0.2184 -0.0366
 4018W        W20279  17.113   3.661   2.003 -0.2114  0.2809 -0.0105
 4019W        W20280   9.125   2.805   0.569  0.2034 -0.4278  0.1657
 4020W        W20281  17.480   9.701  15.012  0.0950  0.0199  0.0383
 4021W        W20282   6.899   8.450  11.633  0.0696 -0.0271 -0.0465
 4022W        W20283  16.310  14.340  10.477  0.2877  0.1787 -0.1175
 4023W        W20284  16.285   6.587  15.314  0.1143 -0.3456  0.0210
 4024W        W20285   2.782  17.317  13.261 -0.3597  0.1591  0.1681
 4025W        W20286   3.489  16.246  12.273 -0.0010  0.0486 -0.1874
 4026W        W20287   2.616   4.458   2.943 -0.1956 -0.2183  0.1172
 4027W        W20288   6.078  15.595   2.606  0.1579  0.1650  0.1844
 4028W        W20289  14.873   3.241   4.647  0.2050  0.0309 -0.1587
 4029W        W20290  14.470  17.274  13.483  0.0719 -0.1604  0.2394
 4030W        W20291  12.091   3.622   3.387 -0.1988 -0.1046 -0.2766
 4031W        W20292   8.314  17.277   3.359 -0.1271 -0.1400 -0.1156
 4032W        W20293   5.532   1.570   4.480 -0.1408 -0.1516 -0.0306
 4033W        W20294  11.775  17.372   2.877 -0.2519  0.0123 -0.0649
 4034W        W20295  16.004   7.580  14.364 -0.3082 -0.0431 -0.0761
 4035W        W20296  17.732   1.543   5.994 -0.0584 -0.1138 -0.3578
 4036W        W20297  10.049   9.299  14.139 -0.2365  0.2057  0.2903
 4037W        W20298   0.884  10.515  14.081 -0.2816 -0.0594 -0.1551
 4038W        W20299   7.390  10.717  14.715 -0.2212  0.1272 -0.1111
 4039W        W20300   1.633   1.521   2.173  0.2529 -0.1365  0.2114
 4040W        W20301  13.349   9.795   4.828  0.1850 -0.1652 -0.0046
 4041W        W20302   0.540   2.994   4.592 -0.0789 -0.2357  0.1554
 4042W        W20303   3.604  14.615  11.918 -0.1133  0.1932 -0.2623
 4043W        W20304  12.738   0.859  15.569  0.1915  0.4139  0.0226
 4044W        W20305  12.563  14.292  11.060  0.0449  0.0395 -0.2339
 4045W        W20306  13.165   2.632  10.581 -0.1947  0.1329  0.3801
 4046W        W20307  15.965  11.503   3.904  0.1993  0.1047  0.0344
 4047W        W20308  12.226   3.485  16.016  0.1306  0.1668  0.3359
 4048W        W20309  10.725  10.066   0.230  0.1109  0.1162 -0.3457
 4049W        W20310   3.900  10.306  13.290  0.1865  0.2624 -0.0446
 4050W        W20311  12.862  17.629   2.001 -0.1185 -0.1345  0.0446
 4051W        W20312   9.667   5.829   1.323  0.0987  0.1237 -0.2759
 4052W        W20313   4.865   6.921  12.963 -0.0138  0.0050 -0.2008
 4053W        W20314  13.710  15.987  11.946 -0.1443  0.0737 -0.2214
 4054W        W20315   3.261  16.879   3.815 -0.2178 -0.0017  0.1476
 4055W        W20316  18.202   8.043   1.170 -0.2998  0.1130  0.4258
 4056W        W20317  18.108   4.066  12.841 -0.1933 -0.0225  0.1675
 4057W        W20318   5.069   5.629   4.727  0.0395 -0.1066 -0.1522
 4058W        W20319  14.885  15.684  13.975 -0.1455  0.0262 -0.0211
 4059W        W20320   4.499  12.804  16.039 -0.1898  0.1053 -0.2636
 4060W        W20321   0.973   2.020  14.894 -0.0150 -0.0600 -0.1366
 4061W        W20322   0.342  10.583   5.758 -0.3943  0.0055  0.1662
 4062W        W20323   6.900  12.321  11.329  0.0852 -0.1888 -0.1765
 4063W        W20324  14.927   6.282  12.060  0.3534 -0.0484 -0.0937
 4064W        W20325  13.007  11.410  13.622 -0.0102 -0.0374  0.0589
 4065W        W20326   9.663   3.974  15.770 -0.1996 -0.1191  0.0445
 4066W        W20327   4.767   3.817  11.728  0.1348 -0.2491  0.1050
 4067W        W20328   3.135   0.153   4.856  0.2262 -0.2339  0.0144
 4068W        W20329   1.790   3.743  13.391  0.1627  0.3288  0.0285
 4069W        W20330   3.526   7.028  12.951  0.2690 -0.2549 -0.4498
 4070W        W20331   0.930   8.230   3.221 -0.3145 -0.1972  0.0667
 4071W        W20332  14.062  12.543  15.711 -0.1447  0.3106 -0.0005
 4072W        W20333   0.491   2.619  14.870 -0.3598  0.2373  0.0772
 4073W        W20334  17.844   7.022  13.321  0.1330  0.0625  0.1188
 4074W        W20335   8.259  12.490  11.279  0.1385  0.1531  0.0563
 4075W        W20336  15.248  12.657  15.589 -0.0627 -0.0980  0.0487
 4076W        W20337   5.700   0.488   3.803 -0.1881  0.2591 -0.1023
 4077W        W20338   1.197  17.578   3.230 -0.1874  0.2349 -0.0338
 4078W        W20339  11.593  15.354   1.270 -0.2294  0.2725  0.0624
 4079W        W20340  17.301  13.854  13.870  0.1421 -0.0512 -0.0547
 4080W        W20341   7.819  17.920  12.833 -0.0654  0.0042 -0.1210
 4081W        W20342  10.550  14.421  14.147  0.3974  0.0086 -0.1155
 4082W        W20343   3.971   5.871   1.179  0.0197 -0.3680  0.0339
 4083W        W20344   0.166   9.215   3.364  0.1381  0.3270  0.1718
 4084W        W20345   5.980   5.596  14.280 -0.1081  0.2884  0.2847
 4085W        W20346  16.819   8.047  12.827  0.2050 -0.2736  0.2736
 4086W        W20347   9.527   9.784   3.824 -0.1476  0.2295  0.0040
 4087W        W20348  12.193   9.820  15.359  0.1876  0.1269 -0.2096
 4088W        W20349   1.362   3.141   0.607 -0.3208 -0.2141  0.0334
 4089W        W20350   3.216  10.196  11.907  0.0406 -0.2565  0.0137
 4090W        W20351   9.567   8.943  12.419 -0.0828  0.1899  0.0220
 4091W        W20352  12.913  11.227   9.989 -0.0776  0.0116 -0.1391
 4092W        W20353   4.782   2.253   4.724  0.2936 -0.0137  0.0956
 4093W        W20354   1.450  15.024  15.153 -0.0108  0.1104  0.0931
 4094W        W20355   7.175   1.863  12.238 -0.3520 -0.0559  0.1594
 4095W        W20356   4.997  10.320  12.257 -0.1406 -0.0903  0.1918
 4096W        W20357  12.868  15.914   1.114 -0.0887 -0.4615 -0.1619
 4097W        W20358   9.911   0.426  11.824  0.1843  0.1994 -0.1268
 4098W        W20359   9.650   8.192   2.579  0.1913 -0.1680  0.1738
 4099W        W20360   3.627  12.958   5.708  0.0590 -0.0255 -0.0698
 4100W        W20361   3.317   3.725  15.010  0.2713  0.1480  0.0276
 4101W        W20362  10.043   4.932  15.896 -0.3893  0.2644 -0.3025
 4102W        W20363   3.804  16.551   2.845 -0.1420  0.0553  0.1877
 4103W        W20364  10.511   3.969  13.957  0.2911 -0.1576 -0.0655
 4104W        W20365   6.682   8.836  15.126  0.1728 -0.0047  0.0210
 4105W        W20366   1.672   4.125  11.875 -0.4048 -0.2234 -0.3922
 4106W        W20367   6.601  12.010  13.694  0.0695 -0.0035  0.1245
 4107W        W20368   8.926  11.908   2.380 -0.1163  0.1980 -0.3159
 4108W        W20369  18.075   9.385  13.014  0.1269 -0.3429 -0.1447
 4109W        W20370   3.110  12.243  13.822 -0.0763  0.2027 -0.0533
 4110W        W20371   6.312   4.095   6.690  0.0526  0.1041  0.1307
 4111W        W20372  15.216  14.479   3.319 -0.1024 -0.0316 -0.1763
 4112W        W20373  10.971   8.584  15.044  0.0379  0.0610 -0.0843
 4113W        W20374  17.934  16.273   2.542  0.0378  0.0083  0.2856
 4114W        W20375  13.459  16.822   2.141 -0.0608 -0.0978  0.1203
 4115W        W20376  13.927  10.523   2.131  0.2069 -0.4735 -0.1043
 4116W        W20377  16.601   8.654  10.916  0.1415 -0.0199 -0.0379
 4117W        W20378  10.734   4.362  11.761  0.0056  0.2919 -0.0780
 4118W        W20379   6.048   4.630   2.770 -0.2522  0.0851 -0.1924
 4119W        W20380  11.850   0.862   4.162 -0.2841 -0.0143  0.0108
 4120W        W20381  14.982   0.164   1.569 -0.1353 -0.0012 -0.0682
 4121W        W20382  16.295  17.540   1.756 -0.2520  0.3408 -0.1696
 4122W        W20383  12.511   6.315   0.224 -0.1132  0.4417  0.0230
 4123W        W20384   3.667  10.710   1.636 -0.0164 -0.0036  0.2170
 4124W        W20385  14.505   1.766  13.105 -0.2043 -0.3067  0.3622
 4125W        W20386   3.247   3.683   5.100  0.0274 -0.1935  0.1031
 4126W        W20387  16.529  14.441  11.605  0.1117 -0.3310  0.0619
 4127W        W20388  13.014   1.026  12.626  0.0067 -0.1222 -0.1834
 4128W        W20389  12.956   9.469   1.224 -0.0645 -0.0850  0.3092
 4129W        W20390   6.631   4.233  15.058  0.3213 -0.2799  0.3332
 4130W        W20391   6.324   9.229   0.162 -0.0802 -0.2385  0.2626
 4131W        W20392  17.223  17.201  12.745 -0.0840 -0.3174 -0.0956
 4132W        W20393  10.125   7.096   4.008 -0.0300  0.0112 -0.0622
 4133W        W20394   1.168  16.633   5.799  0.3309  0.1755  0.0529
 4134W        W20395  17.317   3.969  14.842  0.1380  0.1273  0.3068
 4135W        W20396  15.160  17.295  14.824  0.0977  0.2196  0.1668
 4136W        W20397  17.244   5.816  15.972 -0.1033 -0.3586  0.0630
 4137W        W20398  14.328   3.387   2.141 -0.0751  0.0696 -0.2374
 4138W        W20399   3.652   7.331  16.083 -0.0818 -0.1155  0.2410
 4139W        W20400   5.020   7.970   0.164 -0.0296 -0.1042 -0.1935
 4140W        W20401  14.793   7.173   5.191 -0.0239  0.1053 -0.0073
 4141W        W20402  11.055  10.498  11.432 -0.1552 -0.1678 -0.0527
 4142W        W20403   9.428  12.208  15.291 -0.3132  0.1308  0.1833
 4143W        W20404  10.868  12.461   4.772  0.0112  0.0951 -0.0408
 4144W        W20405  17.538   0.961  10.924 -0.2381 -0.1208 -0.0478
 4145W        W20406   6.541  17.620  12.593  0.3001 -0.0712 -0.2091
 4146W        W20407   3.577   1.829   5.110 -0.1531 -0.0122  0.1339
 4147W        W20408  14.931   6.192   3.194  0.2266  0.0469  0.0022
 4148W        W20409   6.858  11.522  14.169 -0.1490 -0.0480  0.2614
 4149W        W20410  12.030   6.540  13.131 -0.0262  0.2031 -0.1587
 4150W        W20411  17.284  11.747  12.687  0.0307  0.2550 -0.0936
 4151W        W20412   9.619  17.138   0.003  0.0390  0.0016  0.1704
 4152W        W20413  17.513   7.973   3.130 -0.2075 -0.1356 -0.0440
 4153W        W20414   4.618   0.228   2.987  0.2985 -0.1458  0.3955
 4154W        W20415   7.158  18.306  16.157  0.0553  0.0549  0.0557
 4155W        W20416  18.171   5.296  11.636  0.0747 -0.4182 -0.0816
 4156W        W20417  10.823  17.885  15.845 -0.0382 -0.0932  0.2054
 4157W        W20418   2.133   9.960   1.849  0.1351 -0.3603 -0.0934
 4158W        W20419  14.280  15.449  16.010 -0.1805  0.1512  0.1634
 4159W        W20420   0.081   6.087  12.640  0.1127  0.5293  0.3870
 4160W        W20421  11.745   5.650  10.703  0.1000 -0.2458 -0.2403
 4161W        W20422   8.966  12.521   5.225 -0.3573  0.1647 -0.3195
 4162W        W20423   9.260  16.821  15.331  0.0848  0.0176 -0.2027
 4163W        W20424  15.706  14.648  13.409 -0.0491  0.0674  0.1320
 4164W        W20425  13.652   7.632  16.175 -0.0597  0.0599  0.1832
 4165W        W20426   9.435  13.356  15.127 -0.0945  0.1984 -0.0203
 4166W        W20427   0.463  10.383   2.748  0.3645  0.4348  0.0683
 4167W        W20428   8.677   6.638   5.400 -0.0427  0.1073  0.0709
 4168W        W20429   7.355  11.892  16.011 -0.0344 -0.1758  0.0829
 4169W        W20430   5.711   9.701   5.016  0.0212 -0.0078  0.1677
 4170W        W20431   0.016   7.756  15.482  0.3900  0.1220 -0.2350
 4171W        W20432   8.188  18.044   3.265  0.0356  0.0389  0.1972
 4172W        W20433   8.805  15.656   3.460 -0.1246  0.1713  0.0963
 4173W        W20434   9.604  17.485   2.882 -0.0646  0.3208  0.1814
 4174W        W20435   0.328   3.513   2.947 -0.0923 -0.2361  0.3495
 4175W        W20436  16.596   9.360  12.843 -0.0056  0.1133  0.1882
 4176W        W20437   3.872   3.525   1.239 -0.1715  0.1277  0.0294
 4177W        W20438  16.101  14.399  13.496 -0.0154  0.1094 -0.1181
 4178W        W20439   5.579   2.603  13.841 -0.3696 -0.3131  0.0724
 4179W        W20440   4.668   9.336  15.509 -0.3615  0.1415 -0.1164
 4180W        W20441  17.553   2.982   1.625 -0.1349  0.0060 -0.1513
 4181W        W20442  13.997  17.182  14.172  0.1427 -0.1971  0.1228
 4182W        W20443  10.709   3.906  13.478  0.2402 -0.0818  0.1232
 4183W        W20444   8.357  10.553  12.891  0.0630  0.2298  0.1583
 4184W        W20445   1.337  12.464   4.326 -0.4106 -0.2682 -0.1593
 4185W        W20446   8.242  14.349   1.437 -0.2794  0.1542 -0.1498
 4186W        W20447   8.849  15.508   0.062  0.2563 -0.2050 -0.4020
 4187W        W20448   4.046  13.618   0.277  0.4001 -0.1478  0.1958
 4188W        W20449   9.769  16.719   5.702 -0.0427  0.1962 -0.4225
 4189W        W20450  13.539   2.668  14.164 -0.0214  0.0860 -0.2749
 4190W        W20451  18.440  16.105   2.634  0.0092  0.1843  0.0202
 4191W        W20452  14.266   8.216  13.164 -0.2308  0.3258 -0.2478
 4192W        W20453  11.190   2.002  15.531 -0.0691  0.1196 -0.1711
 4193W        W20454  17.565  13.395   5.009 -0.2639  0.0962 -0.2994
 4194W        W20455  11.727   0.569  15.136 -0.0848  0.0572 -0.1321
 4195W        W20456   8.263   6.115  15.682 -0.0037 -0.1730 -0.2238
 4196W        W20457   9.595  13.532   4.370 -0.1058 -0.1752  0.0797
 4197W        W20458   2.611   5.621   5.446  0.0152  0.2282 -0.1047
 4198W        W20459   1.107  12.828   3.199 -0.1538  0.2943 -0.0882
 4199W        W20460  12.470   9.321   1.890 -0.1916 -0.0653 -0.0401
 4200W        W20461   0.501   2.433   5.778  0.2072  0.1275 -0.0420
 4201W        W20462  13.495   3.733  15.107  0.0245 -0.1943 -0.1610
 4202W        W20463  11.137   6.034  12.944 -0.3224  0.0421 -0.1034
 4203W        W20464  11.043  11.322   5.318  0.2028  0.1478  0.2742
 4204W        W20465   9.558   0.684  12.182 -0.1725  0.3065 -0.0926
 4205W        W20466   2.898   8.065  13.611  0.1644 -0.0205 -0.0283
 4206W        W20467   7.650   3.541  13.848  0.1093  0.2015 -0.0326
 4207W        W20468  14.446  17.372   3.109  0.0840 -0.1254 -0.0317
 4208W        W20469   5.633   5.230  11.847  0.2831  0.1499  0.3163
 4209W        W20470  17.162   2.777   0.808  0.2688 -0.2821 -0.1520
 4210W        W20471   7.052  17.639   2.831  0.3226 -0.1858  0.3794
 4211W        W20472   7.209  12.479  11.987  0.1580 -0.1066 -0.0153
 4212W        W20473   6.194   5.098  14.218 -0.1615  0.1449  0.0318
 4213W        W20474  15.068  15.820   2.891 -0.0640 -0.1318  0.3356
 4214W        W20475  16.160   1.403  11.192 -0.3621  0.0773 -0.2130
 4215W        W20476   2.484   2.789   1.141 -0.0157  0.1731  0.0267
 4216W        W20477   1.051   9.004   5.564  0.1445  0.1535  0.1894
 4217W        W20478   9.551  11.598  14.915  0.3572 -0.0056 -0.0217
 4218W        W20479   4.047   8.893  15.734  0.1192 -0.0819  0.0918
 4219W        W20480  17.085   4.277   1.091 -0.0036  0.1178 -0.1810
 4220W        W20481  17.359  14.979  13.856 -0.2870  0.1652 -0.1533
 4221W        W20482   1.898   4.180   0.730 -0.3711 -0.0266  0.1657
 4222W        W20483  16.983   3.589  13.674 -0.0628  0.1385  0.0499
 4223W        W20484   9.871   6.875   2.730 -0.1798 -0.5040 -0.1279
 4224W        W20485  14.633  14.821   1.955  0.1305  0.1258 -0.1825
 4225W        W20486   5.003  10.841  14.809 -0.1270 -0.3765  0.1321
 4226W        W20487   6.421   8.306  13.840 -0.2767  0.0586 -0.2411
 4227W        W20488  10.212   1.447   1.885  0.1681 -0.0573 -0.0226
 4228W        W20489   0.785  16.893   0.352 -0.0636  0.2024  0.2914
 4229W        W20490   8.254   5.196  12.364 -0.1114  0.1043  0.2248
 4230W        W20491  12.298   6.471   4.919 -0.0883  0.4552 -0.1217
 4231W        W20492  18.455   9.564  16.125  0.1220  0.2321  0.2928
 4232W        W20493   1.053  17.844   2.388  0.5566 -0.0247  0.2753
 4233W        W20494   1.708  11.935  11.481 -0.0121  0.0826 -0.1864
 4234W        W20495  11.830   7.582   0.262 -0.1748 -0.5109 -0.1700
 4235W        W20496   8.234   8.607  13.866 -0.2500 -0.1348 -0.2320
 4236W        W20497   4.229   8.086   6.471  0.1885 -0.2215  0.1345
 4237W        W20498  16.927   7.917   5.030  0.0619  0.0857  0.0273
 4238W        W20499  10.286  16.499  11.106  0.0438 -0.3250  0.1845
 4239W        W20500  15.769   8.066   3.114  0.0005 -0.0390  0.1892
 4240W        W20501  11.031  12.187  14.977  0.2703 -0.0227 -0.3160
 4241W        W20502   2.373   2.408   3.536 -0.2923  0.1950  0.3281
 4242W        W20503  11.671  11.345  14.199  0.1884  0.1167  0.1319
 4243W        W20504  16.436   2.968  14.248 -0.1633 -0.1096 -0.1550
 4244W        W20505   1.398   9.363   4.027 -0.1518  0.1158  0.2252
 4245W        W20506   0.547  10.499   3.244 -0.0790 -0.1384  0.5266
 4246W        W20507  11.800   5.770   2.584  0.0994 -0.1295  0.1560
 4247W        W20508  13.126   8.650   3.603 -0.2987 -0.0131  0.3937
 4248W        W20509  17.374   9.683  13.791 -0.0720  0.2343  0.0814
 4249W        W20510   5.543   0.638   0.551 -0.0642 -0.5089 -0.1656
 4250W        W20511  16.481  13.959  11.583  0.0434  0.1345 -0.3573
 4251W        W20512   9.616  17.633  15.982  0.3416  0.1820  0.0710
 4252W        W20513  11.738  13.532   5.090 -0.4947 -0.1610  0.3191
 4253W        W20514   3.578   9.700   0.479 -0.2088  0.3978  0.0762
 4254W        W20515   6.676  10.244  14.202  0.2417  0.0264  0.2630
 4255W        W20516  16.885   7.507   2.730  0.3236 -0.0217 -0.2934
 4256W        W20517  13.484  18.305   5.559 -0.1641 -0.2869  0.0729
 4257W        W20518  16.545   4.375  14.692  0.0956 -0.0728  0.2295
 4258W        W20519   5.221  11.309  11.652  0.2703  0.0393  0.1906
 4259W        W20520   4.103   0.802   2.475 -0.1596 -0.2443 -0.3365
 4260W        W20521  15.877   4.190  15.809  0.0206  0.0930  0.1132
 4261W        W20522  10.397  16.535   5.936 -0.0731  0.1615 -0.1113
 4262W        W20523  13.100   9.156  13.905 -0.0421  0.1332 -0.1506
 4263W        W20524   6.582  16.938   3.056 -0.2001  0.2211 -0.0584
 4264W        W20525  16.016   0.944  13.561 -0.1258 -0.1389 -0.2252
 4265W        W20526  10.299   3.213   4.679  0.4371  0.3279 -0.1051
 4266W        W20527  17.119   5.113   4.481 -0.0365 -0.0826  0.0244
 4267W        W20528   0.554  17.550   2.664 -0.1699 -0.4031 -0.1392
 4268W        W20529   4.484   6.454   1.180 -0.0389 -0.4227 -0.0607
 4269W        W20530   9.670  13.248  12.714  0.1694  0.1126 -0.2460
 4270W        W20531  17.695  15.196   1.223 -0.0306 -0.2569  0.1387
 4271W        W20532   0.935  17.973  11.772 -0.4181 -0.0328 -0.3513
 4272W        W20533  18.111  17.621   5.890  0.1985 -0.4193 -0.0617
 4273W        W20534   8.546   1.125   3.287 -0.0271 -0.0147 -0.0631
 4274W        W20535   1.056   4.624  13.017 -0.3989  0.0992 -0.0212
 4275W        W20536   3.395   6.021  14.561 -0.1716 -0.0844  0.1238
 4276W        W20537   2.393  13.565  11.708  0.2450 -0.3645  0.3316
 4277W        W20538   5.103   8.988  13.249  0.2377 -0.0062 -0.0283
 4278W        W20539  12.905  16.369   4.465  0.0253  0.1875  0.2337
 4279W        W20540  13.343   5.800   4.773 -0.3499  0.0216  0.2087
 4280W        W20541   3.712  15.849   3.860  0.1362  0.3820  0.0986
 4281W        W20542   0.808   4.351  12.170 -0.1472  0.3440  0.1359
 4282W        W20543   0.692   6.939  14.138  0.0528 -0.2398 -0.0615
 4283W        W20544   6.214  15.140   2.874 -0.2022 -0.1441 -0.0149
 4284W        W20545   5.321  14.844   0.294 -0.0112  0.3958  0.0008
 4285W        W20546   6.535   8.232  11.973 -0.1524 -0.2065 -0.1260
 4286W        W20547  11.195   1.047   3.360  0.0917 -0.0295  0.1139
 4287W        W20548   7.825   3.918   5.685 -0.0292  0.0582  0.0971
 4288W        W20549   6.516   0.666  14.579  0.0607  0.0310 -0.3173
 4289W        W20550   0.277   9.261   5.158 -0.2086  0.4331  0.2321
 4290W        W20551   6.395   9.940  16.095 -0.1500  0.3022 -0.1596
 4291W        W20552   7.440  11.368  15.815  0.1670 -0.1490 -0.0471
 4292W        W20553   8.928   6.692  13.445 -0.0064  0.0505  0.0413
 4293W        W20554  15.350  17.239   4.768  0.0883  0.1385 -0.3054
 4294W        W20555  17.500   5.898  13.510 -0.2069 -0.3485  0.0882
 4295W        W20556  12.695   7.271   0.653 -0.4370 -0.0596  0.1823
 4296W        W20557   1.545  17.023  12.793 -0.0783 -0.1561 -0.2172
 4297W        W20558   2.646   0.190  16.057 -0.2381  0.1783 -0.2060
 4298W        W20559  16.785   2.106   0.548 -0.0292 -0.1332 -0.2141
 4299W        W20560   2.859  15.779   0.755 -0.1326 -0.0467 -0.0031
 4300W        W20561   2.240  15.612  13.884 -0.0036  0.0103 -0.3434
 4301W        W20562   6.240   4.022   2.692  0.0568 -0.0358  0.0921
 4302W        W20563   5.001   8.735  12.291  0.3148  0.2800  0.3013
 4303W        W20564  13.243  13.494   1.202 -0.0287 -0.2956 -0.0126
 4304W        W20565   1.378   5.411   0.887  0.0372 -0.0424  0.0794
 4305W        W20566   6.489   9.242   5.868 -0.1577 -0.3760 -0.1632
 4306W        W20567  16.253   5.110  15.130  0.1636  0.0114 -0.0102
 4307W        W20568   9.890   8.478   3.900  0.1165 -0.0340  0.1333
 4308W        W20569   0.960   6.340   4.865 -0.3857 -0.0794 -0.3012
 4309W        W20570  11.826   3.375  12.893  0.2076 -0.1340 -0.3523
 4310W        W20571  11.465   0.196   4.282 -0.1125  0.2030  0.2060
 4311W        W20572   5.504   5.580  12.798 -0.1502  0.0744  0.0548
 4312W        W20573   0.542  13.836  11.687  0.0741 -0.3180  0.1452
 4313W        W20574   2.024  17.184  11.347  0.0258  0.2213 -0.0171
 4314W        W20575  11.858  12.234  13.649  0.3238 -0.2313  0.1200
 4315W        W20576   6.249   2.030  12.433 -0.1753 -0.0451 -0.2487
 4316W        W20577  13.488   8.294  14.835 -0.0807  0.1874 -0.0482
 4317W        W20578  11.985  10.927  12.386  0.1934  0.1028 -0.1922
 4318W        W20579   1.863  10.631   6.110  0.0518 -0.0849 -0.0446
 4319W        W20580   3.170  10.876  12.613 -0.1294  0.0302 -0.4515
 4320W        W20581  15.584   5.273   4.306  0.0988 -0.0987 -0.1591
 4321W        W20582  12.204   6.620   1.678  0.0527 -0.0064  0.0647
 4322W        W20583  14.673  14.462  12.217 -0.2477 -0.4737  0.2189
 4323W        W20584  12.620  13.373  10.753 -0.1158 -0.2822  0.2257
 4324W        W20585   5.298  17.905   2.771  0.4111 -0.2239 -0.0128
 4325W        W20586   9.773   5.451  13.645 -0.1663  0.2391 -0.3847
 4326W        W20587  10.524   8.586   3.741  0.1015  0.2221 -0.3235
 4327W        W20588  11.021   2.011   5.446 -0.1343 -0.0864  0.0609
 4328W        W20589   2.878   6.208  12.615  0.0553 -0.1217  0.0777
 4329W        W20590  17.181   7.357   4.305  0.1836  0.0260  0.1438
 4330W        W20591   8.589   5.832  13.505 -0.0734 -0.0804  0.2637
 4331W        W20592   7.032   2.937   5.135  0.4636  0.0816  0.2589
 4332W        W20593  11.639   1.315  15.928  0.0236 -0.0164  0.0137
 4333W        W20594   1.410   2.805   1.524  0.4958 -0.4351  0.2110
 4334W        W20595  14.611   8.785  12.511 -0.1011 -0.0172 -0.0548
 4335W        W20596  13.018  17.736  12.428 -0.0566  0.1305  0.0353
 4336W        W20597  11.491  17.067  15.750  0.1491 -0.2119  0.1945
 4337W        W20598   4.735   3.634  13.430 -0.2985 -0.6045  0.0956
 4338W        W20599   9.170  15.220  12.874 -0.0830 -0.1803  0.0198
 4339W        W20600  16.865   3.919  14.506 -0.3535  0.0317 -0.1786
 4340W        W20601  11.857   0.299   0.291  0.2879 -0.0656 -0.1776
 4341W        W20602  15.182   7.959   0.394 -0.1107  0.1078 -0.1365
 4342W        W20603  14.039   5.800  13.828  0.0775 -0.1944 -0.0687
 4343W        W20604  10.032   4.410   2.843  0.0226 -0.1643 -0.1159
 4344W        W20605   6.642  10.530  11.077  0.0057  0.0967 -0.0522
 4345W        W20606  11.677  11.350   3.457 -0.1595 -0.2453 -0.0004
 4346W        W20607   3.134  17.251   0.254  0.0110 -0.0831  0.0693
 4347W        W20608   7.631  10.534   1.769 -0.0609  0.0351 -0.2438
 4348W        W20609   3.592  14.185   0.166 -0.0041 -0.2018  0.2486
 4349W        W20610   4.535   2.461   1.890  0.2325  0.0725  0.4753
 4350W        W20611  17.867  15.293  14.739  0.0017 -0.1376  0.0294
 4351W        W20612  13.651   8.997  11.203  0.3254  0.0143  0.0418
 4352W        W20613  11.768   6.969  14.638 -0.0528 -0.1901  0.0823
 4353W        W20614   9.370   6.633   1.001  0.0309 -0.0320 -0.0217
 4354W        W20615   8.145   3.131   4.697  0.1842  0.0168 -0.0498
 4355W        W20616  17.695  15.308   5.036 -0.1061 -0.1719 -0.1140
 4356W        W20617   0.474   1.591  12.453  0.1825  0.2042  0.0523
 4357W        W20618   5.169  17.859   3.305  0.2517 -0.0796 -0.1479
 4358W        W20619  11.571   7.076  11.796 -0.1503  0.0678 -0.2828
 4359W        W20620   6.722   1.238  11.330  0.1771  0.1278  0.1096
 4360W        W20621   6.059  13.558   0.724 -0.2738 -0.1013 -0.0180
 4361W        W20622   2.257  12.017   5.078 -0.1051 -0.2461  0.0717
 4362W        W20623   9.449   3.716   3.360  0.2405 -0.2045  0.1344
 4363W        W20624  12.963   8.054   5.780 -0.2405 -0.3035  0.0691
 4364W        W20625   3.662   1.476   0.298  0.0932 -0.1895 -0.0130
 4365W        W20626  14.899  15.789   0.129 -0.0924  0.0553  0.1758
 4366W        W20627  12.019   7.781  15.514  0.3026  0.1458 -0.0324
 4367W        W20628  13.033   5.965  13.852 -0.0995 -0.2221  0.0875
 4368W        W20629  15.661   3.647  11.204 -0.2248  0.0610  0.0094
 4369W        W20630   5.127  12.346   3.833 -0.0632  0.1249 -0.0939
 4370W        W20631   2.383  14.064   1.453  0.1138 -0.0655 -0.0242
 4371W        W20632   5.645  13.996   5.036  0.0673 -0.0871  0.4296
 4372W        W20633  10.354  15.242   5.358  0.2730  0.1606 -0.2608
 4373W        W20634  11.846   7.492   3.906 -0.3707 -0.0179 -0.0028
 4374W        W20635   4.251   2.817   1.720 -0.1492  0.0711  0.0731
 4375W        W20636  15.725   0.384   1.593 -0.0057 -0.1921 -0.2993
 4376W        W20637   5.940   4.556  15.858 -0.0750  0.0117  0.0411
 4377W        W20638   9.615   0.783  11.589  0.0064 -0.1914 -0.2071
 4378W        W20639  14.349   9.620   2.156  0.1004 -0.1090  0.1693
 4379W        W20640  15.287   9.062  13.320  0.3885  0.1616  0.1337
 4380W        W20641   9.682   0.897   0.467  0.3871 -0.0695  0.0702
 4381W        W20642   0.109  14.602   3.468 -0.0727  0.1191 -0.1227
 4382W        W20643   1.063  10.715  14.813 -0.0594 -0.0471 -0.1081
 4383W        W20644   2.767  12.778   1.842  0.0437  0.1481  0.0300
 4384W        W20645  11.703  15.743  13.443  0.1039 -0.0229 -0.0320
 4385W        W20646  16.563   4.381   2.181 -0.0551 -0.1081 -0.1946
 4386W        W20647   3.750  11.771   5.503 -0.1965 -0.0791  0.0193
 4387W        W20648  12.024  13.337  14.800  0.0283 -0.0232 -0.2044
 4388W        W20649   6.639  18.018   2.784  0.0226 -0.1341  0.1760
 4389W        W20650   7.449   8.357  11.575 -0.1675 -0.2152  0.0788
 4390W        W20651  16.754   1.964   2.259 -0.2006 -0.1273  0.0262
 4391W        W20652  17.443  14.059   3.958  0.1207  0.1615 -0.2408
 4392W        W20653   9.234   0.811   0.281 -0.0218  0.3539 -0.0908
 4393W        W20654  12.813  14.147   4.652  0.1719  0.1186 -0.1919
 4394W        W20655   8.748   2.957  11.972  0.4779 -0.0298 -0.4519
 4395W        W20656   8.178   4.053  11.651  0.1483 -0.0040  0.1509
 4396W        W20657  17.482  14.844   1.937  0.0720  0.1483  0.3063
 4397W        W20658  17.969   9.451   0.164  0.1947  0.1666 -0.0561
 4398W        W20659  15.929   5.733   0.034 -0.0643 -0.0209 -0.2254
 4399W        W20660   2.735   8.897  12.096  0.1703  0.0546  0.1591
 4400W        W20661   3.305   8.643  15.398 -0.0199 -0.0690  0.1440
 4401W        W20662  10.243  13.648  12.652  0.3147 -0.1851  0.3240
 4402W        W20663   7.607   0.634   3.263 -0.4658  0.0312 -0.1591
 4403W        W20664   3.791  14.764  13.664  0.0591  0.1002  0.2399
 4404W        W20665  12.556   1.332   4.596  0.0341  0.1412  0.0469
 4405W        W20666   5.589  18.262  14.569  0.0684 -0.1063  0.1457
 4406W        W20667   3.419  11.104   3.094  0.1486 -0.3930  0.1333
 4407W        W20668   1.915  18.262  13.718  0.3048  0.1614 -0.0602
 4408W        W20669   7.380   3.402   3.019  0.1005  0.3395  0.0176
 4409W        W20670  12.952  14.720  16.104  0.4525 -0.2801 -0.0130
 4410W        W20671  18.052   4.776   4.937  0.2351 -0.0958 -0.1307
 4411W        W20672   9.343   2.222  14.016 -0.0638 -0.1270 -0.2234
 4412W        W20673   8.389   3.000  16.166  0.0716  0.1303  0.0032
 4413W        W20674   9.773   0.372  13.308  0.0801 -0.0976 -0.1549
 4414W        W20675   6.187  16.430  15.951 -0.0813 -0.1277  0.1543
 4415W        W20676  13.829  13.394  12.070 -0.1320  0.0070  0.1835
 4416W        W20677  12.278   2.790   5.548 -0.0391 -0.3124 -0.0495
 4417W        W20678  15.164  14.115  10.911  0.0928 -0.1753  0.0213
 4418W        W20679  14.137  12.928   2.842 -0.0130 -0.0147 -0.0630
 4419W        W20680  15.253   6.758   2.461  0.1615 -0.0427  0.0677
 4420W        W20681   7.547   3.848   6.087 -0.0018 -0.1279  0.0358
 4421W        W20682  10.748   5.146  13.657 -0.3208 -0.3893  0.0420
 4422W        W20683   1.910  13.615   4.417  0.1429 -0.3302 -0.1233
 4423W        W20684  17.330   0.007   0.706 -0.1529  0.1483 -0.1230
 4424W        W20685  10.399  13.336   4.014  0.1597 -0.2425  0.1228
 4425W        W20686  10.293   4.461   4.490  0.2372 -0.2181  0.3078
 4426W        W20687  17.848  17.624  15.759 -0.1247 -0.1529 -0.2681
 4427W        W20688  12.332   0.384  14.466 -0.2733  0.3347 -0.4712
 4428W        W20689  14.981  16.851  14.164  0.0787  0.2378 -0.0600
 4429W        W20690  18.033  12.066   4.158 -0.0535 -0.0225 -0.0039
 4430W        W20691   7.083   8.886   4.884 -0.4095  0.4831 -0.0669
 4431W        W20692   2.106  14.272   1.060 -0.2431  0.5887 -0.1289
 4432W        W20693   1.105   5.671   1.927  0.2763 -0.1936 -0.0259
 4433W        W20694   3.942   5.263  11.278  0.3628  0.2547  0.0766
 4434W        W20695   3.289  10.942   4.949  0.0173 -0.1665  0.1751
 4435W        W20696  12.437   3.279   4.305 -0.0625  0.4336  0.0856
 4436W        W20697   4.647  10.076  16.080  0.0432  0.1059  0.1799
 4437W        W20698   9.080  17.591   1.103  0.0566 -0.3847  0.1162
 4438W        W20699  15.624  17.628  15.665  0.0439 -0.3049 -0.1561
 4439W        W20700  14.097  12.697  14.137  0.0063  0.3371 -0.1220
 4440W        W20701   3.732  10.792  11.958 -0.1273 -0.0626 -0.2490
 4441W        W20702  15.219   2.766   2.090  0.0985 -0.0755 -0.0314
 4442W        W20703  18.460   1.061  16.118  0.2214 -0.1720  0.3304
 4443W        W20704   0.833   1.455   5.193  0.2726 -0.2613 -0.2411
 4444W        W20705   2.779  10.856  12.280  0.0851 -0.0199 -0.0204
 4445W        W20706   6.918   2.950  12.417  0.1990 -0.1867 -0.0744
 4446W        W20707   9.278  17.202   1.967 -0.1149  0.0128 -0.2463
 4447W        W20708  15.546  16.534  15.298  0.0424 -0.2012 -0.0471
 4448W        W20709   1.344   9.992  11.780  0.2973 -0.0831  0.0963
 4449W        W20710   1.165   1.713  13.359  0.0887  0.0850 -0.0089
 4450W        W20711   7.006  10.327  13.840  0.0610  0.2245 -0.3305
 4451W        W20712  10.609   7.953  15.581 -0.0571  0.0077 -0.1518
 4452W        W20713   0.156   9.989  15.036  0.1603  0.0396  0.4647
 4453W        W20714  13.836  11.718   2.310  0.4224  0.2009  0.0637
 4454W        W20715  18.286   4.271   3.653 -0.3282  0.2315 -0.1766
 4455W        W20716  14.004   8.420   4.996  0.0395  0.0371  0.0511
 4456W        W20717   9.461   7.592   3.440 -0.6628 -0.0370 -0.1569
 4457W        W20718   7.904   9.237  14.706  0.1664  0.1931  0.2510
 4458W        W20719  14.850   4.536   5.546 -0.1174 -0.0117 -0.3971
 4459W        W20720   6.760  13.968  13.327 -0.1531  0.2291  0.0142
 4460W        W20721   6.488   8.860   4.240 -0.1592 -0.0617 -0.3488
 4461W        W20722  13.923   4.312   5.551  0.0338 -0.0574  0.0856
 4462W        W20723  10.006  16.872  16.098  0.0360 -0.0925 -0.3489
 4463W        W20724  13.725   8.165  15.288  0.1501 -0.1319  0.1662
 4464W        W20725   1.281   9.208  12.791 -0.1196 -0.2371  0.1351
 4465W        W20726   6.247   5.297  15.105  0.0397 -0.2507 -0.1211
 4466W        W20727  15.145   6.563   5.783 -0.0032  0.0822 -0.0899
 4467W        W20728  12.835   5.444   2.997  0.2290  0.1243 -0.0049
 4468W        W20729   5.198   7.102   6.689 -0.0994 -0.1527 -0.0595
 4469W        W20730  14.564   0.408   4.035  0.1390  0.1467  0.1656
 4470W        W20731   2.493   3.926   1.409  0.2554  0.0779 -0.1528
 4471W        W20732  11.012   6.930   3.501 -0.1741 -0.0465  0.1819
 4472W        W20733   4.561   1.070  12.491  0.0990  0.3788 -0.1204
 4473W        W20734   6.151  14.522   4.159  0.4727 -0.0150 -0.1676
 4474W        W20735   9.269   6.482   4.078 -0.1759  0.1248 -0.1228
 4475W        W20736  13.445  12.051  11.172  0.1390  0.1210  0.1064
 4476W        W20737  14.028   2.889  15.485  0.0502 -0.1131  0.2172
 4477W        W20738   6.989  16.779   1.048  0.0736  0.2353 -0.2771
 4478W        W20739   0.571   4.443   1.197  0.0844  0.2006 -0.2438
 4479W        W20740  16.554   3.693  13.840  0.1696 -0.1359  0.1516
 4480W        W20741  16.311  12.164   0.102  0.1119 -0.3294  0.0094
 4481W        W20742  12.357   9.103   3.765 -0.0773  0.1293 -0.0524
 4482W        W20743  13.055   0.219   0.839 -0.0789 -0.0764 -0.3107
 4483W        W20744  10.725  10.112  12.858 -0.1635  0.1255 -0.1082
 4484W        W20745  10.015   9.959  14.044  0.1734 -0.2594  0.2392
 4485W        W20746  10.753  10.518   2.024 -0.2107 -0.2256  0.1437
 4486W        W20747   0.600  13.072  14.973 -0.2993 -0.3158 -0.3217
 4487W        W20748  16.769  10.297  11.149  0.0270  0.0834 -0.2046
 4488W        W20749   3.922  17.623   3.242 -0.0877 -0.2355  0.0622
 4489W        W20750   2.896  16.839  15.678  0.1188  0.0610  0.4285
 4490W        W20751   1.503   7.993   4.480  0.2897  0.1808 -0.4224
 4491W        W20752   1.565  14.829   4.739  0.2133 -0.0223 -0.1143
 4492W        W20753  15.146  13.864  16.043 -0.0714 -0.2020  0.3625
 4493W        W20754   5.942   0.936   3.913  0.1308 -0.0016 -0.0004
 4494W        W20755   6.502  14.226  14.891  0.1746  0.0509 -0.1624
 4495W        W20756  11.523  10.554   3.938 -0.2421 -0.0462 -0.0939
 4496W        W20757  12.843  13.989   2.919  0.1639 -0.2050  0.0254
 4497W        W20758   4.809   1.651   4.835  0.0391  0.0521 -0.2543
 4498W        W20759   9.007  17.636  14.638  0.0228  0.0837 -0.5582
 4499W        W20760  14.041   3.979  11.183  0.0239  0.2698  0.0239
 4500W        W20761   4.343  18.248   2.873 -0.0258 -0.0677 -0.3084
 4501W        W20762   1.696  12.514   5.866  0.2748  0.2003 -0.2568
 4502W        W20763   3.017  11.757  15.430 -0.0375  0.1566  0.3346
 4503W        W20764   5.896  11.138   5.103 -0.0167 -0.2382 -0.0483
 4504W        W20765   1.898   5.887  14.997 -0.0786 -0.2496 -0.0205
 4505W        W20766  15.254  14.857  14.050 -0.2551 -0.3732  0.0451
 4506W        W20767   8.804  11.527   3.956  0.1019  0.2515 -0.1479
 4507W        W20768  12.257  10.273   3.663 -0.0352 -0.1992 -0.1682
 4508W        W20769   1.749   7.572   4.416 -0.1399 -0.0039 -0.0944
 4509W        W20770   2.991   3.736   4.162 -0.2714  0.1284 -0.0745
 4510W        W20771   3.804  15.161   0.496 -0.0089 -0.1278  0.2524
 4511W        W20772  10.126  15.001   3.851  0.0983  0.2877 -0.0514
 4512W        W20773  15.176  12.811   1.261 -0.2832 -0.0598 -0.0804
 4513W        W20774   6.150  17.499   0.987  0.1020  0.4241  0.0825
 4514W        W20775   1.106   8.354  12.997 -0.0112  0.2813  0.2985
 4515W        W20776  15.484  13.757  13.011  0.0104  0.0186  0.1663
 4516W        W20777   1.637   9.943   2.710 -0.1451  0.2906 -0.2762
 4517W        W20778   8.921  18.089  15.697  0.2535  0.0833  0.1269
 4518W        W20779  14.543   7.334  15.027  0.2660 -0.0455 -0.0165
 4519W        W20780  11.245   4.058  15.431 -0.0169  0.0185  0.0077
 4520W        W20781   4.708  18.169  11.939 -0.1345  0.3795 -0.0391
 4521W        W20782   2.426   5.365  15.666 -0.2507 -0.1804  0.0725
 4522W        W20783   9.398   2.650  14.329 -0.0964 -0.0140  0.2179
 4523W        W20784  12.203   1.752   3.498  0.1132  0.0846  0.0141
 4524W        W20785  11.193   2.962   2.029 -0.0815 -0.0466 -0.0878
 4525W        W20786   0.305   0.636   4.964 -0.1322 -0.1026 -0.2377
 4526W        W20787  14.165   0.514   1.249 -0.1849 -0.0123 -0.0870
 4527W        W20788  13.541   3.315   3.314  0.0757  0.2545 -0.2102
 4528W        W20789  16.108   9.484  12.535  0.1659  0.0898  0.0889
 4529W        W20790  11.345  15.414  14.781 -0.2529  0.1397  0.3161
 4530W        W20791  17.716  11.516   3.850  0.1629  0.2638  0.0108
 4531W        W20792  15.046  17.669   5.353  0.1912  0.1328 -0.1575
 4532W        W20793  15.888  18.426  11.492  0.1331 -0.0189 -0.1130
 4533W        W20794   7.721  11.829   0.622 -0.0338  0.0698  0.1262
 4534W        W20795   7.501  15.643   2.304  0.2681 -0.0632 -0.1169
 4535W        W20796  16.399   6.377   1.864  0.0973  0.2603 -0.3101
 4536W        W20797  16.791  13.725   1.162  0.0381  0.0268 -0.0846
 4537W        W20798  10.981   9.321   1.215  0.0508  0.1439 -0.1753
 4538W        W20799  10.162   9.744  15.309  0.0101  0.3173  0.0059
 4539W        W20800  16.590  12.254  10.284  0.0199  0.1522 -0.0798
 4540W        W20801  13.372   4.165   1.538 -0.2446  0.1422 -0.1910
 4541W        W20802   2.400   5.989  12.473 -0.2730  0.2114 -0.2719
 4542W        W20803  14.685  17.782   1.393  0.1362 -0.2608 -0.1545
 4543W        W20804  17.005  11.153   4.078  0.1817 -0.0444  0.0233
 4544W        W20805  15.191  12.811  16.126 -0.0323 -0.2333  0.0156
 4545W        W20806   2.828   4.699   0.190  0.0041 -0.1098 -0.2459
 4546W        W20807   7.468   1.376   1.360 -0.2676  0.1902 -0.3719
 4547W        W20808   3.048  15.840   4.868 -0.2363  0.2233 -0.1728
 4548W        W20809   6.582  10.109   4.664  0.0959 -0.1204  0.1391
 4549W        W20810  11.951   2.085   0.329 -0.3094 -0.1689  0.1910
 4550W        W20811  14.336   9.489  12.344 -0.1321  0.0362 -0.0026
 4551W        W20812   6.157  15.110  14.458 -0.0876  0.2139 -0.1250
 4552W        W20813   8.130   3.823   5.280  0.0006  0.4679  0.2052
 4553W        W20814  11.920   7.465  11.676  0.1354 -0.1531  0.2406
 4554W        W20815   2.486  16.992  12.764 -0.0767  0.0496 -0.0902
 4555W        W20816  15.280   6.066  15.571  0.0177  0.2281 -0.1027
 4556W        W20817   0.626  17.203   5.581 -0.1059 -0.1219  0.3549
 4557W        W20818   2.859   5.525   0.732 -0.3149  0.0816 -0.2808
 4558W        W20819   5.491   2.141   2.954  0.0489 -0.0517 -0.0195
 4559W        W20820  12.107  16.778   4.281 -0.3826  0.1928 -0.0055
 4560W        W20821   5.304  11.922  13.503 -0.3752  0.1258 -0.0164
 4561W        W20822   4.198   8.821   0.757 -0.0743 -0.1121  0.0576
 4562W        W20823   0.064   0.275   2.659 -0.0240 -0.0201  0.0769
 4563W        W20824   0.708  15.200   2.347  0.1472 -0.1147 -0.1156
 4564W        W20825  15.372   6.512   1.779  0.0220  0.0012 -0.1663
 4565W        W20826  14.354   8.606  12.047  0.1898  0.0229  0.0768
 4566W        W20827   1.368  10.580  15.818 -0.1508 -0.2283  0.1526
 4567W        W20828   3.786   5.452   2.610 -0.2483  0.1362  0.1145
 4568W        W20829  11.362   6.646   3.740 -0.1239  0.1179  0.0854
 4569W        W20830  16.467   5.330  12.952 -0.1201  0.1319  0.0225
 4570W        W20831   1.652   0.208  12.494 -0.2765  0.0744 -0.3478
 4571W        W20832   7.499   1.969   1.525 -0.1018 -0.0191  0.0098
 4572W        W20833  15.058   2.594   2.528  0.1447  0.0536 -0.4405
 4573W        W20834  12.353   4.472   0.118  0.2669 -0.2831  0.0691
 4574W        W20835   4.819   6.582   5.159 -0.3084 -0.1360  0.1293
 4575W        W20836  10.413   3.890  11.260 -0.0538  0.3352 -0.1796
 4576W        W20837   7.336   4.107  14.948 -0.1044  0.3274  0.1728
 4577W        W20838  17.226  11.196  15.320  0.3024  0.1488 -0.2470
 4578W        W20839  16.173   9.603   2.122  0.1249  0.0986 -0.1798
 4579W        W20840  11.206   1.839  11.338 -0.0010 -0.2071 -0.2176
 4580W        W20841  16.528   1.529   1.998  0.1330 -0.1415  0.1338
 4581W        W20842  14.346  14.211   2.008 -0.0793 -0.0770  0.0522
 4582W        W20843   8.789  10.860   5.714  0.0866  0.0578 -0.2053
 4583W        W20844  14.904   2.060   0.949 -0.0610 -0.0192 -0.0700
 4584W        W20845   7.451   1.487  11.751 -0.1215 -0.2551  0.2510
 4585W        W20846   8.405   7.814   2.654 -0.2534 -0.0762 -0.2993
 4586W        W20847   4.772   7.066  13.428 -0.1930 -0.2952  0.3309
 4587W        W20848  12.385  15.246   1.032  0.0671  0.0014  0.1343
 4588W        W20849   5.612  15.604  16.039  0.1597 -0.0811  0.0129
 4589W        W20850  10.534   4.169  16.107 -0.0908  0.2653  0.4103
 4590W        W20851  18.395   3.517   2.246  0.0280  0.1711 -0.1204
 4591W        W20852  16.977  15.995   4.767  0.0161  0.0381 -0.0739
 4592W        W20853   2.790   3.494   3.771  0.2385 -0.0216 -0.0615
 4593W        W20854  11.923   3.805   2.536 -0.0251 -0.0290 -0.0360
 4594W        W20855  12.089  10.137   1.577  0.1372 -0.0786 -0.1750
 4595W        W20856   2.234  17.980   2.151 -0.0318  0.1883 -0.1507
 4596W        W20857  18.450   0.683  11.048 -0.1159 -0.1868 -0.2673
 4597W        W20858   5.742   0.520   1.236 -0.0536 -0.0555  0.0861
 4598W        W20859   0.351   1.539   4.725 -0.0522  0.1339  0.0706
 4599W        W20860  14.683   4.400  12.104 -0.4520  0.1842 -0.1536
 4600W        W20861   0.999  11.539  12.119 -0.0274 -0.0890  0.2021
 4601W        W20862  12.754   6.327  15.467 -0.2329 -0.2720 -0.1230
 4602W        W20863   4.995   4.442   3.336  0.0836  0.4715  0.2720
 4603W        W20864   1.643   8.380  13.720 -0.1028 -0.0311  0.1559
 4604W        W20865  16.175   3.429  14.016  0.0053  0.0947 -0.0990
 4605W        W20866  18.432   1.236  13.093 -0.1245  0.2224 -0.1440
 4606W        W20867   7.812   7.705   5.267 -0.0684 -0.0585  0.0314
 4607W        W20868   8.030   8.359  11.698 -0.0265  0.0260  0.2367
 4608W        W20869   8.060   2.973  11.707 -0.0172 -0.1348 -0.0272
 4609W        W20870  13.528  17.714   4.496 -0.1347 -0.1205 -0.3630
 4610W        W20871   0.955   3.116  13.643  0.3372 -0.0599  0.0788
 4611W        W20872   9.315  10.352  15.473 -0.3687  0.0999 -0.2718
 4612W        W20873   7.359   9.650  13.430  0.1400  0.0100 -0.2560
 4613W        W20874  16.058   7.363   5.445 -0.0723 -0.1321  0.4132
 4614W        W20875  17.522   0.086   4.602 -0.2537 -0.3820 -0.0300
 4615W        W20876  15.526  13.232   1.358  0.0162  0.1916 -0.1310
 4616W        W20877   3.181  12.595  12.063  0.1226  0.1235  0.1407
 4617W        W20878   4.993  16.200  13.312 -0.1200 -0.0839 -0.1577
 4618W        W20879   4.233   5.762  15.145  0.2344  0.0282  0.1831
 4619W        W20880   2.339  10.889   2.606  0.1445  0.0930  0.1354
 4620W        W20881  11.652  14.722   0.854  0.0182 -0.2904 -0.0429
 4621W        W20882  15.464  11.462   2.621 -0.2144 -0.0754 -0.0148
 4622W        W20883  16.656   4.422  11.859  0.0914 -0.0658  0.1604
 4623W        W20884   7.874  10.774  15.162  0.0114 -0.0034  0.1713
 4624W        W20885   0.326  12.664  11.675 -0.1260  0.2468  0.1248
 4625W        W20886   6.561   3.544   0.992  0.1015  0.0700  0.1646
 4626W        W20887  11.094   4.661  12.036  0.1024  0.2440 -0.1009
 4627W        W20888   5.857  10.206  14.133 -0.0507  0.0323  0.0441
 4628W        W20889   6.044  18.095  11.851 -0.0404  0.1940 -0.0040
 4629W        W20890  13.816   7.680  13.973  0.0198  0.1170  0.3288
 4630W        W20891  14.344   3.667  11.024  0.2473  0.2761 -0.0888
 4631W        W20892   9.978  12.486  11.781  0.1434  0.1811 -0.0001
 4632W        W20893  13.446   8.870   4.373 -0.4927 -0.0821  0.3005
 4633W        W20894  18.328   9.670   3.240 -0.1324 -0.3292  0.4591
 4634W        W20895  11.818  15.462  12.072  0.3296 -0.0152 -0.1196
 4635W        W20896  12.092   8.018  13.508 -0.0854  0.2011 -0.3504
 4636W        W20897   7.356   5.371   4.623  0.3381  0.1113 -0.1010
 4637W        W20898  10.785  12.408   0.617 -0.2202  0.0507 -0.0771
 4638W        W20899  12.311   8.628   5.000  0.1525  0.1864  0.0247
 4639W        W20900   8.126   5.230   0.912 -0.2569 -0.0469  0.0109
 4640W        W20901   4.883   4.526  11.719 -0.0400 -0.4076 -0.1220
 4641W        W20902  16.869  14.808  13.196 -0.1920 -0.1253 -0.0304
 4642W        W20903   8.926   7.393   1.244 -0.2334  0.0089  0.2531
 4643W        W20904   5.584  16.958  16.101 -0.3848 -0.0722 -0.0656
 4644W        W20905  14.449   5.982  11.777  0.1102  0.0885  0.2554
 4645W        W20906   7.280   0.197  11.743 -0.2161  0.1472 -0.3074
 4646W        W20907   3.837   7.705  11.493  0.1981  0.1074  0.0479
 4647W        W20908   4.662  18.085   3.830 -0.2472 -0.1071  0.0877
 4648W        W20909  11.900   4.233  15.518 -0.0094 -0.0136 -0.3352
 4649W        W20910   6.071   0.001   1.170 -0.0676 -0.0772 -0.1191
 4650W        W20911   4.363   1.507  13.227  0.2655 -0.0574  0.0283
 4651W        W20912  15.445   3.166  11.270 -0.0525 -0.1018 -0.0884
 4652W        W20913  16.471  10.111  13.025  0.0133 -0.1311  0.0522
 4653W        W20914  11.382  18.190  11.383  0.1021 -0.2474  0.0464
 4654W        W20915  15.923  17.056  12.703 -0.0933  0.4117  0.1848
 4655W        W20916  10.468   6.385   5.229  0.1266 -0.0314  0.0082
 4656W        W20917  14.604   4.445  14.587 -0.1181  0.3998 -0.2091
 4657W        W20918  11.565   4.013   2.227  0.1478  0.2303 -0.2880
 4658W        W20919   7.788  18.431  12.526  0.1330  0.0839 -0.1552
 4659W        W20920   2.693  12.386   5.310  0.1020  0.0804 -0.0633
 4660W        W20921   3.012  15.025  11.234 -0.1561 -0.1569 -0.1341
 4661W        W20922   7.483  15.933   3.691  0.1003 -0.1923  0.1231
 4662W        W20923  15.908   8.246  14.646 -0.1790 -0.1856  0.1357
 4663W        W20924   6.073  16.171   3.238  0.1856 -0.0055 -0.4112
 4664W        W20925   3.829   9.030  13.056  0.2210 -0.2973  0.1816
 4665W        W20926  10.496  12.670  12.118  0.0884 -0.0964  0.0054
 4666W        W20927  12.694  12.254   2.897 -0.0252 -0.1082  0.2535
 4667W        W20928   4.770   1.753  13.961 -0.1072 -0.3296  0.0060
 4668W        W20929  17.389  15.719   5.113 -0.1553  0.1012  0.0335
 4669W        W20930  11.364  17.063  13.037  0.1851  0.0201  0.1516
 4670W        W20931  16.135   8.727  10.619  0.0707  0.1990  0.3750
 4671W        W20932   1.914  10.807   0.703  0.0963 -0.1600 -0.0607
 4672W        W20933  16.325  12.506  14.515 -0.0068  0.1025  0.1611
 4673W        W20934   4.490  10.629   4.909  0.0840 -0.2887  0.0677
 4674W        W20935  15.423  17.285  12.807  0.0450  0.4922 -0.1445
 4675W        W20936  12.406  17.138  12.362  0.1915  0.3324 -0.0347
 4676W        W20937   8.682  10.994  16.160  0.4132  0.3290 -0.1665
 4677W        W20938  13.804  16.996   2.507 -0.3146  0.1297  0.1518
 4678W        W20939  16.542  14.412   1.774  0.1416  0.3116 -0.0410
 4679W        W20940  15.112   3.132   5.057 -0.0644 -0.0656 -0.0940
 4680W        W20941   1.288  18.295   2.395 -0.2783 -0.2335  0.1984
 4681W        W20942   9.081   2.495  11.755  0.3590 -0.5071  0.2499
 4682W        W20943   9.947   2.081  13.749  0.0605 -0.1337 -0.1828
 4683W        W20944  16.229   1.409   2.453  0.0639  0.1422  0.5162
 4684W        W20945  16.627   3.337  11.107 -0.0140 -0.0671 -0.1479
 4685W        W20946   8.229  10.658  11.439 -0.3038 -0.6373 -0.1076
 4686W        W20947  15.883  14.223   3.927  0.3192  0.2948 -0.0421
 4687W        W20948  15.549   8.672  15.237  0.4753 -0.0193  0.1341
 4688W        W20949  17.761  16.758  12.071 -0.0347  0.0563 -0.0150
 4689W        W20950   2.559   5.650   1.192  0.1361 -0.0577  0.1240
 4690W        W20951   5.484  15.850   5.493  0.0014 -0.0247  0.1338
 4691W        W20952   5.027   9.840   1.965  0.1062 -0.1335  0.1547
 4692W        W20953   8.029  13.685  15.734 -0.1497  0.0726 -0.0896
 4693W        W20954  15.457  16.417  10.534 -0.3238  0.1964 -0.1403
 4694W        W20955   3.347   6.591   0.937 -0.0685 -0.1263 -0.1139
 4695W        W20956   3.338  13.537  15.134 -0.0073 -0.4553 -0.1627
 4696W        W20957  17.055   8.677   2.590  0.2033 -0.1628 -0.1190
 4697W        W20958  15.879  17.512   3.318  0.0059  0.1200 -0.1228
 4698W        W20959   2.191  11.057   3.247  0.1332 -0.3484  0.0672
 4699W        W20960   1.785  11.409  16.059 -0.0470  0.0223 -0.0399
 4700W        W20961   9.067  14.406  11.448  0.2877  0.1352  0.7266
 4701W        W20962   0.398   8.877   4.286  0.0456  0.0428  0.1181
 4702W        W20963   6.511   6.510   0.965 -0.0172  0.0819 -0.2089
 4703W        W20964  14.265  10.469   1.130  0.1662 -0.2084 -0.1465
 4704W        W20965  14.922   5.572   2.669 -0.1143  0.1238  0.0817
 4705W        W20966   5.641   8.501   1.578 -0.0886 -0.0668  0.1630
 4706W        W20967   7.015  10.012  13.500  0.2421 -0.3672  0.0931
 4707W        W20968   9.900  12.997  16.107  0.0892  0.1264 -0.0668
 4708W        W20969  14.289   3.200  11.209  0.1319  0.1922  0.0182
 4709W        W20970  12.199   5.341   0.983 -0.1553  0.0601 -0.2395
 4710W        W20971  15.250   9.340  14.335  0.0104  0.1986 -0.0339
 4711W        W20972  16.397  14.843  13.373 -0.0710  0.2118  0.1152
 4712W        W20973  15.452   2.315   2.757  0.1038  0.0710 -0.2853
 4713W        W20974  16.242  18.479  15.651 -0.2732  0.2376 -0.1710
 4714W        W20975  13.413   7.445   3.581 -0.0991 -0.2117 -0.0003
 4715W        W20976   1.376  12.729  12.607  0.0082  0.2834 -0.1459
 4716W        W20977  13.710   4.157   2.028  0.0939 -0.1400  0.0165
 4717W        W20978   1.333  14.642  11.987 -0.1138  0.0418  0.0105
 4718W        W20979   9.637  13.662  11.336  0.0844  0.0288  0.0417
 4719W        W20980  15.995  15.157   1.759  0.2776  0.2569 -0.1019
 4720W        W20981  10.890   0.674  12.133 -0.3293 -0.1269 -0.0517
 4721W        W20982  15.095   7.651  13.368  0.0724 -0.1145 -0.0188
 4722W        W20983   6.296  16.252   3.734 -0.0058 -0.2284  0.1350
 4723W        W20984  15.003   3.975  12.301 -0.3912 -0.0595 -0.1953
 4724W        W20985   2.067   3.474   1.743 -0.0929 -0.0800 -0.0028
 4725W        W20986  14.978   7.494   0.378 -0.0790 -0.0801 -0.1097
 4726W        W20987  17.296   6.811   2.216 -0.2318 -0.2768  0.0395
 4727W        W20988   9.030   6.847  15.813 -0.0318 -0.2371 -0.3859
 4728W        W20989  14.083  18.144   3.622 -0.0972  0.1480 -0.0188
 4729W        W20990   6.416  16.339  14.241 -0.0480  0.0138  0.4038
 4730W        W20991  13.890  14.635  15.587  0.0085 -0.1353  0.0747
 4731W        W20992  17.694  15.740   0.636  0.0828  0.0420 -0.2696
 4732W        W20993  11.618  17.072  14.038  0.3368  0.0215  0.1681
 4733W        W20994  13.469  10.618  15.949 -0.2206  0.2281 -0.1293
 4734W        W20995   1.876   8.276   6.282  0.1447  0.1567 -0.1772
 4735W        W20996   9.844   3.050  13.804  0.0629  0.3084 -0.4784
 4736W        W20997  13.153   7.312  16.122  0.1969 -0.0789  0.1386
 4737W        W20998   7.153   9.086   0.746  0.2763  0.1778 -0.1167
 4738W        W20999   4.904  17.244   1.293  0.0365 -0.0150  0.1953
 4739W        W21000  14.493  15.713   1.138  0.1734  0.1582  0.0343
 4740W        W21001  11.645  18.298   0.919 -0.3102  0.0391 -0.1199
 4741W        W21002  16.812   9.298   3.988  0.1014  0.1325 -0.4010
 4742W        W21003  15.413  13.199  15.762  0.1942 -0.3545 -0.1188
 4743W        W21004  14.622  11.921   3.669 -0.5315 -0.0053  0.1503
 4744W        W21005   7.169   3.963   2.189 -0.1301  0.0237  0.2259
 4745W        W21006   9.508  10.079  15.085  0.0897 -0.2387  0.4874
 4746W        W21007   0.286   4.152  13.553  0.2273 -0.0222 -0.0395
 4747W        W21008   4.297   5.206   3.280 -0.2469  0.2389  0.4470
 4748W        W21009  12.368  11.712   2.127  0.2956 -0.3133  0.0550
 4749W        W21010  16.971  10.702  13.381  0.1411  0.0972 -0.2145
 4750W        W21011   2.557  12.596   1.419  0.2911 -0.0200  0.1847
 4751W        W21012  15.270   6.987  14.638 -0.3029  0.1003 -0.0246
 4752W        W21013  12.380  15.311   2.062 -0.0347 -0.0792  0.0748
 4753W        W21014   9.594   8.588   3.479 -0.0124  0.3918  0.2603
 4754W        W21015   8.744  14.961  15.673 -0.1141 -0.2827 -0.0106
 4755W        W21016   8.530  12.441  14.930 -0.3184  0.2086 -0.2330
 4756W        W21017   3.904   0.624   5.082 -0.1484 -0.0641  0.1077
 4757W        W21018   5.065  12.065  14.834 -0.1349 -0.2346 -0.2038
 4758W        W21019  16.395   0.711   2.694 -0.5291  0.0239 -0.0420
 4759W        W21020   2.701   8.763   2.988 -0.2229  0.2084 -0.0043
 4760W        W21021   7.623   5.433  13.613  0.1764 -0.2197  0.0001
 4761W        W21022  16.118   4.484   4.763 -0.2207  0.2063 -0.1328
 4762W        W21023   6.300  11.487  12.458  0.0918  0.0972 -0.1959
 4763W        W21024   6.604   2.058  13.447  0.0052 -0.0649 -0.2658
 4764W        W21025   6.857   1.421   1.304 -0.4413  0.1727 -0.3454
 4765W        W21026   3.460  14.330   3.416  0.2173  0.1458  0.0524
 4766W        W21027   4.160  10.123  13.755 -0.1699  0.2128 -0.3010
 4767W        W21028   2.460  10.619  11.385  0.0215 -0.1902  0.1866
 4768W        W21029  11.063   2.544  14.609 -0.0175 -0.2357 -0.2465
 4769W        W21030  13.956   9.928   2.233 -0.2456  0.0440  0.0796
 4770W        W21031   5.520   6.707  12.977 -0.0412 -0.0648 -0.3872
 4771W        W21032  15.641   7.988   0.470 -0.4790 -0.0581  0.2134
 4772W        W21033   3.898  17.069   1.981 -0.3101  0.3290 -0.1327
 4773W        W21034  15.542  11.998  14.451  0.1066 -0.2140 -0.2026
 4774W        W21035  15.487  15.046   9.222 -0.3474  0.0057 -0.0365
 4775W        W21036  12.618  12.595   3.774  0.3592  0.1145  0.3482
 4776W        W21037  14.228  17.965  13.895 -0.0271  0.0344 -0.0659
 4777W        W21038   1.816   4.119   5.354  0.1518  0.3528 -0.2493
 4778W        W21039   5.235   5.991  13.287 -0.0029  0.3630 -0.1566
 4779W        W21040  12.904  15.323  13.231 -0.1294 -0.3785 -0.0371
 4780W        W21041   3.848  12.954   1.067  0.1240 -0.3242 -0.4845
 4781W        W21042  11.134   2.953  15.901 -0.3414  0.0197 -0.0955
 4782W        W21043  13.911   9.982  13.349  0.2623 -0.1379 -0.0402
 4783W        W21044   1.284  10.925   3.373 -0.1834 -0.1235 -0.1718
 4784W        W21045   6.936   0.961  12.451 -0.1134  0.0514  0.0942
 4785W        W21046   1.373  13.775   1.194  0.4287  0.0301 -0.2777
 4786W        W21047   5.905  11.064  12.514  0.2616  0.4337 -0.1262
 4787W        W21048   8.550   6.819  14.587  0.1623 -0.1196  0.1298
 4788W        W21049   8.963  16.809   2.366  0.0442 -0.2852  0.1064
 4789W        W21050   6.762   0.891   3.827  0.0726  0.2259 -0.0646
 4790W        W21051   3.229  12.631  13.507 -0.3731  0.0181  0.0440
 4791W        W21052   5.332  15.084  14.836 -0.2714  0.1080 -0.0596
 4792W        W21053  14.027  10.819   3.937  0.2819  0.0630 -0.0975
 4793W        W21054   0.044  16.834   4.543 -0.2779 -0.2518  0.2431
 4794W        W21055   6.015   6.001   2.317  0.2602 -0.2484  0.1893
 4795W        W21056   3.794   2.147  14.263 -0.0942  0.0869  0.2614
 4796W        W21057   3.323  16.748   0.265  0.1134  0.1463 -0.0116
 4797W        W21058   5.766   5.712  11.991 -0.0134  0.2907  0.0240
 4798W        W21059   0.368  15.929  15.434 -0.1607  0.1157  0.1043
 4799W        W21060   8.832  17.245  11.794 -0.1937 -0.1000 -0.0797
 4800W        W21061  16.682  16.050  15.188  0.1370 -0.2870  0.0772
 4801W        W21062   0.589   5.486  12.104 -0.0907  0.0168 -0.3595
 4802W        W21063   4.736  18.079   1.147  0.0388 -0.1187  0.0093
 4803W        W21064   2.784  13.687  15.364  0.1233  0.0019  0.0619
 4804W        W21065  12.654   8.456   2.781  0.2074 -0.0056 -0.0312
 4805W        W21066   7.764   5.403   0.493 -0.0214 -0.2005  0.4429
 4806W        W21067   7.470   2.923   2.103  0.3400 -0.0635 -0.0355
 4807W        W21068  13.430  15.781   5.428  0.1651 -0.0126 -0.0019
 4808W        W21069   0.103   5.688  12.264  0.0997  0.1816 -0.4066
 4809W        W21070  17.637   5.522  14.994 -0.0852 -0.3362 -0.0159
 4810W        W21071   8.485   2.113   1.500  0.0269  0.0491 -0.0918
 4811W        W21072   4.749   8.704   4.355 -0.1179  0.1135 -0.1557
 4812W        W21073   2.483   1.861  15.051  0.3752 -0.0574 -0.0886
 4813W        W21074  14.699   9.941  13.222 -0.0999 -0.1765  0.0644
 4814W        W21075  15.701   5.694   2.015 -0.1779 -0.1490  0.1120
 4815W        W21076  11.627  14.172   5.239 -0.4216  0.0896  0.1009
 4816W        W21077  12.194  17.354   0.357  0.0997  0.3885  0.1918
 4817W        W21078  12.637   3.824  12.992  0.0525 -0.1826  0.1598
 4818W        W21079   6.994   9.464   5.773 -0.4197 -0.0678 -0.2472
 4819W        W21080  15.767   8.726  10.983  0.1669  0.2148  0.1875
 4820W        W21081   9.513  18.362  13.235 -0.0267 -0.3637  0.2063
 4821W        W21082   0.766   6.576  13.665 -0.0533  0.0053  0.1246
 4822W        W21083   0.054  10.532   3.253  0.2440  0.0029 -0.0882
 4823W        W21084  11.229   3.399  13.782  0.1225 -0.0985 -0.1040
 4824W        W21085   0.291   7.223  13.278  0.4951  0.0690 -0.2884
 4825W        W21086  11.762   9.646  15.200  0.1440 -0.0318 -0.2597
 4826W        W21087   4.478   5.558  15.635  0.2982 -0.1751 -0.3291
 4827W        W21088   9.713  15.282   5.031  0.1607 -0.1314  0.0054
 4828W        W21089  12.543  11.219  14.291 -0.5278 -0.0817  0.2810
 4829W        W21090   8.564   6.457   2.770 -0.2138  0.0319 -0.1871
 4830W        W21091   2.928  18.032  13.892 -0.1738  0.1665  0.0993
 4831W        W21092  13.274   4.743  15.404 -0.0520  0.4253  0.3110
 4832W        W21093   1.596   7.024   4.405  0.3111  0.3153 -0.0117
 4833W        W21094  15.456  13.847  15.587  0.0230 -0.1810  0.1472
 4834W        W21095   9.859   3.747  11.319  0.0418  0.1511 -0.0764
 4835W        W21096   9.560   4.725  15.429 -0.1934 -0.1419  0.0415
 4836W        W21097   6.059  14.926   5.018 -0.1465  0.3298 -0.3911
 4837W        W21098  16.797   5.727   0.079  0.2065 -0.0081  0.5448
 4838W        W21099   4.176  10.279   3.987 -0.0487  0.1479 -0.2207
 4839W        W21100   5.143   2.562  14.073  0.0380 -0.0854  0.1046
 4840W        W21101   5.403  11.632  14.992  0.1383  0.1834  0.3385
 4841W        W21102   4.115   7.671  15.185 -0.3230  0.1103 -0.1665
 4842W        W21103   9.913  10.774   2.157  0.0901  0.1190 -0.0945
 4843W        W21104   4.306  17.966  12.642  0.2968 -0.0062  0.1202
 4844W        W21105  14.358   7.745   1.827  0.0097  0.0063 -0.1716
 4845W        W21106   6.141   7.188   5.110  0.0330  0.2889 -0.1466
 4846W        W21107  10.719  10.731   4.803  0.3139 -0.0475 -0.0106
 4847W        W21108  18.235   1.186   0.874 -0.1437  0.0569 -0.1285
 4848W        W21109  14.565  10.360  11.063  0.2320  0.0036  0.0848
 4849W        W21110   2.300  17.338   0.791 -0.1241  0.0627  0.3182
 4850W        W21111   0.831   2.942   3.597 -0.0450 -0.1887 -0.2309
 4851W        W21112  10.054   9.141   2.825 -0.1152  0.0698 -0.1918
 4852W        W21113  17.325   6.779   1.628  0.0926  0.1259  0.1461
 4853W        W21114  14.229   0.202   2.506 -0.0580  0.2010 -0.0482
 4854W        W21115   0.874   1.591  12.069 -0.0607  0.3015 -0.0025
 4855W        W21116   6.926   8.362   2.000 -0.0417 -0.4176  0.0017
 4856W        W21117   6.042   0.975  15.715  0.1557  0.1385  0.3420
 4857W        W21118   8.845  14.519  15.475 -0.1890 -0.2814 -0.0193
 4858W        W21119  13.599   6.942   3.442  0.0793  0.0386  0.1514
 4859W        W21120  12.260  15.479  11.956 -0.2326  0.2327 -0.1511
 4860W        W21121  14.950   4.219  11.067  0.2287  0.0992 -0.2034
 4861W        W21122  10.262   7.764   5.390  0.1443  0.0344  0.1458
 4862W        W21123  14.821   3.850   3.309  0.1554 -0.0050 -0.0292
 4863W        W21124  12.343  14.206  13.956  0.1969 -0.1834 -0.0905
 4864W        W21125  13.029   2.429  11.028 -0.1120 -0.2585 -0.1269
 4865W        W21126   9.005   1.103  14.730 -0.0698 -0.0171 -0.3319
 4866W        W21127   8.541  13.432   1.280 -0.3337  0.3738  0.1375
 4867W        W21128  17.542   7.546   4.033 -0.1917 -0.0023  0.0361
 4868W        W21129  12.411   3.155   0.492  0.3334  0.2461  0.0139
 4869W        W21130  11.126   1.035  11.893 -0.2185 -0.1518 -0.0781
 4870W        W21131  16.037   2.431  12.320  0.2275  0.4784 -0.0888
 4871W        W21132  17.320  12.222  11.931  0.1259  0.0520 -0.0999
 4872W        W21133   3.806   5.316   3.742 -0.1426 -0.0333  0.1316
 4873W        W21134   0.616   5.388  11.593 -0.0124 -0.0511 -0.0925
 4874W        W21135  11.469  18.162  14.507 -0.2982 -0.0147 -0.0892
 4875W        W21136  11.555   0.657  12.922 -0.2908 -0.0176 -0.1564
 4876W        W21137  16.575  15.963   1.464  0.3032  0.0449 -0.1057
 4877W        W21138   2.832  13.321   4.975 -0.1218 -0.1101  0.2227
 4878W        W21139  16.386  10.858  11.937  0.1155  0.0645 -0.0646
 4879W        W21140   2.708  15.670   1.850  0.1372  0.0484  0.1503
 4880W        W21141   4.867  15.095  13.008  0.2997 -0.5132 -0.0571
 4881W        W21142  15.135  12.030  12.730 -0.0804  0.1416  0.0127
 4882W        W21143   6.926   2.530   5.406 -0.2176 -0.1308  0.0237
 4883W        W21144  16.015   5.726   3.985  0.1143 -0.1862  0.0145
 4884W        W21145  14.624   2.527   5.728  0.1229 -0.2732  0.1328
 4885W        W21146  15.232  10.019  14.892 -0.1287  0.1149  0.2264
 4886W        W21147   7.197   5.152  11.883 -0.3362 -0.0878 -0.1765
 4887W        W21148  15.763   1.969  14.797  0.0806  0.0095 -0.2579
 4888W        W21149   4.382   3.705   5.554  0.0426 -0.0608 -0.0467
 4889W        W21150  10.895  12.749  13.853 -0.3493 -0.4560 -0.0164
 4890W        W21151   3.030   6.413  14.524 -0.3327 -0.0599  0.0275
 4891W        W21152   0.665   9.219   3.519 -0.2720  0.1535 -0.0892
 4892W        W21153  15.817   2.742  11.189  0.0698  0.1584 -0.0687
 4893W        W21154  10.607   8.333   5.993  0.0240  0.3902 -0.1012
 4894W        W21155   6.713  14.654  14.057  0.0044 -0.2490 -0.1226
 4895W        W21156   4.858  12.767   3.839  0.1209 -0.1917  0.0952
 4896W        W21157  16.466  16.377   0.003  0.3164  0.1413 -0.0248
 4897W        W21158   6.172   6.699   4.640 -0.1485 -0.1628 -0.2360
 4898W        W21159  18.350   2.805  12.302 -0.1046 -0.1816  0.1341
 4899W        W21160  16.666  10.513   2.193  0.0165  0.0265  0.2602
 4900W        W21161   4.153   2.704   0.760  0.2385 -0.0192 -0.7457
 4901W        W21162  10.181  17.986   4.041 -0.2285 -0.2189  0.0989
 4902W        W21163   9.932   3.234  12.197  0.2623 -0.4467 -0.2528
 4903W        W21164  17.504   8.589   3.447 -0.0443 -0.1261 -0.1112
 4904W        W21165  13.841  17.581  11.372 -0.1520  0.3016 -0.1850
 4905W        W21166   7.913   8.267  16.009  0.1904 -0.1589 -0.1220
 4906W        W21167  14.652  12.189  10.486  0.0001 -0.0054 -0.0814
 4907W        W21168  11.391   8.042   0.393  0.0530 -0.1122 -0.1788
 4908W        W21169   6.541  16.547  12.848  0.3815 -0.2954 -0.1904
 4909W        W21170   9.174  18.385  11.667 -0.1336  0.1918  0.1114
 4910W        W21171   3.906  11.750  13.808  0.1960 -0.1432  0.1434
 4911W        W21172  17.965   3.999   0.965  0.0439 -0.0065  0.1205
 4912W        W21173   6.590  18.396   2.469 -0.1607 -0.1810  0.3819
 4913W        W21174  14.398   0.717   1.659 -0.0157  0.1604  0.1769
 4914W        W21175   4.236   8.580   4.913 -0.0479 -0.0465 -0.3108
 4915W        W21176  17.132   8.282   3.309  0.1146 -0.0564 -0.3120
 4916W        W21177  14.019   1.346  15.340 -0.0601  0.1219 -0.0762
 4917W        W21178   8.530   0.548  15.913  0.0197 -0.2352  0.2345
 4918W        W21179   9.236   6.000   0.484  0.1594 -0.2900  0.1642
 4919W        W21180   5.426  17.126   4.935  0.1297  0.2422  0.0738
 4920W        W21181  13.767  14.345  15.034  0.0353 -0.0980  0.0167
 4921W        W21182  17.437   7.557   3.527  0.0191  0.5458 -0.2085
 4922W        W21183   1.518   4.139   1.088  0.3377  0.0013  0.0074
 4923W        W21184  15.127   7.637  10.594  0.5355  0.2326  0.0542
 4924W        W21185   3.425   4.559  12.350  0.2180 -0.2597 -0.0290
 4925W        W21186   7.838  17.106  13.620  0.0565  0.3621  0.2594
 4926W        W21187  10.692   6.920   2.619 -0.2572  0.2114 -0.1205
 4927W        W21188   3.900   5.701  14.672  0.3237 -0.2360 -0.1509
 4928W        W21189   0.464   8.280   1.481 -0.2037  0.0044  0.1427
 4929W        W21190  14.114   7.436   2.874  0.0744  0.0755 -0.0204
 4930W        W21191   1.768   9.792  13.267 -0.0421 -0.2073  0.0007
 4931W        W21192  10.012  14.006  11.291  0.0207  0.0617 -0.0060
 4932W        W21193   0.162  11.617  14.016  0.1164  0.0725 -0.2017
 4933W        W21194   2.628   0.926   2.846 -0.0051 -0.3243 -0.2598
 4934W        W21195   2.450  12.799  11.322 -0.0534 -0.0679 -0.1537
 4935W        W21196  12.196  16.673   3.687  0.2630  0.1946  0.0492
 4936W        W21197   4.499   7.927   3.011 -0.0959  0.3081 -0.2057
 4937W        W21198  11.130   7.645  11.150  0.1996  0.0186 -0.0743
 4938W        W21199  12.964   3.052  12.523 -0.1494 -0.1193 -0.3336
 4939W        W21200  17.906   9.447   5.147 -0.0140 -0.0606 -0.2208
 4940W        W21201   8.314   4.525   6.457  0.1544  0.3588 -0.0677
 4941W        W21202   5.714  11.284  15.187  0.1601 -0.1273  0.3028
 4942W        W21203   7.709   3.612   0.057 -0.1271  0.2810  0.4500
 4943W        W21204   7.978  13.650   0.549 -0.5460  0.0348  0.0830
 4944W        W21205  15.382  14.750  14.577  0.0482 -0.2644  0.0037
 4945W        W21206   9.894  14.712   4.860 -0.0208  0.0747  0.1441
 4946W        W21207  14.607   3.036   4.077 -0.1211 -0.1254  0.0128
 4947W        W21208   6.493  17.281  12.233  0.2842 -0.1961  0.2486
 4948W        W21209  15.303   8.724   4.908 -0.0776 -0.3336 -0.0146
 4949W        W21210  14.402   0.316  16.001 -0.1683  0.0381  0.4190
 4950W        W21211   7.232  17.267   5.379  0.1906 -0.1395  0.0279
 4951W        W21212   8.442   4.518  13.709 -0.1300 -0.1187  0.0592
 4952W        W21213  16.343  12.669   4.540 -0.1155 -0.5326 -0.0651
 4953W        W21214   8.560   3.336   4.265  0.2320  0.0108  0.1910
 4954W        W21215   9.845  13.980  11.891  0.1424  0.0562  0.0174
 4955W        W21216  17.057   3.123  12.845  0.3052 -0.0484 -0.0129
 4956W        W21217  10.062  12.922   2.488 -0.0492 -0.0322 -0.0648
 4957W        W21218  10.047   0.633   2.368 -0.7770  0.3620  0.0252
 4958W        W21219  12.632   1.104  13.969  0.2707 -0.2818  0.2799
 4959W        W21220  17.046   5.200   2.838 -0.0992 -0.1817  0.2065
 4960W        W21221  10.583  14.190  15.068 -0.3130 -0.2337  0.0564
 4961W        W21222   2.403   3.093  11.869 -0.0340  0.0303 -0.0384
 4962W        W21223   1.300   7.697  13.019 -0.0115  0.3932  0.0634
 4963W        W21224  10.910  15.370   0.646 -0.0186 -0.0453  0.1861
 4964W        W21225   5.151  17.149   3.973  0.3040 -0.2756 -0.0053
 4965W        W21226   3.916   6.608  14.143 -0.2071  0.0841  0.1865
 4966W        W21227   5.589  14.610   3.496 -0.1254  0.3102 -0.0378
 4967W        W21228  12.254   8.026   3.544 -0.0975 -0.2322  0.1229
 4968W        W21229  16.138  15.544   0.494 -0.0139  0.2180 -0.2650
 4969W        W21230   0.156   7.254  11.711  0.0733  0.0390 -0.1533
 4970W        W21231   4.206  14.398  14.311  0.3607  0.2903  0.4227
 4971W        W21232  13.762  17.867  15.547 -0.2513 -0.2201 -0.0282
 4972W        W21233  16.186   3.494  14.992 -0.1207  0.0009 -0.2196
 4973W        W21234   1.421   0.674   2.681 -0.2417 -0.2096 -0.1984
 4974W        W21235   9.082  18.391  16.149 -0.2347 -0.0006  0.0510
 4975W        W21236  14.381   2.560   3.903  0.0832 -0.0983 -0.0267
 4976W        W21237   4.213  11.676  14.744  0.1783  0.2383  0.0263
 4977W        W21238  17.554  11.471  13.544  0.2364 -0.2077 -0.0668
 4978W        W21239  13.996   3.882   9.982 -0.2964 -0.0224 -0.1495
 4979W        W21240   5.034  17.000  15.175 -0.2151 -0.1033 -0.2405
 4980W        W21241   0.381   3.347   5.511 -0.1081 -0.0553 -0.0110
 4981W        W21242   0.794  14.885  15.899  0.0083 -0.1739  0.1554
 4982W        W21243   0.264   4.857   4.350  0.5676 -0.2809 -0.3229
 4983W        W21244   7.514  14.475  15.450 -0.0424  0.2135 -0.1403
 4984W        W21245  13.236   1.483   3.377 -0.0482 -0.1528 -0.3657
 4985W        W21246  10.940  12.247  13.704 -0.0915  0.0231  0.0521
 4986W        W21247   8.917   1.975  13.569 -0.1066  0.4245  0.3096
 4987W        W21248   3.044  18.137  10.426 -0.3041 -0.0440 -0.0505
 4988W        W21249   7.752   6.707  15.224  0.2569  0.2629  0.0847
 4989W        W21250   8.077  12.196  15.855  0.3491 -0.2163 -0.3586
 4990W        W21251   8.985   6.751  11.795  0.0356  0.0469 -0.2100
 4991W        W21252   0.107  13.506   1.478  0.0665  0.2121 -0.1606
 4992W        W21253   7.770   6.598   1.460 -0.0314  0.0325 -0.2529
 4993W        W21254  10.411   7.524  12.772 -0.1259 -0.0165  0.0675
 4994W        W21255   8.400  14.734   4.046 -0.2912 -0.0700 -0.2386
 4995W        W21256   6.526   1.200  14.629 -0.1753 -0.1079  0.1661
 4996W        W21257  17.136   1.642   4.652  0.1340 -0.0229 -0.0992
 4997W        W21258   4.480   2.665   1.192 -0.0556 -0.3986  0.0166
 4998W        W21259   0.385  13.884   5.418 -0.1909 -0.1981  0.2186
 4999W        W21260   1.400  16.704   4.421  0.0360 -0.2099  0.0195
 5000W        W21261   5.950  18.003   2.016 -0.1550  0.0426  0.1493
 5001W        W21262   9.535  15.839   1.507  0.0864 -0.2703 -0.0349
 5002W        W21263   8.222  15.975  14.185 -0.1203 -0.1447 -0.2847
 5003W        W21264   9.698  11.856  13.336 -0.1044  0.3942 -0.1802
 5004W        W21265   5.107  14.919  16.044 -0.2710  0.0820 -0.3764
 5005W        W21266   0.817  16.663   1.234 -0.0143 -0.1744  0.2664
 5006W        W21267   1.631  10.647  13.591 -0.1686 -0.0741  0.0107
 5007W        W21268   3.035   5.238  13.008  0.0088  0.1964 -0.0995
 5008W        W21269   2.417   3.129   4.601  0.1062  0.3562  0.0036
 5009W        W21270   5.838   1.705  12.419 -0.1252  0.2424 -0.1630
 5010W        W21271   9.076  16.149   3.402 -0.1977 -0.1491 -0.2007
 5011W        W21272  16.871   1.846  10.939 -0.1224 -0.0950 -0.1584
 5012W        W21273   3.642  18.204   1.767 -0.0993 -0.0881 -0.3987
 5013W        W21274   6.728   9.224   0.449  0.1627  0.1031  0.3677
 5014W        W21275   0.830  13.060   6.533 -0.2344 -0.0855  0.0606
 5015W        W21276   0.333  10.334  13.420 -0.1579  0.1473 -0.2438
 5016W        W21277   9.289   4.947   2.693  0.4075  0.0994  0.2111
 5017W        W21278  15.914  18.386   3.195 -0.4548 -0.1194  0.1276
 5018W        W21279  17.869  10.462  14.401 -0.0272 -0.1526 -0.2510
 5019W        W21280   6.030  13.184   2.952 -0.0251 -0.1194  0.0927
 5020W        W21281   3.875   5.240  14.987  0.3581 -0.0466  0.1671
 5021W        W21282  17.965  10.745  15.157 -0.0128  0.0297 -0.3334
 5022W        W21283   4.134  18.225   2.259 -0.2361 -0.1247  0.2153
 5023W        W21284   6.223  14.815  11.428 -0.1924 -0.0048 -0.0709
 5024W        W21285  10.553  11.733   1.487  0.2318  0.3156  0.3437
 5025W        W21286   5.448  14.403   0.485  0.0940  0.0520  0.0372
 5026W        W21287  17.174  10.264  13.595  0.0650  0.0169 -0.2321
 5027W        W21288   9.221  18.262   4.254 -0.0990  0.2016 -0.0890
 5028W        W21289   5.051   6.643   2.532  0.0445 -0.0712 -0.1251
 5029W        W21290  12.146   5.579   5.203  0.0743  0.2860  0.0866
 5030W        W21291   7.100  14.829  14.367  0.3303  0.2196 -0.1510
 5031W        W21292   8.257  17.492  13.201 -0.0666 -0.1646  0.0054
 5032W        W21293   4.107   3.771  11.908  0.1588 -0.1172 -0.1885
 5033W        W21294  13.777  10.244   1.089 -0.0991  0.0068 -0.1667
 5034W        W21295  16.996  10.899  14.028  0.0634 -0.0355 -0.1407
 5035W        W21296   1.021  16.042   0.347  0.1118 -0.1685 -0.1319
 5036W        W21297  13.812   0.632  14.242 -0.2762  0.0825 -0.2169
 5037W        W21298   2.584  14.370   0.957 -0.0105 -0.3977  0.1295
 5038W        W21299   2.737  12.790  12.254 -0.3268 -0.1768 -0.0592
 5039W        W21300   5.373   1.820  14.314 -0.1432  0.1919  0.0114
 5040W        W21301  12.850  15.266   1.802  0.2323  0.1469  0.0230
 5041W        W21302   0.961   4.927  10.863 -0.0438 -0.1234 -0.1427
 5042W        W21303  12.008  12.734  11.041 -0.0686 -0.0595  0.0430
 5043W        W21304  16.145  16.197   1.741 -0.0519 -0.2369  0.0004
 5044W        W21305   4.170  13.814  15.449 -0.1717 -0.1055 -0.2369
 5045W        W21306  10.114  10.919  15.058  0.0756 -0.0920 -0.0837
 5046W        W21307   1.306  15.639   0.138  0.2107 -0.1158  0.0711
 5047W        W21308   3.278  15.447   3.128 -0.0303  0.2714  0.1820
 5048W        W21309   8.147  16.253   3.282  0.1094 -0.0859  0.3141
 5049W        W21310   7.083  13.483   3.972  0.0677  0.0117 -0.0345
 5050W        W21311   0.346   5.196   0.729  0.4761  0.1347 -0.2947
 5051W        W21312  17.991   6.986  13.804 -0.0047 -0.1610  0.1727
 5052W        W21313  17.718  11.064  13.683  0.0967  0.1385  0.2748
 5053W        W21314   8.572  16.400  12.082  0.1238 -0.0266 -0.0068
 5054W        W21315  16.067   4.012   0.302  0.1474  0.0448  0.0902
 5055W        W21316   6.042  10.823  11.726 -0.0382 -0.2028 -0.2981
 5056W        W21317  10.922  18.216   2.485 -0.0665 -0.0287  0.0289
 5057W        W21318  17.358  10.695  11.695 -0.0007 -0.0025 -0.0502
 5058W        W21319   5.153   0.450  12.351 -0.1255  0.0786  0.1425
 5059W        W21320  18.388  12.553   0.574  0.2914 -0.0106 -0.0832
 5060W        W21321   2.776   4.999  15.823  0.0766  0.2873 -0.1473
 5061W        W21322   8.437   3.738  12.463  0.1332 -0.2646 -0.1402
 5062W        W21323   9.990   5.073  15.189 -0.1241 -0.2076 -0.2466
 5063W        W21324  17.269  15.299  12.569  0.2165  0.0115  0.4103
 5064W        W21325  12.135  13.313   1.922  0.2376 -0.2057  0.4982
 5065W        W21326   3.640   2.933  11.966  0.4503  0.1351 -0.4347
 5066W        W21327  18.022   3.587   0.141 -0.1556 -0.0334  0.0805
 5067W        W21328   7.149  17.046  14.493 -0.1296 -0.0642 -0.1265
 5068W        W21329  11.770  13.985  13.325 -0.2312 -0.0639 -0.3176
 5069W        W21330   2.200   6.325  15.292  0.0930  0.3055 -0.0741
 5070W        W21331  11.507  11.867  11.636  0.1937  0.0219  0.0371
 5071W        W21332  10.321  14.278   2.238  0.0776  0.1328 -0.1038
 5072W        W21333  13.707   8.212   3.330  0.0986 -0.1626 -0.1385
 5073W        W21334   6.150  12.740  15.595 -0.0969 -0.1207  0.1837
 5074W        W21335   8.484   6.963   2.765  0.1622  0.1065 -0.1016
 5075W        W21336  13.633   7.255   3.073 -0.1797  0.0050 -0.0239
 5076W        W21337   6.079   7.251   5.663 -0.4264  0.2269 -0.0758
 5077W        W21338   4.447  10.161  14.627 -0.0486  0.2112  0.0479
 5078W        W21339  12.623  14.229  10.510  0.0542  0.2317 -0.0081
 5079W        W21340   4.993   6.471   1.082 -0.0569  0.0806 -0.2870
 5080W        W21341  14.181  14.679   1.856  0.0627  0.0239  0.3526
 5081W        W21342   7.756   0.393   4.352  0.0242  0.2481 -0.0377
 5082W        W21343  10.142   7.503   1.863  0.2051  0.0652  0.2386
 5083W        W21344   2.420   4.201  12.093  0.1815  0.1725  0.0027
 5084W        W21345   3.399   8.232  12.152 -0.1320  0.0193 -0.0297
 5085W        W21346   4.676  15.599   5.000 -0.3197  0.0210  0.0994
 5086W        W21347   5.953   6.008  13.991 -0.3098 -0.0207 -0.2184
 5087W        W21348  16.691   5.088   1.445 -0.0483 -0.0695 -0.1586
 5088W        W21349   6.879   6.337  12.165  0.2911  0.2743  0.0887
 5089W        W21350   5.095   8.660  14.714 -0.2599 -0.0148 -0.1506
 5090W        W21351  15.480   6.790   2.974  0.1377 -0.0347 -0.1456
 5091W        W21352   0.403  12.045  14.219  0.1601 -0.0533 -0.0076
 5092W        W21353  17.349  13.843   2.872  0.0357 -0.1902 -0.3225
 5093W        W21354  10.168  14.749  13.469 -0.0425 -0.0593  0.1703
 5094W        W21355   6.078   7.926  11.926  0.2402 -0.1630  0.0769
 5095W        W21356  12.594   9.375  13.390 -0.2422  0.4364 -0.0580
 5096W        W21357  17.863  18.438   5.179  0.1601  0.1218 -0.0678
 5097W        W21358  13.650  15.105  15.516 -0.2972 -0.0569  0.0688
 5098W        W21359  13.867   0.113  14.071  0.0495 -0.1510 -0.1708
 5099W        W21360  15.257  13.423   4.170 -0.1569 -0.2450  0.2037
 5100W        W21361   7.150  11.645   3.179  0.0210 -0.0772 -0.0667
 5101W        W21362  14.134   0.019  11.279  0.0252  0.4988 -0.2154
 5102W        W21363  14.704  10.847  11.039  0.0125  0.0296  0.0837
 5103W        W21364   5.511   8.337  14.790  0.4368  0.0595 -0.1179
 5104W        W21365   1.900   3.553   2.220 -0.3537 -0.1220 -0.1259
 5105W        W21366   6.972  12.772   2.443 -0.3370 -0.0596  0.2893
 5106W        W21367  14.848   9.484  16.088  0.3359  0.1563 -0.0652
 5107W        W21368  11.272  14.543  14.723  0.0695  0.5039  0.0093
 5108W        W21369  13.942  11.971  10.977  0.0141  0.2333  0.3166
 5109W        W21370   3.381   8.977  11.761 -0.0892  0.0460 -0.1435
 5110W        W21371  11.576  15.069   3.825  0.1675 -0.0620  0.0604
 5111W        W21372   1.186  11.696  14.883 -0.0212 -0.1100  0.3499
 5112W        W21373  12.682   6.410  13.761  0.0730  0.4804 -0.0046
 5113W        W21374  12.331   3.020  15.308 -0.0277 -0.2653 -0.0995
 5114W        W21375  11.595  16.946   2.990 -0.2622  0.1798  0.4354
 5115W        W21376  11.258   2.923  11.577 -0.0464  0.0632  0.0830
 5116W        W21377   6.376   5.652   1.274  0.1648 -0.0434 -0.1073
 5117W        W21378   5.312  13.892   5.393  0.0678 -0.0463 -0.3253
 5118W        W21379   0.136   7.069  13.846  0.2478  0.2487  0.1162
 5119W        W21380  11.578  11.217   2.460 -0.0229 -0.1325  0.1265
 5120W        W21381  17.591  17.909   0.120 -0.1216 -0.2818 -0.1636
 5121W        W21382  12.967  12.029   2.414 -0.0929  0.3318 -0.0238
 5122W        W21383  14.754   9.395   1.233 -0.0051  0.0380  0.0678
 5123W        W21384   9.094   5.984   4.013 -0.0124  0.0738 -0.0574
 5124W        W21385  12.128   3.938  14.243 -0.0421  0.4352  0.0195
 5125W        W21386  12.970  10.685  15.664 -0.1839 -0.0411 -0.1348
 5126W        W21387   7.837   4.188   6.674  0.1779  0.2293  0.1110
 5127W        W21388  11.263   1.649  15.892 -0.0510  0.1293  0.0202
 5128W        W21389  18.123   9.892  15.813 -0.4949 -0.2807 -0.3813
 5129W        W21390   1.555   4.623  12.823  0.2970 -0.0067  0.0150
 5130W        W21391   0.942  13.893   4.036 -0.2507 -0.0636  0.1750
 5131W        W21392  15.532   3.435   4.989  0.3831 -0.2876  0.0805
 5132W        W21393  15.078   8.761  15.210  0.0541 -0.1238  0.4071
 5133W        W21394  15.168   5.001   5.540  0.0120  0.0261 -0.2337
 5134W        W21395   1.068  10.719  11.680  0.1619  0.2069  0.1823
 5135W        W21396   7.508  17.754   3.694 -0.2778  0.0394  0.1549
 5136W        W21397  12.784   2.723  13.679 -0.0365 -0.0185 -0.0223
 5137W        W21398   3.540  11.397  11.345 -0.0964  0.0231  0.1736
 5138W        W21399   2.111   4.119  13.289 -0.0367 -0.1649  0.0631
 5139W        W21400   0.868   0.255  14.808  0.1681 -0.0946  0.1911
 5140W        W21401   9.935   8.644   5.329  0.0218  0.1173 -0.2172
 5141W        W21402  13.544   4.112  11.030  0.0676 -0.0317 -0.1667
 5142W        W21403   5.247  12.174   0.724 -0.0359  0.0730 -0.0267
 5143W        W21404   7.988  17.984  13.388 -0.3641 -0.2072  0.0158
 5144W        W21405   7.923   0.264   0.590  0.2393  0.2231 -0.0135
 5145W        W21406  15.760   0.485  10.593  0.1049 -0.1679 -0.0836
 5146W        W21407  18.255   4.924  13.608 -0.1632  0.2768  0.0828
 5147W        W21408   3.620  17.003  15.013  0.0991 -0.1976  0.0346
 5148W        W21409  12.310   9.788  13.068  0.2295  0.1428 -0.0711
 5149W        W21410  18.205  12.006  14.706  0.1305  0.1923 -0.0955
 5150W        W21411  12.392   2.057  14.259 -0.2238 -0.1196 -0.0113
 5151W        W21412   2.531   5.105   3.913 -0.2126  0.1758  0.1093
 5152W        W21413  17.100  16.172  11.501  0.0540 -0.0717  0.0166
 5153W        W21414  15.204  18.335  14.899 -0.0022  0.2602  0.3283
 5154W        W21415   5.372   6.435   0.614  0.1032  0.3587 -0.2816
 5155W        W21416   9.174   9.092   1.294 -0.1998  0.0488 -0.0777
 5156W        W21417   7.216   2.636   1.262  0.1380  0.0372  0.2823
 5157W        W21418  12.972   6.036   3.187 -0.1014 -0.1302  0.4172
 5158W        W21419  17.454   9.428  15.589 -0.1946  0.4533  0.0191
 5159W        W21420   1.493  16.270   2.962 -0.3784  0.1245 -0.1846
 5160W        W21421   8.024  17.354   1.913 -0.1591 -0.0530  0.1229
 5161W        W21422   6.546   6.921   0.239 -0.0586  0.0922  0.0509
 5162W        W21423   6.552   8.774   1.368  0.2335  0.0612 -0.0419
 5163W        W21424  12.102   4.492  15.900  0.2350 -0.2047  0.2112
 5164W        W21425   1.092  12.649   2.707 -0.0004 -0.2871 -0.2339
 5165W        W21426   6.908   4.603  13.134  0.0308  0.4672  0.1122
 5166W        W21427  13.193   8.442   0.594 -0.3989 -0.2295 -0.0058
 5167W        W21428  14.653  10.251  11.882 -0.2086 -0.1328  0.0609
 5168W        W21429   5.629   9.149  10.804  0.0294  0.0796  0.1336
 5169W        W21430   9.819  14.859  15.871 -0.0656 -0.3825 -0.1764
 5170W        W21431   8.760   5.357  14.227 -0.2313 -0.1764  0.1431
 5171W        W21432   9.428   5.547   2.687  0.1502 -0.2630  0.0788
 5172W        W21433  11.428   7.953  15.188 -0.0090  0.1271  0.3570
 5173W        W21434   1.961   8.295  15.077 -0.0633 -0.3330  0.0248
 5174W        W21435   4.505  10.850  15.661  0.0604  0.0544 -0.2490
 5175W        W21436   4.570  12.949  13.838 -0.0391 -0.0500 -0.1103
 5176W        W21437  17.877  14.981   3.226 -0.0135  0.1342 -0.0271
 5177W        W21438  14.461  14.906  12.415  0.0423  0.3485  0.1759
 5178W        W21439   8.652   7.066   3.598  0.1162  0.1771 -0.0787
 5179W        W21440   2.071   4.053   2.359 -0.0833 -0.2581  0.1728
 5180W        W21441   0.380   8.736   3.404  0.1186 -0.1578  0.1823
 5181W        W21442   1.322  17.852   3.646  0.1275  0.3964  0.1038
 5182W        W21443   1.205   0.162   5.162 -0.2421  0.2467 -0.0405
 5183W        W21444  12.211  12.186   3.024 -0.1542  0.1164  0.2534
 5184W        W21445  13.165  18.221   5.171 -0.0547  0.2475 -0.0539
 5185W        W21446  18.049  13.122  15.451  0.1068 -0.0686 -0.0630
 5186W        W21447   3.459   4.355   4.076  0.2169  0.1088 -0.1210
 5187W        W21448  17.341   9.869   1.673  0.2254  0.0316  0.0931
 5188W        W21449   8.457   0.747   1.576  0.1567  0.1098  0.3247
 5189W        W21450  16.681   2.736  11.000  0.1087 -0.2645 -0.1834
 5190W        W21451   4.257   3.722   3.398 -0.0793 -0.0478 -0.0293
 5191W        W21452   3.493  18.338   4.930  0.0827 -0.1495  0.1857
 5192W        W21453   4.097   9.777  10.627  0.0983 -0.0514 -0.5263
 5193W        W21454   7.837   4.906   2.655  0.3430 -0.2686 -0.1468
 5194W        W21455   0.567  15.100  11.811 -0.4415  0.0532  0.0674
 5195W        W21456   8.236  12.821  11.616  0.0176 -0.0857 -0.0460
 5196W        W21457  15.843  16.623  14.227  0.3059  0.2646  0.3577
 5197W        W21458  12.768   3.264   1.083  0.1760  0.2143 -0.0115
 5198W        W21459   6.296   6.204   3.239 -0.2352 -0.0580  0.0962
 5199W        W21460  10.868   3.625  12.877  0.0834 -0.2983 -0.2556
 5200W        W21461   0.639   5.125   3.343  0.2671 -0.2467 -0.0471
 5201W        W21462  17.051   9.610  12.910 -0.3566 -0.5326  0.1923
 5202W        W21463   0.987  15.252  12.096  0.1298  0.2406  0.0959
 5203W        W21464   2.164  16.632  14.187 -0.1122 -0.2232  0.0420
 5204W        W21465  17.457   6.197  14.949 -0.1220 -0.0253  0.0482
 5205W        W21466  12.652   0.661   3.459  0.1142  0.1907 -0.0054
 5206W        W21467  17.333   0.261   0.222 -0.0026  0.2147 -0.0068
 5207W        W21468  15.395  11.590  12.698 -0.1802  0.0161  0.1607
 5208W        W21469   6.707   8.479   4.513 -0.3701 -0.3380  0.2450
 5209W        W21470   3.742  17.469  12.890 -0.3002  0.4039  0.0948
 5210W        W21471   2.882   5.547  11.720  0.0434  0.1765  0.1862
 5211W        W21472  17.313   8.075  13.297 -0.0401 -0.4751 -0.1502
 5212W        W21473   1.585  15.843   5.013 -0.0641  0.0818 -0.0903
 5213W        W21474   5.682  11.473  12.184 -0.2752  0.0804 -0.0817
 5214W        W21475  13.694  18.424  11.063  0.0293 -0.4368  0.2880
 5215W        W21476   6.892   9.481   5.282  0.1801 -0.1775  0.0196
 5216W        W21477  16.391  16.582  15.732 -0.3371 -0.0469  0.1057
 5217W        W21478  12.713   9.540  14.985 -0.1422  0.1193  0.1594
 5218W        W21479  17.559  12.991  15.777 -0.1585 -0.0079 -0.0787
 5219W        W21480   7.833   5.167   3.168 -0.2731  0.0486 -0.0363
 5220W        W21481   3.468  13.332   3.889 -0.1409 -0.1007  0.0237
 5221W        W21482  13.535  17.714  15.021 -0.1321  0.1607 -0.0811
 5222W        W21483   0.606   1.007   5.180 -0.0521  0.0168  0.2396
 5223W        W21484  16.508   3.904  14.971  0.1740  0.1275 -0.5627
 5224W        W21485  10.609  11.017   1.153 -0.2108  0.0123 -0.0757
 5225W        W21486   6.745   4.961   0.667  0.4491 -0.0279 -0.0541
 5226W        W21487  16.883   8.216  11.112  0.2081  0.1653 -0.2966
 5227W        W21488  10.275   6.528  12.881 -0.1249 -0.3698  0.0665
 5228W        W21489  10.021   4.830   1.123 -0.2495  0.3099  0.1476
 5229W        W21490  17.885   6.377   2.198 -0.1575 -0.1040 -0.0730
 5230W        W21491   2.838   1.300   1.847 -0.0089  0.0254  0.0143
 5231W        W21492   2.734  17.416   2.205  0.1401 -0.2856 -0.1568
 5232W        W21493  10.355   8.923  11.832 -0.1933 -0.1890  0.3985
 5233W        W21494   1.277  17.956  16.118  0.0569 -0.1565  0.0110
 5234W        W21495  14.852  13.130  11.633 -0.2625  0.0472  0.1682
 5235W        W21496   6.090   9.483  13.110 -0.0751 -0.0660 -0.0574
 5236W        W21497  17.297   7.977  14.185 -0.2373  0.0310 -0.0676
 5237W        W21498   7.749   2.928  15.563  0.1870  0.2578 -0.1608
 5238W        W21499  10.265   7.971  11.787  0.1307  0.1094  0.0981
 5239W        W21500   1.164  17.422  12.535 -0.1319 -0.1231 -0.2591
 5240W        W21501  15.685   7.314  15.451  0.1527 -0.2660 -0.0690
 5241W        W21502  10.192  15.759  13.724 -0.0041 -0.0713  0.0555
 5242W        W21503   8.671  16.454  12.739  0.1765  0.1003 -0.0075
 5243W        W21504   1.498   1.560   3.897 -0.0467  0.1243 -0.1638
 5244W        W21505  12.897   8.153  14.654  0.2438 -0.1566  0.1848
 5245W        W21506  12.966  15.707  15.678 -0.0585  0.1680 -0.3797
 5246W        W21507   0.723  16.946  13.866 -0.1183  0.1548 -0.1170
 5247W        W21508   1.853   9.480  14.647  0.1928 -0.0824 -0.0544
 5248W        W21509   5.904  10.618   0.300 -0.1818 -0.1699  0.0132
 5249W        W21510   5.013  17.746  12.206  0.1961  0.1471 -0.1037
 5250W        W21511  13.970  15.250   5.224  0.1487  0.0710 -0.2341
 5251W        W21512  15.036  12.567  13.657  0.1645 -0.0151 -0.0689
 5252W        W21513  14.033  16.281  13.215 -0.2365 -0.1863  0.1364
 5253W        W21514   5.226   8.310   3.070 -0.0110  0.0483 -0.2169
 5254W        W21515  18.117   4.498   0.118  0.0213  0.0140  0.1477
 5255W        W21516   3.780   8.085  12.444 -0.1232 -0.1754  0.2357
 5256W        W21517   4.094   8.490   1.262 -0.1574 -0.0778 -0.4597
 5257W        W21518   7.707  12.901   2.580 -0.0314  0.2642 -0.0871
 5258W        W21519   9.721  10.074  15.537  0.0679  0.1821  0.1583
 5259W        W21520   4.648  17.506   4.863  0.0416 -0.0895  0.3950
 5260W        W21521  16.040  13.282  12.324  0.2608 -0.2332 -0.0342
 5261W        W21522   6.523   7.734  11.884  0.2267 -0.2603  0.1435
 5262W        W21523   3.978  12.679  11.369  0.1998 -0.0766 -0.1809
 5263W        W21524  13.994   6.060  14.941  0.1086  0.0010  0.0439
 5264W        W21525  17.785   4.040   3.718 -0.4326  0.0845 -0.3680
 5265W        W21526   6.990  13.194   0.942 -0.1285 -0.0304 -0.1080
 5266W        W21527   8.834   4.054   0.675 -0.2527 -0.0933 -0.0551
 5267W        W21528   6.812   6.059   5.374 -0.3329  0.1924 -0.0112
 5268W        W21529  17.471   6.622   5.297  0.0767  0.3595  0.0781
 5269W        W21530   3.473  11.347  16.185 -0.0753 -0.3095 -0.0888
 5270W        W21531  14.611  12.796  11.383  0.4073  0.2931 -0.2393
 5271W        W21532   8.511  17.878  15.340  0.0861 -0.1920  0.0308
 5272W        W21533   9.796   1.372   3.034 -0.1619  0.1436 -0.1136
 5273W        W21534   2.794  17.820  14.759  0.1782 -0.0750  0.1756
 5274W        W21535  14.712  12.410   4.022  0.0184 -0.1015  0.3706
 5275W        W21536   5.997   1.440   0.155  0.1609 -0.1300  0.0763
 5276W        W21537  17.958   8.278   4.427 -0.3191  0.1439 -0.1297
 5277W        W21538   0.604   0.212  13.813 -0.0279  0.4829  0.1995
 5278W        W21539  17.848  10.297   4.330 -0.0177 -0.0554 -0.2442
 5279W        W21540  16.090  14.391   1.487  0.1724 -0.0739 -0.0239
 5280W        W21541  12.265  15.941  11.067  0.0217 -0.1912 -0.4586
 5281W        W21542  11.220   6.059   5.575  0.3183 -0.1526  0.1263
 5282W        W21543  15.508  12.773   0.518  0.0091 -0.5511  0.2023
 5283W        W21544   1.796  15.892  16.033 -0.1412 -0.0498  0.0185
 5284W        W21545   9.686  14.441   5.256 -0.0694 -0.0485  0.0214
 5285W        W21546  15.230   7.494   5.101  0.3667  0.3056 -0.0706
 5286W        W21547   6.811   2.698  11.913 -0.2604 -0.0953 -0.3308
 5287W        W21548   6.126   2.140  13.277  0.0317  0.3164  0.4208
 5288W        W21549   8.830   9.226   3.798  0.1402  0.1852  0.2284
 5289W        W21550  10.145   8.343  13.920  0.0305  0.0346 -0.1812
 5290W        W21551  14.265   6.689  13.552  0.1822 -0.2262  0.0546
 5291W        W21552   2.534   5.352   0.317 -0.0410  0.0495 -0.0253
 5292W        W21553   3.558   1.931   3.873 -0.0534  0.3025 -0.2149
 5293W        W21554  17.998   9.549   2.337 -0.4082  0.0524  0.4298
 5294W        W21555  12.686   5.258   2.535 -0.1700 -0.0513  0.0180
 5295W        W21556   4.893  15.226  14.592 -0.2022 -0.0165  0.0667
 5296W        W21557   8.263  15.139  12.886  0.4188 -0.2842 -0.0889
 5297W        W21558   0.195  12.852   4.723 -0.1008 -0.0377 -0.2797
 5298W        W21559   7.776   6.096   3.761 -0.1612 -0.2864  0.1774
 5299W        W21560   7.701  13.576   1.224 -0.3194  0.4350  0.2350
 5300W        W21561  14.516   4.962   3.890  0.1063  0.1466  0.2827
 5301W        W21562  12.024  11.314  12.067 -0.0604 -0.1838 -0.2703
 5302W        W21563   1.543   1.420   5.589 -0.1233  0.0672 -0.2270
 5303W        W21564   3.726  17.788  15.115  0.0408  0.1196 -0.1337
 5304W        W21565   2.731   6.927  12.160  0.4305  0.2941 -0.0582
 5305W        W21566  16.718   9.320  13.643 -0.0767  0.1659 -0.1112
 5306W        W21567  12.515   6.752  11.921  0.1205  0.2603  0.1608
 5307W        W21568   7.541  16.982  14.079  0.3984 -0.0255 -0.0241
 5308W        W21569   6.172   2.908   1.612 -0.1121  0.1997 -0.3328
 5309W        W21570   1.874  12.333   4.625 -0.3479 -0.0538 -0.0225
 5310W        W21571   7.058  13.913  12.833 -0.3026  0.0904  0.2397
 5311W        W21572   8.909  15.918   2.576 -0.1103 -0.2244 -0.1243
 5312W        W21573  17.006   7.552  11.948  0.2110  0.1930  0.2038
 5313W        W21574   2.464  15.150   5.363 -0.0355  0.0307 -0.0990
 5314W        W21575   6.013  11.469   4.381 -0.2222  0.0883  0.1620
 5315W        W21576  12.444   6.302   2.299  0.0699 -0.1214 -0.1228
 5316W        W21577   8.010   4.468   2.590 -0.3887 -0.2431  0.1870
 5317W        W21578  17.898   2.359   3.921 -0.2222 -0.3260  0.2207
 5318W        W21579  16.423   6.360  12.171  0.1107  0.1399 -0.0839
 5319W        W21580   0.382   1.096  13.492 -0.0366 -0.0974 -0.2133
 5320W        W21581  10.667  15.034   4.506  0.1174 -0.3392  0.2599
 5321W        W21582  15.646  10.190  15.170 -0.2089  0.1608  0.0125
 5322W        W21583   8.736   7.632   2.963  0.1011  0.1782 -0.0804
 5323W        W21584  14.403   4.419   5.875  0.0406  0.1966 -0.1555
 5324W        W21585   1.960  14.887   3.006  0.1178  0.0202  0.0741
 5325W        W21586   7.636   6.973  11.693 -0.2568 -0.2428 -0.2450
 5326W        W21587   4.585  16.577   1.578 -0.1436  0.1784 -0.1044
 5327W        W21588   5.614   8.055   1.891 -0.5058 -0.1304 -0.0560
 5328W        W21589  14.663  17.148  11.085 -0.4775  0.0019  0.1788
 5329W        W21590   0.021  13.595   2.869  0.0208  0.0919  0.1253
 5330W        W21591  16.386   1.948  13.874 -0.1577 -0.3851  0.3596
 5331W        W21592   2.097   9.991  14.124  0.0444  0.0412  0.0846
 5332W        W21593  18.358  18.332   5.222 -0.1252 -0.0340  0.1848
 5333W        W21594  13.906   6.726  11.799 -0.1659  0.2899 -0.2293
 5334W        W21595   3.717  17.120   4.090  0.2588 -0.2639  0.2268
 5335W        W21596   5.110   3.343   4.037 -0.2558  0.0778 -0.0263
 5336W        W21597  13.650  15.839   0.512  0.3349 -0.0735 -0.0656
 5337W        W21598   5.162  18.139  14.805  0.0307  0.0432 -0.2313
 5338W        W21599  17.360  11.535   2.837  0.2414  0.3037  0.2527
 5339W        W21600  16.549  17.468  11.646 -0.0970  0.0314 -0.1770
 5340W        W21601   0.656  12.121   4.274 -0.1565  0.1600  0.2709
 5341W        W21602  13.039   7.979   0.487  0.1387  0.2640 -0.1683
 5342W        W21603  16.453   7.761   3.788  0.2001  0.0936  0.4649
 5343W        W21604   1.049  14.021   0.857  0.0609 -0.1663  0.0057
 5344W        W21605   4.237  11.187  15.901  0.0441 -0.1894  0.0643
 5345W        W21606  10.549   8.894  15.062 -0.2761  0.2297 -0.1738
 5346W        W21607   2.095  12.051   2.244  0.0179 -0.3109  0.1521
 5347W        W21608  11.207   4.465  12.487  0.0213 -0.1416 -0.0095
 5348W        W21609   3.757   8.915  15.305  0.2682 -0.0038  0.0297
 5349W        W21610   9.235  15.944  12.218 -0.0616  0.0854 -0.0340
 5350W        W21611   4.394   9.642  15.095 -0.1977  0.1396  0.0616
 5351W        W21612   2.792  13.365   4.467 -0.2034 -0.0954 -0.0864
 5352W        W21613   5.665  13.653  10.708  0.0334 -0.0390 -0.1213
 5353W        W21614   4.943  15.887   0.060 -0.2646  0.0071  0.1116
 5354W        W21615  14.056   0.863   3.195  0.0994  0.0016 -0.3330
 5355W        W21616   0.064  13.551   0.453  0.4109 -0.0958  0.1574
 5356W        W21617  13.835   7.970   0.421  0.3069  0.2772 -0.4833
 5357W        W21618   2.142   0.671  15.282  0.0805 -0.3257 -0.2347
 5358W        W21619  12.208   3.605   0.345 -0.1786  0.1995 -0.0180
 5359W        W21620  10.618   3.605  16.098 -0.2783 -0.1603 -0.1104
 5360W        W21621  10.237   9.635  14.804  0.3957  0.1828 -0.1877
 5361W        W21622   1.497   2.472   4.827 -0.1597 -0.1530 -0.0177
 5362W        W21623   9.035  12.487  13.768  0.2236 -0.1042  0.0851
 5363W        W21624   3.269   3.507   3.786 -0.1068 -0.2516  0.1235
 5364W        W21625  13.894   0.373  15.811 -0.3786 -0.2081 -0.0936
 5365W        W21626   1.412   2.499  14.047  0.0003 -0.2831 -0.0753
 5366W        W21627   9.731   4.250   1.831 -0.0750  0.0080 -0.1588
 5367W        W21628  12.569   1.903   5.137 -0.3354  0.2861 -0.0631
 5368W        W21629  15.294   9.261  12.383  0.0005 -0.1150 -0.0136
 5369W        W21630  14.534  16.561   1.417 -0.1633 -0.0157 -0.2146
 5370W        W21631   0.816  14.735  13.186 -0.5288  0.1091 -0.2466
 5371W        W21632   8.669   2.615   0.108  0.1346  0.0124 -0.1664
 5372W        W21633   7.747   8.244   5.291  0.2340 -0.2802 -0.0458
 5373W        W21634   8.854   8.759   2.641  0.2016  0.1498  0.0838
 5374W        W21635  11.831   5.999   0.611  0.2113 -0.0463  0.1517
 5375W        W21636  13.796   2.921  11.213  0.0367  0.0139 -0.1838
 5376W        W21637   2.895  17.399   4.683  0.1864 -0.0155  0.0303
 5377W        W21638   6.456   3.081  14.333  0.1529 -0.1577 -0.1861
 5378W        W21639   8.600  12.298   2.162 -0.0933 -0.0929 -0.3811
 5379W        W21640   6.951   5.318   2.922  0.0289  0.0896 -0.0380
 5380W        W21641  13.358   8.937  14.262  0.3368 -0.0899 -0.1105
 5381W        W21642   4.301  15.275   4.539  0.1186  0.2850  0.3444
 5382W        W21643   4.817   2.734   0.227  0.0215  0.0465  0.0541
 5383W        W21644  16.330  10.169   4.371  0.0249  0.0549  0.0553
 5384W        W21645  12.755  17.405  14.052 -0.1532  0.1618  0.2855
 5385W        W21646  11.752  12.463   0.964  0.0317  0.3742  0.1357
 5386W        W21647   9.829   3.216   4.757  0.2264  0.0655 -0.0741
 5387W        W21648  17.214   7.195   2.506 -0.4591  0.3286  0.0035
 5388W        W21649   6.114  12.334  15.223  0.3196 -0.3493 -0.1663
 5389W        W21650   6.374  15.683  16.133  0.1775 -0.1721 -0.0816
 5390W        W21651  13.561   0.376   0.974 -0.0588  0.1042 -0.0135
 5391W        W21652   4.315  12.898   3.391 -0.0733  0.0256 -0.1240
 5392W        W21653   4.162   2.808  12.256  0.2007  0.0691  0.0348
 5393W        W21654   8.705   8.387   0.133  0.1945 -0.3759  0.1046
 5394W        W21655  16.158  17.199  11.357  0.2162 -0.1149  0.0973
 5395W        W21656   9.631  17.756  11.634 -0.1471 -0.1048 -0.0380
 5396W        W21657  12.679   4.604   0.540 -0.1254  0.0907 -0.0099
 5397W        W21658  17.819  14.135   2.085  0.0651  0.0329 -0.0601
 5398W        W21659  17.967   1.857   4.677 -0.0351  0.2725  0.1003
 5399W        W21660  10.500  11.345   3.624 -0.0176  0.1312  0.0571
 5400W        W21661  10.517   1.693  13.478  0.1999 -0.0193  0.1908
 5401W        W21662  15.035  13.077  12.820 -0.1705 -0.1121 -0.0946
 5402W        W21663  13.435  11.144  11.347  0.0712 -0.1970  0.1782
 5403W        W21664   0.145   2.103  14.196 -0.3404  0.0903  0.1270
 5404W        W21665  15.894   8.648  12.656 -0.1603  0.0603  0.0969
 5405W        W21666  12.203  12.228  12.377  0.1513  0.0060 -0.0174
 5406W        W21667   1.967   2.432   4.312 -0.0491  0.0823 -0.2096
 5407W        W21668   6.541  10.406  12.651 -0.0062 -0.2200  0.1133
 5408W        W21669  15.939   5.156  11.492 -0.0211 -0.2097 -0.0814
 5409W        W21670  11.121   9.375   3.640  0.1128 -0.1190  0.1421
 5410W        W21671  18.229   7.260  12.068 -0.0080  0.0668 -0.2036
 5411W        W21672  12.101   5.935   3.635  0.3755  0.0898 -0.1646
 5412W        W21673   3.412  13.262  12.797 -0.0765 -0.1204 -0.3704
 5413W        W21674  18.139   8.114  12.396 -0.0351  0.3188 -0.1743
 5414W        W21675   6.198  15.073  10.061  0.1218 -0.0516 -0.2736
 5415W        W21676   0.356  17.419   2.064  0.1413 -0.0418 -0.1267
 5416W        W21677   0.653   2.496  12.962 -0.2621  0.1982 -0.3495
 5417W        W21678  13.099   1.697  15.278 -0.1385 -0.0826 -0.2039
 5418W        W21679  17.761   7.591   5.819  0.2261 -0.0278 -0.0103
 5419W        W21680  15.357  13.544  14.282  0.1233  0.0239 -0.0394
 5420W        W21681  11.399   6.722   1.203  0.2805 -0.1196  0.0923
 5421W        W21682   4.706   5.245   5.109  0.2133  0.1941 -0.3976
 5422W        W21683  16.534  16.401  10.836 -0.2488 -0.0382  0.3240
 5423W        W21684  13.672   8.004  14.348  0.0539 -0.2468 -0.0615
 5424W        W21685   8.233  18.194  14.420  0.1429 -0.1446 -0.0844
 5425W        W21686  15.262  14.488   0.981 -0.1812  0.2358 -0.0586
 5426W        W21687  12.903   4.081   1.683 -0.1123  0.0268  0.0577
 5427W        W21688  14.805  10.090  14.255  0.0265  0.0572  0.4269
 5428W        W21689   0.516   3.876   1.183 -0.0666 -0.4387  0.1622
 5429W        W21690   5.526   5.815   4.604 -0.2594  0.1681 -0.0959
 5430W        W21691   4.269  15.313   1.627  0.1964  0.1235  0.2085
 5431W        W21692   2.106  13.242  11.269 -0.2124 -0.3018 -0.0822
 5432W        W21693  14.339  10.228  11.458 -0.1555  0.2764 -0.1745
 5433W        W21694   0.250   6.760   2.342 -0.1723  0.1950  0.4608
 5434W        W21695   6.971  18.021  15.799 -0.1340  0.0042  0.0434
 5435W        W21696  15.067  10.305   1.498  0.0834  0.1315 -0.1362
 5436W        W21697  11.839   3.758  13.214  0.1037  0.2485  0.1496
 5437W        W21698   0.074  16.111  13.143  0.0854 -0.3676  0.1255
 5438W        W21699  18.066   2.261  16.111  0.4043  0.0821  0.2058
 5439W        W21700  13.152   1.556  11.395 -0.4126 -0.0695 -0.0949
 5440W        W21701  16.066   4.653   5.669  0.2828  0.3383 -0.0861
 5441W        W21702   4.203   3.132  15.082  0.3393 -0.0288  0.1641
 5442W        W21703  11.705  16.432   0.734  0.0790 -0.0339 -0.3657
 5443W        W21704   3.834   8.748   0.307 -0.0784 -0.1468  0.3410
 5444W        W21705   2.108  13.640   1.687 -0.1055  0.4016  0.0898
 5445W        W21706   6.180   8.358  15.154  0.0263 -0.0234  0.2620
 5446W        W21707   3.406   6.726  15.772  0.3397  0.0235  0.1577
 5447W        W21708  17.592   5.732   2.801 -0.0196  0.1398 -0.0585
 5448W        W21709  16.675   5.799  12.740  0.0335 -0.2117 -0.0894
 5449W        W21710  10.040  11.536   1.573  0.3524  0.2070 -0.1501
 5450W        W21711  10.141  13.675   4.582  0.2858 -0.1558  0.1247
 5451W        W21712  11.140   6.593  11.491 -0.0210 -0.2070 -0.2199
 5452W        W21713  18.219  11.848  13.709 -0.2026  0.1115 -0.1570
 5453W        W21714  17.598  12.841   9.582  0.2195  0.2736 -0.3654
 5454W        W21715  13.369  16.162  15.708  0.1774 -0.1569 -0.2885
 5455W        W21716   8.234   3.416   0.263  0.0554 -0.1232  0.1076
 5456W        W21717   6.877  15.675  15.782 -0.3932  0.1205  0.0404
 5457W        W21718  12.368   0.035   0.366  0.0196  0.2309 -0.1383
 5458W        W21719  10.737  15.986  14.486  0.0350 -0.0628  0.3891
 5459W        W21720  13.776  12.906  12.213  0.0973  0.0662  0.1847
 5460W        W21721  13.947   0.526  11.830  0.0452 -0.0546 -0.3983
 5461W        W21722   7.033  16.036   2.339 -0.0282  0.0543  0.1464
 5462W        W21723  11.766   2.818   0.159  0.0095  0.0990  0.1958
 5463W        W21724   0.966   2.176   3.602 -0.3404 -0.0004  0.1341
 5464W        W21725   6.867   1.059  13.187 -0.1235  0.1638  0.0544
 5465W        W21726   2.509   6.740  15.285 -0.1954  0.0350  0.1751
 5466W        W21727   5.410  16.169   0.518  0.0013 -0.2550  0.3071
 5467W        W21728  15.318  17.756   0.862 -0.1318  0.1477  0.5020
 5468W        W21729  17.339   7.272  11.615  0.0224 -0.1621  0.3843
 5469W        W21730   1.988   0.934  13.909 -0.2060 -0.0132 -0.0815
 5470W        W21731   3.227  12.723  10.362 -0.1583 -0.1551 -0.3591
 5471W        W21732  16.224   8.517   6.094  0.0767  0.0651 -0.0610
 5472W        W21733  16.047  17.238   0.256 -0.3397  0.0776  0.1494
 5473W        W21734   8.945   3.238  15.328  0.3314 -0.0360 -0.1375
 5474W        W21735   0.501  12.455  15.957 -0.0708 -0.1658  0.3980
 5475W        W21736   3.617   0.694   2.756 -0.3140 -0.0827  0.0919
 5476W        W21737   8.405   6.412   4.820  0.0704  0.1080 -0.2796
 5477W        W21738  12.909  13.485  10.365 -0.0340 -0.0605  0.0762
 5478W        W21739   4.441   6.802   6.529 -0.0055  0.0415 -0.0625
 5479W        W21740   2.554   3.404   3.381 -0.0181  0.1634  0.2276
 5480W        W21741   1.421  14.072  11.167  0.1188  0.2259 -0.4530
 5481W        W21742  15.133   6.447  12.514  0.0151  0.2217  0.1513
 5482W        W21743   6.775   7.161   4.112 -0.3977  0.1318  0.3555
 5483W        W21744  16.025   9.883  15.196 -0.0372 -0.2511  0.0094
 5484W        W21745   4.048  10.777   0.966 -0.5241  0.2352  0.0457
 5485W        W21746   8.165  16.625   4.601  0.2445 -0.0587 -0.0692
 5486W        W21747   7.108   0.566   5.071  0.0308  0.3979 -0.2296
 5487W        W21748  10.873   6.427  12.007  0.0303 -0.1035  0.3737
 5488W        W21749   5.145   6.864   5.381 -0.0008 -0.2580 -0.3657
 5489W        W21750  14.758   8.220  11.669  0.2801  0.0257  0.0881
 5490W        W21751  15.407   3.334   1.862  0.2677 -0.1872  0.0744
 5491W        W21752  14.363   7.519   5.150  0.0952  0.2420 -0.0017
 5492W        W21753   1.732   2.383   3.809 -0.3133  0.0817  0.0818
 5493W        W21754  11.518  14.306   2.347 -0.0554 -0.0780  0.1382
 5494W        W21755   8.396   0.972   2.851  0.2967  0.2291  0.1480
 5495W        W21756  13.074   2.840  13.178 -0.0255  0.0815 -0.0825
 5496W        W21757   6.300  18.340   0.692 -0.3256  0.0508  0.3534
 5497W        W21758   4.401  14.851  15.752  0.1256 -0.2589 -0.2745
 5498W        W21759  15.741  17.536   1.603  0.0379 -0.1742  0.1789
 5499W        W21760   8.058   8.407  10.746 -0.2169 -0.0694  0.0015
 5500W        W21761   0.320   3.677  13.644  0.2871  0.0110  0.2859
 5501W        W21762  10.619  13.235   0.225  0.1782  0.2152  0.2164
 5502W        W21763  15.072   8.030   4.725  0.2890 -0.1550 -0.5683
 5503W        W21764  14.770   1.745   5.548 -0.4854  0.0963  0.0570
 5504W        W21765  10.257  18.386  15.002 -0.1076  0.0857  0.0196
 5505W        W21766   0.913   7.853  11.676 -0.0485  0.1153 -0.0140
 5506W        W21767   9.814   5.239   2.469 -0.1189 -0.2041  0.1239
 5507W        W21768   5.036   1.704  11.975  0.1077  0.1534 -0.3018
 5508W        W21769  13.787  14.965  12.457 -0.0473 -0.0738 -0.0725
 5509W        W21770   6.307   1.833  14.625  0.0803 -0.0574  0.2590
 5510W        W21771  11.721  14.529  11.733  0.0366  0.1816  0.4844
 5511W        W21772  16.951  15.548  14.512 -0.0843 -0.1178  0.0280
 5512W        W21773  12.969  10.142  12.420 -0.0027  0.2412 -0.0103
 5513W        W21774  14.805   2.184   4.692 -0.0621  0.1867  0.2280
 5514W        W21775  17.355   7.125  12.097 -0.4275  0.0958 -0.1052
 5515W        W21776  13.737   6.404   2.380  0.0123  0.1437  0.1157
 5516W        W21777  16.086   2.922  12.792 -0.0049  0.4593  0.0304
 5517W        W21778   9.153  16.718   1.851 -0.1108 -0.2554 -0.1021
 5518W        W21779  14.482   2.411   2.795  0.1424  0.1508  0.2535
 5519W        W21780   5.652  13.543  11.558  0.0054 -0.0288 -0.1595
 5520W        W21781  15.803   4.702  13.491  0.2383  0.0176  0.3942
 5521W        W21782  18.047   0.408  11.988 -0.2926  0.0774 -0.0339
 5522W        W21783  17.356  10.333   0.724  0.1609  0.0555  0.1071
 5523W        W21784   1.560   3.278   1.674  0.0196 -0.1739  0.1736
 5524W        W21785  18.182   2.782   1.736  0.2422  0.0847 -0.0466
 5525W        W21786   3.078  17.205  14.987 -0.0618 -0.0050  0.1158
 5526W        W21787  18.381  17.678  10.966  0.3868 -0.2536 -0.0792
 5527W        W21788  15.829   5.043   3.180 -0.2244  0.1310 -0.0592
 5528W        W21789  13.503  11.899  10.697 -0.2348  0.1711  0.0846
 5529W        W21790  11.050   7.382  12.138  0.0256 -0.1623 -0.0114
 5530W        W21791   3.428  17.495   3.281  0.3337  0.0376  0.1600
 5531W        W21792   9.142   3.484   0.024  0.0574 -0.0627  0.0850
 5532W        W21793  12.869  17.195   3.345 -0.0030 -0.3074  0.3787
 5533W        W21794  12.780   8.867   1.487 -0.0261 -0.0190  0.2360
 5534W        W21795   4.853   0.899  13.334  0.2298  0.1618 -0.0915
 5535W        W21796  10.701   3.071  11.381 -0.1677  0.1642 -0.4732
 5536W        W21797   5.098   2.482   5.475 -0.1695 -0.3658  0.0347
 5537W        W21798  10.411  16.744   3.686  0.2776 -0.0949 -0.2630
 5538W        W21799  10.073   2.236  11.991  0.0378  0.1924 -0.0603
 5539W        W21800  15.179  17.959  11.069 -0.1126  0.1947 -0.0741
 5540W        W21801   3.196  15.803   4.386 -0.0556 -0.0143 -0.2226
 5541W        W21802   8.452   8.842  15.888  0.2707  0.2949  0.0658
 5542W        W21803  16.580  17.657   0.993  0.1712 -0.0072 -0.2882
 5543W        W21804  16.206   2.092   0.444  0.0527 -0.0369  0.0108
 5544W        W21805  16.691   2.597  14.962  0.1184 -0.1853  0.2461
 5545W        W21806   5.757   2.511   2.813  0.3345 -0.2419 -0.1866
 5546W        W21807  18.047  16.866   4.848  0.0764  0.2023  0.0149
 5547W        W21808   7.700   5.940   2.723 -0.1303  0.0129 -0.1734
 5548W        W21809  10.595  10.210  11.015 -0.2024 -0.2743  0.2542
 5549W        W21810  11.499  18.039  10.884  0.0386  0.3174  0.0294
 5550W        W21811   4.819  10.773   3.611 -0.1650 -0.0689  0.3051
 5551W        W21812   4.225   0.052   4.979  0.3259 -0.2420  0.1066
 5552W        W21813  18.400  15.796  10.752 -0.2242  0.1102  0.0514
 5553W        W21814  12.911   5.769   3.996 -0.1323  0.3559  0.4564
 5554W        W21815   2.498   2.167  12.474  0.1856  0.0650 -0.2055
 5555W        W21816  11.572   1.691   2.675  0.0967 -0.2776  0.0782
 5556W        W21817  14.093   6.947   3.877  0.1115 -0.0968 -0.0532
 5557W        W21818  18.304   8.702   2.764  0.0030 -0.0932  0.0837
 5558W        W21819  17.262  11.153   4.537  0.1073  0.0774  0.0144
 5559W        W21820  12.793  15.558  13.655 -0.0196 -0.1048  0.2031
 5560W        W21821  11.179  16.924   5.434  0.0699 -0.0500 -0.0502
 5561W        W21822   3.869  16.196  14.796  0.0054 -0.0040  0.4727
 5562W        W21823   2.502  18.220   0.115  0.0293 -0.1821  0.1022
 5563W        W21824   4.466  15.532   3.746  0.2472 -0.3961  0.0993
 5564W        W21825   4.959   4.302   0.550  0.1609 -0.0746  0.0032
 5565W        W21826  10.883  17.248   1.345  0.1257 -0.1012  0.0291
 5566W        W21827   8.302  13.039  12.181 -0.1263  0.2164 -0.4488
 5567W        W21828   3.169   5.820   1.971 -0.2954 -0.1557 -0.3359
 5568W        W21829   8.382  16.705   5.800 -0.0857  0.1809 -0.0517
 5569W        W21830  13.621   7.839   3.763  0.1406 -0.3842  0.0927
 5570W        W21831   2.419   7.513  15.046  0.1293  0.0062  0.1325
 5571W        W21832   8.186   9.734   1.351 -0.0488  0.0133  0.2556
 5572W        W21833   1.361   9.561  15.972  0.3724  0.2058 -0.1742
 5573W        W21834  17.591   6.606  11.591 -0.2301 -0.1391 -0.0262
 5574W        W21835  11.467   9.499   0.992  0.1333  0.1849 -0.1595
 5575W        W21836   8.378   0.058   0.513 -0.0822  0.3802 -0.3491
 5576W        W21837  14.061   0.861  12.691  0.2029 -0.2861 -0.0131
 5577W        W21838   5.339   4.916   5.861 -0.3792  0.0507  0.2467
 5578W        W21839  13.867  16.468  11.086 -0.0648 -0.1344  0.0713
 5579W        W21840  12.846   6.524  12.925 -0.1576  0.0741 -0.0779
 5580W        W21841   5.737   0.655   6.217  0.1479  0.1877  0.1687
 5581W        W21842   9.641   0.464  13.878 -0.0880  0.2199 -0.1144
 5582W        W21843  15.259   4.710   5.101 -0.0699 -0.1903  0.1959
 5583W        W21844   5.616  11.541  15.936  0.0354 -0.1454 -0.0615
 5584W        W21845  16.161   8.762   4.694 -0.1238  0.1003  0.0545
 5585W        W21846   4.432  17.967   4.735 -0.0181  0.0473  0.2654
 5586W        W21847  17.128   2.726  13.702  0.1769  0.2248 -0.1545
 5587W        W21848  16.032  15.338  12.352  0.1375  0.1004 -0.3405
 5588W        W21849  12.574   2.601   2.633  0.1893 -0.2086  0.0089
 5589W        W21850   5.615   7.956   2.908 -0.3143  0.0287 -0.0366
 5590W        W21851   1.791  11.697   6.531 -0.0138 -0.2718 -0.0163
 5591W        W21852   8.599  10.429   3.039  0.0665  0.2028 -0.0154
 5592W        W21853   1.283   4.204  11.385  0.3018  0.0166  0.0142
 5593W        W21854   8.932  18.426  12.626 -0.0873  0.1986  0.0708
 5594W        W21855  17.870   6.324   5.861  0.2025 -0.2712  0.0659
 5595W        W21856   9.135   5.409  15.764 -0.2406 -0.0092 -0.0617
 5596W        W21857  17.094   0.128   1.199  0.1627  0.2081  0.0937
 5597W        W21858  13.978   8.417   0.549  0.0699  0.0093  0.1426
 5598W        W21859   1.846  16.360   0.416 -0.4416 -0.0494  0.1600
 5599W        W21860  16.473   7.723   1.978 -0.2462 -0.2885 -0.0500
 5600W        W21861   3.112  13.908   4.276  0.4528  0.3623  0.1064
 5601W        W21862   1.912   3.520   0.308 -0.0642 -0.1605 -0.1745
 5602W        W21863  11.444   7.726  16.162 -0.1365  0.0016  0.0525
 5603W        W21864  18.478  12.793   1.123 -0.1166 -0.1069  0.0494
 5604W        W21865   9.939   1.404   5.821  0.2125  0.0588 -0.1609
 5605W        W21866   5.049   1.501  15.120 -0.0301 -0.0930  0.1248
 5606W        W21867   1.554  12.239  15.698  0.0870 -0.1808  0.0118
 5607W        W21868   2.137  16.998   4.949 -0.1983  0.1063  0.1809
 5608W        W21869  16.716   0.000   2.138 -0.2022  0.1787  0.0132
 5609W        W21870  11.284  11.175  13.443  0.2710 -0.3857  0.0768
 5610W        W21871  11.369  16.380   3.742  0.0646 -0.1735  0.1980
 5611W        W21872  18.278   6.459   0.738  0.0487  0.1193 -0.0112
 5612W        W21873   9.052  15.075  14.977  0.2625  0.1014 -0.1260
 5613W        W21874  15.507   3.956  16.015 -0.2851 -0.0905  0.1621
 5614W        W21875  12.251  12.322   1.034  0.3465  0.2543  0.1521
 5615W        W21876   1.928   2.562   0.276  0.2507  0.1802 -0.2408
 5616W        W21877  14.844   1.321  13.905 -0.0007 -0.1618  0.2770
 5617W        W21878   8.262   9.497   0.248 -0.1154 -0.0858 -0.1877
 5618W        W21879  15.933  17.955   3.485 -0.1240 -0.1990 -0.0152
 5619W        W21880  12.668  15.774   2.994 -0.0877 -0.2465 -0.0293
 5620W        W21881   8.037   7.244   5.347  0.3344 -0.0186  0.3940
 5621W        W21882  14.806   8.538   3.549 -0.1299 -0.2763  0.4024
 5622W        W21883  16.125   1.682   3.553  0.3004  0.1083  0.0237
 5623W        W21884  10.027  17.665  14.637 -0.0703  0.0971  0.1125
 5624W        W21885  13.286   8.973  12.209  0.0218 -0.1438  0.0124
 5625W        W21886  12.212  17.605  16.118  0.4219 -0.0006 -0.1831
 5626W        W21887   7.234  11.061  12.085  0.0800 -0.2662  0.3445
 5627W        W21888  14.587   3.306  11.642 -0.1493 -0.1169  0.1869
 5628W        W21889   0.862   0.962  15.969 -0.0689 -0.2897 -0.0919
 5629W        W21890  17.266   5.298  12.702  0.0641  0.1989  0.1054
 5630W        W21891   9.719   2.938  16.087  0.1093 -0.0356 -0.2697
 5631W        W21892  13.100   7.664  10.870  0.0215  0.0596  0.0574
 5632W        W21893   4.831  18.043  12.532 -0.0382 -0.3293 -0.4037
 5633W        W21894  16.162   0.367  14.180  0.2041  0.1261 -0.0227
 5634W        W21895   9.214   7.700  16.031  0.0040  0.0037  0.2327
 5635W        W21896  14.635  18.227   3.750 -0.2032  0.1702  0.1158
 5636W        W21897   4.433  13.049  12.926  0.2685  0.0036 -0.1477
 5637W        W21898  17.448  14.835   5.090  0.3349 -0.1556 -0.0552
 5638W        W21899  15.789   3.994   0.810  0.0569  0.0370  0.2675
 5639W        W21900   1.940  13.717   0.152 -0.2314 -0.0258 -0.1361
 5640W        W21901   8.224  15.505  15.196 -0.0249 -0.0224  0.2406
 5641W        W21902   6.977  14.943   5.128  0.0124  0.1924 -0.0639
 5642W        W21903   3.233   9.579  14.272  0.1915 -0.2056  0.0556
 5643W        W21904   7.140   9.171   2.899 -0.0720 -0.0916 -0.0314
 5644W        W21905   8.573   7.829  13.448  0.1697 -0.2178  0.1854
 5645W        W21906   3.385   2.059  15.283 -0.0321  0.0091  0.2544
 5646W        W21907  15.829   7.285  14.929  0.1801  0.0452 -0.0772
 5647W        W21908   8.687  15.307   5.383 -0.0110  0.0544  0.0373
 5648W        W21909  11.616   3.024  12.231 -0.0988 -0.1950  0.1184
 5649W        W21910   0.371  11.661  12.758  0.0059  0.5249  0.3977
 5650W        W21911  10.561  12.341   3.825  0.1216 -0.0952  0.3319
 5651W        W21912   9.960  10.524  11.235 -0.3063 -0.3061 -0.5989
 5652W        W21913  16.044  14.542  11.736 -0.3166 -0.0156 -0.6140
 5653W        W21914   9.543   8.881  11.162  0.0709  0.0447 -0.0801
 5654W        W21915   3.553  15.329  13.860 -0.2764 -0.1612  0.1832
 5655W        W21916   9.841  17.929   1.122 -0.1208  0.2570 -0.1823
 5656W        W21917   9.885  11.182   5.144  0.1716  0.0437 -0.1923
 5657W        W21918   7.309  15.891  15.589  0.0651 -0.2305 -0.1089
 5658W        W21919   1.591  14.322   3.586  0.1590 -0.1888  0.1234
 5659W        W21920   3.683   4.137   0.759 -0.0151 -0.0892 -0.0385
 5660W        W21921   1.085  10.408  12.651  0.1216 -0.1633  0.0693
 5661W        W21922  11.663   9.989   2.281  0.0354 -0.0461  0.1312
 5662W        W21923   0.306   9.054   3.820  0.2258  0.2343 -0.0921
 5663W        W21924  10.977   7.295  13.985 -0.1158 -0.0560  0.0178
 5664W        W21925   2.300   2.552  11.540  0.3487  0.1616 -0.0859
 5665W        W21926   0.084  10.091  16.062  0.1444  0.1790 -0.2368
 5666W        W21927   7.492   4.869   1.638 -0.1702  0.2101 -0.2292
 5667W        W21928  13.032  14.160   2.384  0.3902 -0.0339  0.1843
 5668W        W21929   1.171   6.098   3.803  0.2094 -0.1754  0.1721
 5669W        W21930   8.866   2.625   2.567 -0.0138  0.1702  0.1723
 5670W        W21931   2.017   3.817  15.124  0.0143  0.0066 -0.0341
 5671W        W21932   7.201  16.978   4.444 -0.0586  0.1367  0.2498
 5672W        W21933  16.795   4.303  15.193  0.1070 -0.1399  0.3428
 5673W        W21934  13.049   7.055   4.580  0.4520 -0.0005 -0.0749
 5674W        W21935  16.829  16.791  12.644 -0.1803  0.1656 -0.0378
 5675W        W21936   7.471  13.370  14.112 -0.4233 -0.1325 -0.2351
 5676W        W21937  14.657  15.881  10.926  0.2022 -0.2829  0.1233
 5677W        W21938  17.854   8.633  12.302 -0.2302 -0.3209  0.1948
 5678W        W21939   9.998   4.488  15.460 -0.0870 -0.2170  0.1634
 5679W        W21940   4.465   1.436   5.128 -0.1728  0.1521  0.3506
 5680W        W21941  11.618  12.723  10.681 -0.1597 -0.0120  0.0422
 5681W        W21942  17.549   1.569  15.935 -0.1242 -0.2758  0.0286
 5682W        W21943   6.682   5.326   1.952 -0.0081 -0.1052  0.0804
 5683W        W21944  13.639  11.501   3.634  0.0930  0.0605 -0.1670
 5684W        W21945   0.411   4.224   5.819 -0.5256 -0.1365 -0.1003
 5685W        W21946   9.012  10.148   5.498 -0.0025  0.1667  0.0625
 5686W        W21947   5.015   9.538   4.000  0.2719 -0.2419  0.4542
 5687W        W21948  16.589  12.495  13.170 -0.0719  0.5038 -0.1248
 5688W        W21949  12.212   0.408  12.780 -0.1414 -0.3229  0.0054
 5689W        W21950   5.997  17.514  14.031  0.1320  0.2266  0.0885
 5690W        W21951  14.523  12.752  15.727  0.1201  0.1425  0.0782
 5691W        W21952   1.409  15.682   4.379 -0.2571 -0.4421 -0.2595
 5692W        W21953   4.660   1.826  13.073 -0.5361  0.2511 -0.2463
 5693W        W21954   3.039  16.378   5.143 -0.1518 -0.1287 -0.2957
 5694W        W21955   6.535  13.904   1.658 -0.2076  0.0591 -0.0356
 5695W        W21956  13.309  16.699  12.313  0.1037 -0.0402  0.2381
 5696W        W21957  10.551  15.115  11.150 -0.2369 -0.1798 -0.1028
 5697W        W21958   2.016   4.936   5.850  0.0059  0.4249  0.1259
 5698W        W21959   9.992  18.049  15.475  0.4015  0.1154  0.1594
 5699W        W21960  10.389  15.915   3.007  0.3097  0.2149 -0.0931
 5700W        W21961   2.653   6.181  14.451  0.0306  0.3361 -0.1791
 5701W        W21962  16.615  16.435   1.826 -0.1483 -0.1403 -0.0273
 5702W        W21963   5.082  12.140  11.689 -0.3505  0.1697  0.1453
 5703W        W21964   0.529   7.922   4.148  0.5014  0.3830  0.2123
 5704W        W21965   6.519   1.926   0.161 -0.2855 -0.1006 -0.0337
 5705W        W21966   3.940   8.874   1.576 -0.1443 -0.2134 -0.0343
 5706W        W21967   8.033   9.388  13.545  0.0921 -0.1599  0.1218
 5707W        W21968   8.314  16.831  13.491 -0.2710  0.1198  0.1395
 5708W        W21969   0.362   6.786   0.750 -0.0728 -0.1827 -0.0986
 5709W        W21970   3.204   3.607   2.052 -0.1023 -0.2152  0.2068
 5710W        W21971  12.970  18.303  13.105  0.0047 -0.0189  0.2028
 5711W        W21972  14.190  13.108  12.371  0.0908  0.0630 -0.0891
 5712W        W21973   5.403  13.123  11.818 -0.1770  0.1064 -0.1144
 5713W        W21974  10.103   5.631   1.671  0.3203 -0.0570  0.3297
 5714W        W21975   0.266  14.570  13.197 -0.0861  0.2963 -0.2907
 5715W        W21976  14.643  12.100   5.237  0.0336  0.3345 -0.1925
 5716W        W21977  15.197   3.486  14.888  0.2636 -0.1393 -0.2244
 5717W        W21978   3.818   1.244  14.942 -0.2234 -0.1639 -0.1127
 5718W        W21979   2.358  13.501  14.680 -0.0959 -0.1560 -0.0761
 5719W        W21980   2.646   3.060   5.961  0.1397 -0.1177 -0.1354
 5720W        W21981   9.245   9.090   2.501 -0.3515 -0.0563  0.0284
 5721W        W21982  18.476  17.512  14.209 -0.1031  0.1261  0.0232
 5722W        W21983   2.664   9.991  12.432  0.0299 -0.0627  0.2164
 5723W        W21984  14.840   5.574   0.183  0.1195  0.0713  0.0407
 5724W        W21985   9.896  11.925  14.096 -0.1603  0.1455 -0.0176
 5725W        W21986   3.552  16.349  11.789  0.1158  0.1158 -0.0711
 5726W        W21987  11.949   4.763  11.668  0.0680 -0.0975 -0.0482
 5727W        W21988   6.964   3.688   3.155  0.2846  0.1239  0.5176
 5728W        W21989   6.995  17.469   6.230 -0.0891 -0.2467 -0.0669
 5729W        W21990  11.125  18.361  15.028 -0.1573 -0.0528  0.0128
 5730W        W21991  10.127  10.977   2.569 -0.0105 -0.0973  0.1967
 5731W        W21992  10.517   7.193   3.719 -0.0785 -0.0038  0.1220
 5732W        W21993   6.558   4.626   1.615  0.1320  0.2803  0.1491
 5733W        W21994  14.996   3.420  13.513 -0.2341  0.3212 -0.1803
 5734W        W21995   0.767  11.398  12.882  0.0248  0.1122 -0.1695
 5735W        W21996  14.129   8.467  15.235 -0.0776  0.1654  0.0503
 5736W        W21997   0.208  14.735  11.154 -0.1116  0.0207  0.1444
 5737W        W21998   2.217   8.117   5.905  0.1600  0.3126  0.0167
 5738W        W21999  18.350  11.667   4.473 -0.0183 -0.0069 -0.0856
 5739W        W22000  12.920   9.952   3.000  0.0939  0.2613 -0.2101
 5740W        W22001   4.531   3.188  12.228 -0.0873 -0.1727  0.1822
 5741W        W22002  11.241   0.324  15.250  0.1014  0.2477  0.1761
 5742W        W22003   7.680  12.710   3.158  0.2269 -0.1341 -0.2404
 5743W        W22004  15.453  14.993  12.552 -0.3764 -0.1639  0.2082
 5744W        W22005   6.677   8.910   0.861 -0.0190 -0.0221 -0.0376
 5745W        W22006   6.549  14.815  12.225 -0.0506 -0.3619  0.2221
 5746W        W22007   4.221   6.200   1.494 -0.1536  0.3111  0.3013
 5747W        W22008  14.016  10.629  15.006  0.3008  0.0531 -0.4151
 5748W        W22009  15.405  11.496  14.370 -0.0506 -0.0850  0.3034
 5749W        W22010   6.572   8.422  14.810 -0.1314 -0.1216  0.1124
 5750W        W22011  12.278   2.744  13.854 -0.0480 -0.1503  0.0274
 5751W        W22012   7.348   5.504  12.325  0.1276  0.0922 -0.0275
 5752W        W22013   6.854   2.780  13.656  0.0576  0.2322  0.1217
 5753W        W22014  16.777   0.829  14.415 -0.1692  0.2888  0.0720
 5754W        W22015  16.561  12.650  11.099 -0.0005 -0.0640 -0.0349
 5755W        W22016   3.459  16.503  13.926 -0.0930 -0.0766  0.2259
 5756W        W22017   5.050  12.718  14.093 -0.2424  0.1833 -0.1793
 5757W        W22018   1.164   2.840   5.153 -0.5398  0.1208 -0.1177
 5758W        W22019  16.830  13.505  11.009 -0.6160  0.0103  0.2184
 5759W        W22020   0.220   4.135   5.053  0.1277 -0.0015 -0.0164
 5760W        W22021  13.377   4.477   2.420  0.1371  0.3311  0.0777
 5761W        W22022  15.183   5.398   1.352  0.2561 -0.1832 -0.1379
 5762W        W22023   3.064  10.370  15.224  0.2916  0.0099  0.0205
 5763W        W22024  10.726   6.153  15.942 -0.3893 -0.1201 -0.1496
 5764W        W22025  11.356  18.271   0.255  0.2144  0.0097 -0.0048
 5765W        W22026   8.209  14.949  11.496 -0.0147 -0.1821  0.0750
 5766W        W22027   6.247  13.021   0.557  0.1909  0.1593  0.3334
 5767W        W22028  12.685  16.794  12.575 -0.0100 -0.0311  0.0344
 5768W        W22029   8.005   4.627  13.364  0.2439  0.0691 -0.0374
 5769W        W22030  10.150  11.962  13.088  0.0903  0.1485  0.1428
 5770W        W22031  15.984   3.183   3.774  0.4490  0.0304 -0.2445
 5771W        W22032   3.426  17.386  15.353 -0.2218  0.0715 -0.0254
 5772W        W22033   6.978  14.390   4.978 -0.3219 -0.1390 -0.0567
 5773W        W22034  15.590   2.401   1.809  0.0074  0.0006 -0.1404
 5774W        W22035  14.596  13.965   5.142  0.1797 -0.1768  0.1764
 5775W        W22036  10.865   4.852  13.198 -0.0421 -0.1669 -0.1208
 5776W        W22037  10.655  16.952   1.629 -0.0130 -0.1645 -0.1385
 5777W        W22038   9.382  13.891   2.473 -0.1198  0.0267  0.0242
 5778W        W22039  12.050   1.547   3.935  0.0118 -0.1135 -0.2851
 5779W        W22040   2.526  18.174   6.218  0.0622 -0.2291  0.1651
 5780W        W22041  10.883   9.016   1.641 -0.0259  0.4884  0.2988
 5781W        W22042  16.235  12.207  14.003 -0.0003 -0.1556  0.0606
 5782W        W22043   7.849   3.316  14.287  0.4628 -0.3064  0.1490
 5783W        W22044   2.897  15.299   0.785  0.0286  0.3822 -0.1199
 5784W        W22045   9.850  11.055  11.289 -0.0875 -0.1222 -0.1068
 5785W        W22046  13.271   0.661  11.416 -0.2467 -0.2235  0.4973
 5786W        W22047  12.663   9.003  15.098  0.0914  0.1070  0.1472
 5787W        W22048  11.264  13.639  16.127 -0.3372 -0.0647 -0.2010
 5788W        W22049  12.128   4.778  12.543  0.1481 -0.1656 -0.6453
 5789W        W22050   8.689  16.680   4.259  0.1027 -0.1619 -0.2426
 5790W        W22051   7.088  13.381  14.854 -0.0539 -0.1904  0.1457
 5791W        W22052  12.847   8.987  13.538  0.1163 -0.0741  0.1706
 5792W        W22053  16.155   1.387  12.637  0.0095 -0.2321 -0.0463
 5793W        W22054  17.815  15.559  11.015  0.1983  0.0222 -0.1006
 5794W        W22055  14.133   6.168  14.447  0.2190 -0.2646 -0.0187
 5795W        W22056  12.258   2.665   3.488  0.1964 -0.1451 -0.0057
 5796W        W22057   3.386   9.926  13.951  0.0443  0.2158 -0.3682
 5797W        W22058   0.055   5.794   2.993  0.0700 -0.3206  0.1395
 5798W        W22059   4.656   0.081  15.302 -0.4443 -0.1088  0.1470
 5799W        W22060   6.689  13.408   5.652  0.1204  0.1055 -0.1337
 5800W        W22061  10.308   0.780  11.519  0.2041  0.3319 -0.2564
 5801W        W22062   9.802  12.375   5.541  0.2697  0.0516  0.1558
 5802W        W22063  14.150   4.357  15.889 -0.0644  0.4668 -0.1197
 5803W        W22064   0.474   0.181   4.004  0.0549  0.0068  0.1873
 5804W        W22065   7.986   8.007   5.768  0.0183 -0.3154  0.0093
 5805W        W22066   6.349  10.846   5.117 -0.1137 -0.1465 -0.1688
 5806W        W22067  18.010  15.330   4.100  0.2160  0.2544  0.1403
 5807W        W22068  13.265  14.291  16.095 -0.2888  0.1326  0.1858
 5808W        W22069   7.560  12.632   1.227 -0.0199 -0.1238  0.0102
 5809W        W22070   7.335  16.289  11.713 -0.1889 -0.1380 -0.0598
 5810W        W22071  11.983   2.571  15.085  0.2310  0.1965 -0.1389
 5811W        W22072   5.122   2.756  13.141  0.1208 -0.1452 -0.0584
 5812W        W22073  14.994  12.626  14.511 -0.1655  0.2546 -0.3476
 5813W        W22074   8.113  17.543  15.203 -0.2515  0.0921  0.0319
 5814W        W22075   7.406  14.670   3.301  0.2075 -0.0317  0.1154
 5815W        W22076  12.006  12.970   2.346 -0.0779 -0.0811 -0.0852
 5816W        W22077  11.728   3.457   5.744  0.0730 -0.3504  0.2706
 5817W        W22078   5.355   9.924   5.238  0.0279  0.0354 -0.0207
 5818W        W22079  11.649  12.364  11.140  0.0091  0.0499 -0.0026
 5819W        W22080  14.682   9.831   0.264  0.0096  0.5019 -0.0942
 5820W        W22081   7.262   6.364  15.633 -0.2595 -0.1989 -0.0485
 5821W        W22082   4.395   2.290   5.430  0.0654 -0.3381  0.1044
 5822W        W22083  11.721  18.260  12.285 -0.3901  0.2685 -0.0964
 5823W        W22084  12.491  13.149   1.014  0.1478  0.0365  0.0591
 5824W        W22085   1.607   8.410   4.812 -0.1358  0.1063  0.1936
 5825W        W22086  11.532   2.834  14.613 -0.5546 -0.0544  0.1675
 5826W        W22087  10.059  13.614   1.075 -0.2717  0.0782 -0.2128
 5827W        W22088   2.986   7.495   1.278 -0.1460 -0.1397  0.0099
 5828W        W22089  10.173  12.057   2.810  0.0599  0.1708 -0.0695
 5829W        W22090  14.852  15.276   3.013  0.1637  0.0247  0.0486
 5830W        W22091  11.649  11.018  13.785  0.1220  0.1600 -0.2048
 5831W        W22092  15.127   6.257   2.363 -0.0611 -0.0421 -0.0140
 5832W        W22093   4.789  13.174  14.184  0.1494  0.1238 -0.1683
 5833W        W22094  12.055   3.916   1.067 -0.2260  0.1450 -0.1951
 5834W        W22095  12.279   7.948  12.545  0.0772  0.3622  0.1283
 5835W        W22096   5.616   4.597  15.385 -0.2020 -0.1355 -0.0567
 5836W        W22097   1.095   6.941   4.886  0.1073 -0.0337  0.0627
 5837W        W22098   4.004   7.352   3.449  0.3349  0.0601  0.3399
 5838W        W22099   5.003  14.800   1.127 -0.2912  0.0386 -0.1016
 5839W        W22100   6.103  13.171  14.256 -0.0269  0.2077  0.3405
 5840W        W22101  11.507  13.676   2.874 -0.2884 -0.0398 -0.0359
 5841W        W22102   9.484  10.577  15.869 -0.0454  0.2284  0.1071
 5842W        W22103   1.357   5.655  15.730  0.3668 -0.1393  0.2842
 5843W        W22104   1.833   6.532   0.244  0.0968  0.2037  0.4139
 5844W        W22105  17.850  12.428  10.727 -0.1330  0.0101  0.0365
 5845W        W22106   0.248  12.578  15.450 -0.0594  0.3770 -0.0912
 5846W        W22107   0.406  14.880  15.426  0.1336 -0.0955  0.0273
 5847W        W22108  15.908   3.916   1.638 -0.0139  0.1177 -0.0590
 5848W        W22109   3.779  11.301   5.458 -0.0014 -0.0508  0.1763
 5849W        W22110   9.432  17.493   6.181  0.0753  0.1808 -0.1147
 5850W        W22111   6.437   9.581   5.405  0.1067 -0.1586 -0.2820
 5851W        W22112  10.524  13.066  13.340 -0.2037 -0.4101  0.1726
 5852W        W22113   3.134  15.717  14.536  0.0114 -0.1438  0.2067
 5853W        W22114  10.916   0.299   0.404 -0.0128  0.0478  0.0977
 5854W        W22115   7.880  17.976   2.138  0.2501 -0.1140  0.0074
 5855W        W22116  17.182   0.135  14.051 -0.0576 -0.2084 -0.0347
 5856W        W22117   2.868  12.619   0.883 -0.2666  0.1573  0.0352
 5857W        W22118   1.756   3.047   0.242 -0.0383  0.1023 -0.2927
 5858W        W22119   0.109  13.225   2.521  0.0747 -0.1849 -0.4801
 5859W        W22120   0.256  14.360  15.534  0.2614 -0.0035 -0.0661
 5860W        W22121   6.162  18.325   4.994 -0.3241 -0.4370 -0.0796
 5861W        W22122  18.137   5.692  15.751 -0.2249 -0.1608  0.1981
 5862W        W22123  15.384  16.765  15.689 -0.4388  0.0815 -0.0433
 5863W        W22124   2.998  15.409  16.053  0.0626  0.0796 -0.2881
 5864W        W22125   6.058   8.432  14.689  0.3116  0.2175  0.0681
 5865W        W22126   0.179   6.120   4.764 -0.0412 -0.0060  0.1484
 5866W        W22127   6.808  10.723   3.378 -0.1997 -0.1022 -0.2178
 5867W        W22128  18.032  16.933   0.987 -0.0362  0.0939 -0.1252
 5868W        W22129  12.389  17.454  13.779  0.0760  0.0391  0.1327
 5869W        W22130  15.902   5.789  15.694 -0.0732  0.1453 -0.2812
 5870W        W22131  10.823   3.744   4.156  0.4492 -0.0200  0.0658
 5871W        W22132   1.569  13.616  15.350 -0.0774 -0.2871  0.1181
 5872W        W22133   2.072  12.433   3.727 -0.0820  0.1875  0.2117
 5873W        W22134   1.189  10.546  13.278 -0.0605 -0.0323 -0.0862
 5874W        W22135  14.092   9.458   1.276  0.2780  0.0255 -0.1733
 5875W        W22136   5.354   8.578  15.972 -0.1491  0.1432 -0.1648
 5876W        W22137   7.729  17.923  13.867  0.3220 -0.3440  0.0371
 5877W        W22138  14.465  12.243  15.799  0.3899 -0.1245 -0.4893
 5878W        W22139  16.203  18.039   1.003 -0.2224  0.1193  0.2119
 5879W        W22140   4.813  14.443  10.197  0.1346 -0.1461 -0.3456
 5880W        W22141   2.771  10.263  11.509 -0.0614 -0.0192  0.2333
 5881W        W22142   1.559   3.733   2.996  0.2708 -0.1696  0.0547
 5882W        W22143   1.064  18.143   0.923 -0.0035  0.0219  0.3380
 5883W        W22144   8.937   7.468   3.402  0.3742  0.0869  0.5432
 5884W        W22145   3.376  11.385   4.593 -0.1554 -0.2445 -0.0378
 5885W        W22146   6.036  11.887   3.066  0.0049 -0.1902 -0.0010
 5886W        W22147  10.382  11.803   4.544 -0.1270  0.3434 -0.4097
 5887W        W22148  14.948  17.358   1.679  0.0788 -0.1199  0.0657
 5888W        W22149  11.459  12.638  15.965  0.2749 -0.1473 -0.3304
 5889W        W22150  14.825  14.792   4.673 -0.2993  0.2553  0.2569
 5890W        W22151  14.185   8.955   3.663 -0.1361  0.3142 -0.3587
 5891W        W22152   5.849   7.092  12.842 -0.0417  0.1511 -0.3341
 5892W        W22153  17.421  12.257  10.685  0.0902 -0.0699 -0.1627
 5893W        W22154  14.978  11.359  14.270 -0.1541  0.2932  0.1986
 5894W        W22155   9.964   5.567   4.090  0.0946 -0.1439  0.1437
 5895W        W22156   7.736  12.426  16.183  0.0806 -0.2934 -0.0998
 5896W        W22157  10.156   2.100   1.493 -0.0314  0.2323 -0.1431
 5897W        W22158  13.904   3.115  12.080  0.2025  0.3945  0.1258
 5898W        W22159  14.543   8.688  11.525 -0.0622 -0.0229  0.1450
 5899W        W22160   0.794   5.509  13.492  0.1086  0.0778  0.2032
 5900W        W22161  17.732   6.677   2.958 -0.1056  0.1557 -0.0943
 5901W        W22162  10.839   8.751  16.181  0.1783  0.1690  0.0541
 5902W        W22163   2.770   5.852   0.264  0.0254  0.0640 -0.2294
 5903W        W22164  11.292   1.537   0.723 -0.0505 -0.2308 -0.2977
 5904W        W22165   2.578  15.268   2.193  0.0317  0.2457 -0.0713
 5905W        W22166  11.239   3.691   3.915  0.0100  0.2659 -0.3058
 5906W        W22167  12.124  18.215   4.798  0.0221 -0.1331 -0.0486
 5907W        W22168   5.400   7.678   3.474  0.0946 -0.0211 -0.3174
 5908W        W22169  14.544   6.854  13.121  0.2900 -0.2109  0.0153
 5909W        W22170  18.296  10.137   2.854  0.2149 -0.0544 -0.2306
 5910W        W22171   9.444  15.594  11.129 -0.2202  0.3421 -0.0557
 5911W        W22172   7.078  14.536   2.754  0.1110 -0.1229 -0.0952
 5912W        W22173  10.167  11.966   1.762 -0.0128 -0.3811  0.2834
 5913W        W22174   2.074   7.924  13.928 -0.0097 -0.1429 -0.0028
 5914W        W22175   5.023   6.592   5.910  0.1643 -0.1663  0.4087
 5915W        W22176  14.471   4.641  12.499  0.0761  0.1513  0.0536
 5916W        W22177  14.506  15.172  12.832  0.2636  0.0345  0.0738
 5917W        W22178   7.723  12.584   5.443  0.2088  0.0820  0.0039
 5918W        W22179   2.787   1.123   5.798 -0.1388  0.0263 -0.1506
 5919W        W22180  16.926   6.226  14.890  0.1692  0.1566  0.1496
 5920W        W22181   6.275   8.014  14.245  0.0434  0.1966 -0.1675
 5921W        W22182  18.484  14.057   5.110  0.0216 -0.0672  0.2887
 5922W        W22183   8.954   6.162  13.400 -0.0570 -0.1506 -0.1322
 5923W        W22184   5.209  18.202   1.493  0.0970  0.0275  0.2915
 5924W        W22185  17.493  13.449   2.553 -0.1473  0.1271  0.0053
 5925W        W22186   9.661   8.253   6.413  0.1005  0.0602 -0.0645
 5926W        W22187  15.990  10.023  12.768 -0.0598  0.0441  0.0642
 5927W        W22188  10.327   9.385   2.472 -0.2012  0.0320 -0.0378
 5928W        W22189  17.554   9.377  14.488 -0.3093  0.0028  0.1143
 5929W        W22190  12.850  10.467   5.288 -0.3450  0.1388 -0.0752
 5930W        W22191   7.087  17.515   1.228 -0.0440  0.1424  0.2096
 5931W        W22192   5.828   9.705   3.276  0.0739 -0.1153  0.0829
 5932W        W22193  17.502  16.735   2.235  0.0698  0.0978  0.3092
 5933W        W22194   4.200   7.626  12.892 -0.2955  0.3257 -0.4845
 5934W        W22195  12.394  17.705  11.716 -0.0421 -0.1155 -0.1391
 5935W        W22196   9.536   5.832  13.293  0.0507 -0.0933  0.1100
 5936W        W22197   1.880  15.499  15.744 -0.0647  0.2994 -0.2488
 5937W        W22198  14.787   0.990  11.945  0.1755 -0.3045 -0.2064
 5938W        W22199   3.216  17.361   3.924 -0.1954  0.2950 -0.5450
 5939W        W22200  16.870  14.027   2.150  0.3946 -0.1125 -0.1661
 5940W        W22201   3.252   8.112   5.004  0.0157 -0.2216  0.1726
 5941W        W22202  12.431   4.458   3.350  0.2206 -0.4274  0.1295
 5942W        W22203   0.269   0.493  14.047  0.2318 -0.1282 -0.0080
 5943W        W22204  12.004   7.940   2.385  0.3831 -0.0227  0.1749
 5944W        W22205   4.009  12.409   3.745  0.0931 -0.2627 -0.3317
 5945W        W22206   1.835  17.261  14.394 -0.1963 -0.2483 -0.2772
 5946W        W22207   5.685   3.414   3.526  0.2321 -0.0659  0.2734
 5947W        W22208  14.331   0.986   5.629 -0.1899 -0.1028 -0.0458
 5948W        W22209  11.003   7.649  14.974 -0.0573 -0.1736  0.0673
 5949W        W22210   7.044  10.535  13.367  0.1347 -0.3638  0.1156
 5950W        W22211  10.487   5.746   6.399  0.1520 -0.0519  0.1253
 5951W        W22212  16.630   1.273   3.170  0.2115 -0.1631 -0.4020
 5952W        W22213   7.714   1.873  14.377 -0.0308  0.0989 -0.3934
 5953W        W22214  16.993  14.584  15.924 -0.0599 -0.1049  0.1146
 5954W        W22215   4.971   8.658   2.001 -0.5570 -0.0318 -0.1215
 5955W        W22216   3.949  14.733  12.823  0.1136  0.2428  0.1042
 5956W        W22217   5.897  17.147   3.947 -0.3536 -0.0496  0.0281
 5957W        W22218   7.518  10.689   2.251 -0.0180  0.2452 -0.0147
 5958W        W22219   8.124  13.737  11.814  0.0148 -0.0783 -0.0913
 5959W        W22220   2.932   2.435   4.066 -0.2005 -0.3202 -0.2595
 5960W        W22221  16.554   7.932   2.959  0.0301  0.2731  0.2550
 5961W        W22222  10.673   5.595   5.851  0.0617 -0.1686  0.0823
 5962W        W22223   7.078  11.473   0.006  0.1047  0.0373 -0.1442
 5963W        W22224  16.060   2.753  11.656  0.1644  0.0282  0.1049
 5964W        W22225   6.743  12.611   5.895  0.3171 -0.0313 -0.0795
 5965W        W22226  16.494   2.463   1.615  0.0918  0.1095 -0.0472
 5966W        W22227   6.444   8.790   3.360 -0.0319  0.2871 -0.1510
 5967W        W22228  12.522  10.615  11.016  0.1643 -0.1547  0.0593
 5968W        W22229   1.553   9.318   2.212  0.0035 -0.1592 -0.0340
 5969W        W22230   1.847  12.693  15.792  0.1088 -0.1928  0.0312
 5970W        W22231   7.976   4.422   1.808 -0.0583 -0.2308  0.0084
 5971W        W22232  12.790   6.690   4.297  0.1363 -0.1116 -0.2460
 5972W        W22233   9.440  10.807  13.059  0.4013 -0.0843  0.1241
 5973W        W22234   3.940   0.045  14.639 -0.3077  0.0536  0.0497
 5974W        W22235  11.740  15.662  11.244  0.3094  0.2659 -0.1390
 5975W        W22236   7.164  16.874   3.790 -0.0629  0.2318 -0.1117
 5976W        W22237   5.160   4.573  12.170 -0.0490 -0.0470  0.1938
 5977W        W22238   0.330   6.242   4.236  0.0871  0.1487 -0.1397
 5978W        W22239   3.689   1.982   0.091  0.1322 -0.2277  0.1807
 5979W        W22240   2.959  10.754  14.841  0.2693 -0.1035 -0.0209
 5980W        W22241   2.293   4.131   5.041 -0.2678  0.1633  0.2487
 5981W        W22242   0.509   7.356  14.603 -0.1248 -0.1830  0.1856
 5982W        W22243   8.848   8.198  12.695  0.1310 -0.2752 -0.1278
 5983W        W22244   4.144   5.160  14.365 -0.0511  0.1085 -0.0912
 5984W        W22245   0.553   8.407   3.758 -0.0165 -0.1608 -0.0220
 5985W        W22246   0.802  12.848  13.645  0.2616  0.2733 -0.0867
 5986W        W22247   0.096  10.904  15.669  0.2719 -0.0869  0.1205
 5987W        W22248   9.203  18.477   0.744 -0.2214  0.0213 -0.0698
 5988W        W22249   1.216   0.247   3.514  0.0603  0.2913  0.3497
 5989W        W22250  18.240  16.510  13.859 -0.0881 -0.1093  0.0362
 5990W        W22251  13.327  13.228  12.988  0.0472 -0.3654  0.1569
 5991W        W22252   4.992   9.044  13.841  0.0057  0.3344  0.0558
 5992W        W22253  17.524   6.201   0.002  0.0337 -0.0872 -0.0909
 5993W        W22254  14.928  12.166  15.561 -0.0370  0.3282  0.1544
 5994W        W22255   6.490   2.694   5.627 -0.2167 -0.2449 -0.0184
 5995W        W22256   6.107   0.946  12.109 -0.3314  0.1876 -0.1492
 5996W        W22257   9.728  17.983   0.599 -0.0436 -0.2160 -0.0259
 5997W        W22258  15.090  18.200  11.996  0.0177  0.0035 -0.0789
 5998W        W22259   2.149  10.428   4.810  0.2773  0.0784  0.3163
 5999W        W22260  16.218   6.885   0.522 -0.1348  0.1648 -0.0455
 6000W        W22261   1.770  17.116   3.305 -0.0498 -0.4319 -0.0180
 6001W        W22262   1.964  10.304   1.342 -0.1131  0.0981  0.0899
 6002W        W22263   2.539   4.305   5.944 -0.0744 -0.1163  0.2282
 6003W        W22264   2.553   9.328   5.353  0.0894 -0.0840 -0.2329
 6004W        W22265  11.377   4.162   0.184 -0.1287 -0.2425  0.1861
 6005W        W22266  15.998  11.630   0.106 -0.0996  0.1228 -0.2036
 6006W        W22267  10.521   3.510  13.266  0.2284  0.0263  0.0144
 6007W        W22268   5.870  16.581   4.904 -0.0004  0.2118  0.1395
 6008W        W22269   3.855  14.306   3.718 -0.0422 -0.0477 -0.0965
 6009W        W22270   0.827  10.519  15.983 -0.3107  0.2703 -0.1310
 6010W        W22271  10.641  16.340   3.149  0.1101  0.0474  0.0074
 6011W        W22272   9.454  16.943  11.909 -0.0368  0.0011 -0.2173
 6012W        W22273  17.250   6.436  13.433  0.1797  0.4241  0.3105
 6013W        W22274  14.291   1.885  10.391 -0.2558  0.2633 -0.2963
 6014W        W22275  11.137  11.790   2.703 -0.1161 -0.3309 -0.1151
 6015W        W22276  16.760   8.165   3.921 -0.3409  0.0232  0.2251
 6016W        W22277   8.513  13.594   3.678 -0.1204 -0.1019  0.0274
 6017W        W22278  11.801   3.193  15.943 -0.1059  0.0924 -0.0044
 6018W        W22279   4.335  11.477   4.752 -0.1233  0.1732 -0.2851
 6019W        W22280  14.965   8.550   4.068 -0.2211 -0.1160  0.1613
 6020W        W22281  14.409   7.416  12.832 -0.0204 -0.1385 -0.0678
 6021W        W22282   8.585   4.095  13.335 -0.0522 -0.1640 -0.0903
 6022W        W22283  16.148   0.976   5.605  0.1525 -0.0663 -0.0186
 6023W        W22284   4.765   6.378  15.915  0.2955  0.0059  0.2119
 6024W        W22285   6.593  16.758   0.150  0.2777  0.3465  0.1684
 6025W        W22286   5.463   2.983   3.726  0.0118  0.1826 -0.4806
 6026W        W22287  15.449   7.197   2.525 -0.0479 -0.2108  0.1068
 6027W        W22288  10.876   8.564   3.066  0.0961 -0.1982  0.0170
 6028W        W22289  15.233   8.559  13.162 -0.0180  0.0471 -0.2417
 6029W        W22290   6.719   7.899  13.986 -0.2063  0.2421 -0.1794
 6030W        W22291   8.410  10.230   6.252 -0.3388 -0.1542 -0.1585
 6031W        W22292   2.450   2.021  12.990  0.3407  0.0640 -0.2622
 6032W        W22293  11.807   4.300   0.577 -0.0531 -0.0655 -0.2996
 6033W        W22294  14.520  16.803  12.117  0.0872  0.0770 -0.1362
 6034W        W22295   7.315   6.335  15.104  0.3429 -0.0989 -0.2569
 6035W        W22296   8.369  16.379   3.965  0.3090  0.0470  0.2796
 6036W        W22297   7.483  15.508   4.373 -0.1403  0.0268 -0.2025
 6037W        W22298  16.694  11.924  13.874 -0.0278  0.2600 -0.1575
 6038W        W22299   5.855   6.522   3.128 -0.0091 -0.0448 -0.1939
 6039W        W22300  10.172   8.124   2.383 -0.1669  0.0428 -0.1042
 6040W        W22301  12.192  18.271   0.884  0.1365 -0.1381  0.2048
 6041W        W22302  18.032  16.443   5.277 -0.3858  0.0422  0.0085
 6042W        W22303   3.488   0.593   5.468 -0.1974  0.2774  0.1544
 6043W        W22304   6.177   2.286   2.309 -0.2093 -0.3427  0.0300
 6044W        W22305   1.358   0.049   2.957 -0.1225  0.0360  0.0046
 6045W        W22306   4.747   2.310  13.307  0.0044  0.1506  0.0836
 6046W        W22307   6.517  10.833  15.725 -0.2016  0.3199 -0.0054
 6047W        W22308   0.054  13.269  12.781 -0.0823  0.1101  0.1737
 6048W        W22309   6.186  10.815   4.690  0.0950  0.1918  0.0656
 6049W        W22310  10.361   7.797  12.272  0.0631 -0.1216  0.0112
 6050W        W22311  15.737   6.993   4.674  0.1147  0.1048  0.1969
 6051W        W22312  17.818   0.680  15.805 -0.0540  0.0012 -0.2148
 6052W        W22313   5.384  14.014   3.515 -0.2029 -0.0544  0.0811
 6053W        W22314  11.846  17.740   4.874 -0.0787  0.0413 -0.0521
 6054W        W22315   0.409  13.088   1.436  0.2199  0.0729 -0.0384
 6055W        W22316  18.085   2.537   3.458 -0.4197 -0.0194 -0.3058
 6056W        W22317   1.159   6.838   1.293 -0.4262 -0.3310 -0.2893
 6057W        W22318  10.530   9.862  13.369 -0.0817  0.2609 -0.2596
 6058W        W22319   1.070   0.606   5.944 -0.1299 -0.0337 -0.1567
 6059W        W22320  15.544  14.136  11.263 -0.4394 -0.0110  0.0579
 6060W        W22321   6.760  18.441   1.942 -0.1246 -0.1465  0.2733
 6061W        W22322  11.615   6.812  13.169  0.2399 -0.0474  0.3468
 6062W        W22323  15.666   9.138   1.218  0.1092  0.1421 -0.0421
 6063W        W22324  14.178  14.815   5.466 -0.0476 -0.4291 -0.1759
 6064W        W22325   4.233   5.403   5.178  0.2234  0.4690 -0.0491
 6065W        W22326  17.562   4.145  11.414  0.1605  0.0472 -0.0807
 6066W        W22327   7.553  12.022   3.185 -0.2126  0.1841 -0.2004
 6067W        W22328   7.037   6.674   2.667  0.0018 -0.0377 -0.0763
 6068W        W22329  15.579   8.836  12.238 -0.0235 -0.2020  0.2963
 6069W        W22330  11.152   6.835  13.864  0.1000  0.1275 -0.1591
 6070W        W22331  10.645   2.118  13.783 -0.1044  0.0341 -0.1895
 6071W        W22332   2.308  14.323  14.036 -0.0405  0.0799  0.1261
 6072W        W22333  17.188   2.943   3.834 -0.1381 -0.1543 -0.2255
 6073W        W22334  11.864   8.274  12.381  0.1593  0.0885 -0.0890
 6074W        W22335  14.279  18.188  15.281 -0.0119  0.0705  0.1024
 6075W        W22336  12.789   1.550   2.901  0.1878  0.0856 -0.2641
 6076W        W22337  13.331  10.410   0.902  0.1906 -0.0528 -0.1578
 6077W        W22338  14.230   8.104   5.560 -0.0665  0.0619 -0.1137
 6078W        W22339   5.345   4.593  15.804  0.2496  0.2361  0.3639
 6079W        W22340  12.044  14.656   0.197 -0.1413 -0.0880  0.1089
 6080W        W22341   6.634  12.756   1.440 -0.5169  0.1569  0.4524
 6081W        W22342  14.409  16.480   3.194 -0.1192  0.1633  0.2544
 6082W        W22343  11.290  13.930   4.911 -0.3365 -0.0909  0.2974
 6083W        W22344   7.567  14.817   3.749 -0.0303 -0.0230 -0.1441
 6084W        W22345   7.006  16.859  15.078  0.1202  0.1550 -0.0609
 6085W        W22346  14.415   1.320   0.963 -0.0948  0.0204 -0.0877
 6086W        W22347  15.153   4.100   3.917  0.0395  0.0355  0.0418
 6087W        W22348  16.337   6.828   3.873 -0.0270 -0.0978 -0.4159
 6088W        W22349  17.969   6.331   2.711  0.1132 -0.0345 -0.0794
 6089W        W22350  12.239  13.151  15.628  0.0855 -0.1809 -0.1270
 6090W        W22351   6.593   4.305  12.266 -0.0599 -0.0501  0.2051
 6091W        W22352   4.567   6.418   2.685 -0.2653  0.0943 -0.0150
 6092W        W22353   0.451  13.594  10.722 -0.0545 -0.2545 -0.0029
 6093W        W22354  14.583  17.063  11.578  0.0041 -0.1370  0.0796
 6094W        W22355   9.292   8.229   0.974 -0.0033 -0.0583 -0.2315
 6095W        W22356   0.468  15.491  10.595  0.1997 -0.0057 -0.1394
 6096W        W22357  16.127   9.142   2.772 -0.2428 -0.1242  0.2114
 6097W        W22358   1.667   6.700  14.339  0.0310 -0.1172 -0.2171
 6098W        W22359  10.677  16.537  14.601  0.1912  0.0983 -0.1231
 6099W        W22360   3.178  17.828  14.392 -0.1139  0.0794 -0.0661
 6100W        W22361   0.893   8.872   5.074 -0.4035 -0.0865 -0.0639
 6101W        W22362  15.505   1.926   2.089  0.0528  0.0829 -0.0786
 6102W        W22363  18.459   3.150  10.799  0.1803  0.2415  0.2556
 6103W        W22364   9.584  18.034  13.618  0.1067  0.0967  0.2539
 6104W        W22365   9.464  15.355  13.731  0.1068  0.1220 -0.0214
 6105W        W22366   8.545  12.701   2.542 -0.2746  0.1483  0.2396
 6106W        W22367   4.391   2.147  12.854  0.0808 -0.1246  0.0437
 6107W        W22368  17.828   9.667   4.245 -0.0331  0.1079 -0.0499
 6108W        W22369  17.904  12.162   2.969  0.1738 -0.1609  0.0524
 6109W        W22370   2.943   7.953   2.460 -0.1126 -0.0917 -0.0282
 6110W        W22371  12.401  17.592   2.221  0.2912  0.2904  0.1719
 6111W        W22372  13.148  14.899   0.931 -0.4120  0.1223  0.0214
 6112W        W22373   7.115   0.434   3.075  0.3058  0.1276 -0.1628
 6113W        W22374  11.497  16.034  11.513  0.0037 -0.1610  0.1015
 6114W        W22375   7.248   9.851   5.173 -0.1365  0.1077 -0.1104
 6115W        W22376   6.277   5.775   3.556 -0.0164  0.1028  0.1905
 6116W        W22377  10.238   9.842  11.738  0.0198 -0.0732  0.1807
 6117W        W22378  17.977   6.818  15.549  0.1232  0.0887  0.1040
 6118W        W22379   7.095   2.231  11.760  0.1475 -0.1992 -0.2660
 6119W        W22380   9.191  15.244  15.481 -0.0387  0.0622 -0.3166
 6120W        W22381   8.490   8.848   1.011 -0.3268  0.0021  0.1244
 6121W        W22382   3.547  18.435  12.056  0.1744 -0.1473 -0.0513
 6122W        W22383  15.168   4.067  14.768  0.1827 -0.0356 -0.2020
 6123W        W22384  16.039  13.394  14.306  0.0841 -0.2579 -0.1106
 6124W        W22385  10.785   5.771   4.856 -0.0559  0.1508  0.0769
 6125W        W22386   8.222  13.829   0.078 -0.0513  0.1885 -0.1624
 6126W        W22387  13.980  12.553  13.148  0.0437 -0.0657 -0.0125
 6127W        W22388   6.779  18.056   4.314 -0.0859 -0.1161 -0.1099
 6128W        W22389  10.385  10.166   5.927 -0.2224 -0.2580 -0.0891
 6129W        W22390  13.085  15.404   0.885 -0.3301 -0.0985  0.0460
 6130W        W22391   3.004   4.224   4.159 -0.0252 -0.1836  0.0370
 6131W        W22392   4.744  16.839  11.987 -0.2243 -0.1135  0.0188
 6132W        W22393  13.995  14.504  11.283 -0.1065  0.1207  0.1873
 6133W        W22394   6.511  13.522   2.888  0.3585 -0.0355  0.2679
 6134W        W22395  15.133   8.204  13.520  0.0346  0.0621 -0.2062
 6135W        W22396  12.594   9.989   5.449  0.1134 -0.0999 -0.0549
 6136W        W22397   0.757   3.535  15.877 -0.1034  0.4281 -0.1665
 6137W        W22398   9.527  10.415   2.966 -0.3224  0.2428  0.0850
 6138W        W22399  16.041  13.152   0.162 -0.0704  0.1235  0.0798
 6139W        W22400  17.775  14.434   4.090 -0.2669  0.0689  0.2248
 6140W        W22401   0.142  10.333   1.121  0.3953 -0.0596 -0.3115
 6141W        W22402   9.861  14.246  12.313 -0.2620 -0.1434 -0.0086
 6142W        W22403  11.712  17.793  13.484 -0.1530  0.0577 -0.0023
 6143W        W22404   5.891  15.187  13.930 -0.1008  0.1544 -0.1092
 6144W        W22405  12.303  11.297   1.620 -0.0742  0.2058 -0.0715
 6145W        W22406   0.247   3.469  15.960  0.1842 -0.2065  0.0383
 6146W        W22407  15.765   6.539  13.531  0.1994 -0.0098  0.1608
 6147W        W22408   7.519   3.512   0.846  0.1102 -0.0883 -0.1116
 6148W        W22409  11.508  12.213  14.941 -0.0156 -0.0361 -0.0975
 6149W        W22410   5.315  17.041  11.512  0.0138 -0.2387  0.2542
 6150W        W22411   3.129  10.832  15.418 -0.0354  0.0497 -0.0430
 6151W        W22412   0.570   7.995   0.179  0.1889  0.3127 -0.3849
 6152W        W22413   0.493  14.552  12.357  0.1288 -0.1954 -0.5761
 6153W        W22414  16.750   0.084  13.807 -0.1945 -0.0842 -0.2949
 6154W        W22415   9.711   0.250   2.295 -0.4157 -0.3207 -0.0024
 6155W        W22416   5.762   5.200   2.259  0.1219  0.1875 -0.1007
 6156W        W22417   7.619   4.056  13.080 -0.1748  0.0306  0.1332
 6157W        W22418  10.530   1.675   0.082  0.0208 -0.0751  0.1710
 6158W        W22419  15.990   9.560   5.077 -0.1422  0.0968  0.0318
 6159W        W22420   4.114   7.359  11.934  0.0783 -0.2104  0.0684
 6160W        W22421   8.935   0.976   5.612 -0.0427 -0.0544  0.2442
 6161W        W22422   0.724  13.140  11.193 -0.2253  0.0107 -0.0110
 6162W        W22423   4.137  13.867  13.817  0.0836 -0.1532  0.1702
 6163W        W22424  15.328   1.075   4.921 -0.0507  0.0702  0.2920
 6164W        W22425   2.983   0.956  14.179  0.2872  0.3506  0.1253
 6165W        W22426  15.712   8.567   5.654  0.0965  0.2035  0.1434
 6166W        W22427   7.822  15.925  15.873 -0.0279  0.2254  0.2940
 6167W        W22428  12.855   2.438   3.085 -0.1902 -0.0926  0.2292
 6168W        W22429  17.579  11.976   4.447  0.0383 -0.0037 -0.0536
 6169W        W22430  11.174   6.433   3.216  0.4398 -0.1808  0.1224
 6170W        W22431  11.095  17.781  12.544 -0.2626 -0.0564 -0.0990
 6171W        W22432   6.482   2.156   4.036 -0.1593  0.2415 -0.2114
 6172W        W22433   4.651  12.123  14.595  0.0015  0.1005  0.1941
 6173W        W22434  11.125  14.003  12.443  0.0774  0.2744 -0.0293
 6174W        W22435  11.287  11.303   4.355  0.1163 -0.0002 -0.1668
 6175W        W22436   2.883   5.079  12.492 -0.1511  0.3089 -0.0995
 6176W        W22437  16.052  12.834  11.291  0.3020 -0.4557 -0.0816
 6177W        W22438  13.478  11.653   5.027  0.0270  0.2398  0.0548
 6178W        W22439   6.579  15.907  13.613  0.0810  0.0232  0.0822
 6179W        W22440   1.987  10.527   3.937  0.1394  0.0807  0.3756
 6180W        W22441  14.633  14.470   2.283  0.0333  0.1431  0.2283
 6181W        W22442   6.637  10.571   1.903 -0.2663  0.0876  0.0034
 6182W        W22443  11.250   7.639  12.719  0.1997  0.2708  0.3011
 6183W        W22444  15.664  17.047   1.971  0.0493 -0.0547 -0.1286
 6184W        W22445  11.731  12.842   0.490 -0.3139 -0.0694  0.3752
 6185W        W22446  13.709   4.270  12.884 -0.4597 -0.0249  0.0692
 6186W        W22447   3.364   1.167   0.566 -0.0722 -0.2842  0.0932
 6187W        W22448   7.503   1.957  15.671 -0.1776  0.1552  0.0644
 6188W        W22449   9.920   3.559  15.553  0.3120 -0.0084  0.0781
 6189W        W22450  14.693   9.444  13.764  0.1843 -0.2661 -0.0464
 6190W        W22451   5.708  15.758   0.727  0.1521 -0.0248 -0.2533
 6191W        W22452  10.753   2.033  10.597  0.1870 -0.0859  0.0561
 6192W        W22453  12.690   0.211  13.021  0.1095  0.1346  0.5510
 6193W        W22454   0.470  14.353  14.500 -0.1855 -0.1192 -0.0325
 6194W        W22455   2.597  10.352  15.349  0.1361  0.3084  0.2278
 6195W        W22456   9.135   4.904   5.443 -0.0988 -0.1665  0.1616
 6196W        W22457   1.420   6.661  14.749 -0.3688 -0.0125  0.1123
 6197W        W22458  10.196   5.330   5.905  0.2344 -0.4199 -0.0490
 6198W        W22459   7.804   0.622   1.626 -0.1660  0.0376  0.1469
 6199W        W22460  14.850  16.234   1.829  0.1649 -0.0397 -0.1890
 6200W        W22461  13.616   2.955  11.679 -0.0666 -0.0285 -0.1845
 6201W        W22462   4.192  17.548  13.029 -0.3803  0.3438 -0.1191
 6202W        W22463   2.502   5.214   0.895  0.2370 -0.2909  0.0434
 6203W        W22464   7.516  10.179   2.150 -0.1928 -0.0242 -0.5520
 6204W        W22465  18.119   6.046  12.933  0.0489 -0.0804  0.0801
 6205W        W22466   2.788  13.899   3.930  0.2255  0.0393 -0.2543
 6206W        W22467  11.887  16.602   2.158  0.0871 -0.0681  0.2016
 6207W        W22468   6.668  11.111  13.377  0.1200  0.1122  0.1262
 6208W        W22469   0.561   5.781   5.628 -0.3478  0.0673 -0.3170
 6209W        W22470   0.271  17.528  14.688 -0.1306  0.1099 -0.2534
 6210W        W22471   9.730   9.594   1.664 -0.3200  0.1559 -0.1629
 6211W        W22472  18.331   4.291   3.191 -0.2582 -0.1590 -0.0221
 6212W        W22473   1.814   8.001   0.014 -0.0549 -0.0857  0.0295
 6213W        W22474   1.557  13.683  11.816  0.0078  0.1475 -0.0168
 6214W        W22475   2.631   0.555  14.296 -0.1832  0.1602  0.1365
 6215W        W22476  14.723  10.195  13.788  0.2404 -0.0661  0.0596
 6216W        W22477   4.666  14.620   3.141 -0.3257 -0.4233  0.1102
 6217W        W22478   6.643   1.423   5.461 -0.2861  0.1956  0.3337
 6218W        W22479  11.097  11.564   3.762  0.2483 -0.1468 -0.1263
 6219W        W22480  10.895   4.967   5.225 -0.0032 -0.0039 -0.2699
 6220W        W22481  12.428   4.623  11.747  0.1945 -0.0337  0.0462
 6221W        W22482   4.554   7.743  16.080 -0.3237 -0.0029 -0.2883
 6222W        W22483  15.975  11.952  10.869  0.0446 -0.1103 -0.1509
 6223W        W22484   5.575   1.062   3.386 -0.1712 -0.2711  0.0502
 6224W        W22485  16.784   2.275  15.449 -0.1134 -0.0069 -0.2571
 6225W        W22486  14.877  14.114   3.936 -0.1804 -0.1142 -0.0221
 6226W        W22487   4.840  10.079   2.947 -0.2117  0.1971  0.1596
 6227W        W22488   4.406   8.403   2.167 -0.1427  0.1808 -0.0768
 6228W        W22489  11.181   6.723   0.282  0.0192  0.2532 -0.2295
 6229W        W22490   2.715   8.952  14.793 -0.0735 -0.3443 -0.0820
 6230W        W22491  13.706   8.855   0.537  0.1769 -0.2219  0.1971
 6231W        W22492   8.890  17.948  16.165 -0.2273  0.3223  0.0937
 6232W        W22493  15.499   7.907  13.640  0.1806  0.1411 -0.1651
 6233W        W22494  14.944   0.272   3.689  0.1931  0.2442  0.2386
 6234W        W22495   0.286  18.449  14.102  0.0662  0.1054 -0.1459
 6235W        W22496   3.347  13.325  13.960 -0.1759  0.0499  0.0401
 6236W        W22497   7.255   5.597   0.537 -0.2019 -0.0587 -0.2033
 6237W        W22498   0.531  14.476   4.567  0.0077  0.2800 -0.0888
 6238W        W22499   2.845  18.250  12.161 -0.2121 -0.3338 -0.0064
 6239W        W22500   1.723  12.263   5.099 -0.0070  0.0366  0.2767
 6240W        W22501  11.741   9.293   6.224 -0.0532 -0.3869  0.3554
 6241W        W22502  14.172  16.011   4.834 -0.1641 -0.1084  0.2448
 6242W        W22503   6.121  13.927  12.394  0.0806 -0.1430 -0.1411
 6243W        W22504  12.277  15.587   0.692  0.0690 -0.1870  0.1176
 6244W        W22505  12.743   1.437  11.976  0.0728  0.0730  0.0281
 6245W        W22506   1.885  13.838   1.270  0.1088 -0.0833 -0.0269
 6246W        W22507  12.281   6.299   0.764  0.0606  0.1715  0.0586
 6247W        W22508   6.215  15.050   1.902 -0.1456 -0.0350  0.1832
 6248W        W22509  10.724  18.313   1.593 -0.3137  0.3438 -0.1095
 6249W        W22510  13.746   2.504  10.970  0.0411 -0.0009  0.0197
 6250W        W22511   9.785   7.053   0.469 -0.0890  0.1683 -0.2253
 6251W        W22512   6.167   9.891   3.642  0.0574  0.1286  0.1352
 6252W        W22513   0.273   1.416   4.229 -0.0552  0.1145  0.0475
 6253W        W22514   0.654   5.000  13.059 -0.1388  0.0358 -0.0959
 6254W        W22515  16.027   1.396  15.930 -0.0040  0.1768 -0.1989
 6255W        W22516  13.543   4.077  16.067 -0.0985  0.0756 -0.3293
 6256W        W22517   5.797  13.470  14.496 -0.1646  0.1214 -0.0423
 6257W        W22518   8.244  14.098   0.513 -0.0267 -0.2625  0.0525
 6258W        W22519  10.954  14.739   9.902 -0.1567 -0.2529 -0.0794
 6259W        W22520  17.102  17.325  12.233  0.1100 -0.0941  0.2483
 6260W        W22521   5.724   3.668  13.475  0.2806  0.2928 -0.2421
 6261W        W22522  16.403  14.970   4.022  0.0811 -0.0179  0.4896
 6262W        W22523  10.086   2.935  12.595  0.1122  0.0401 -0.2835
 6263W        W22524   8.082  12.599  12.973 -0.3188  0.0635  0.2897
 6264W        W22525  14.121   5.655   0.453  0.2917 -0.2093 -0.0178
 6265W        W22526  17.800   5.185   1.793 -0.2099 -0.1195 -0.1387
 6266W        W22527  12.387   1.290   9.646  0.0265 -0.1350 -0.0210
 6267W        W22528  14.439   1.500  10.922  0.1478  0.1117 -0.1713
 6268W        W22529  14.310  17.884   4.053  0.2244 -0.0399  0.0553
 6269W        W22530   5.904   8.152   3.971 -0.0504 -0.1609 -0.2588
 6270W        W22531   2.819  13.318   2.521  0.0323  0.0488  0.2582
 6271W        W22532   3.924   4.078   4.192  0.0757 -0.2786  0.1947
 6272W        W22533   5.752  12.758   2.955  0.1516 -0.2756  0.1383
 6273W        W22534   5.992  14.767   4.554  0.0779 -0.1494 -0.4448
 6274W        W22535   3.363   8.094  15.398 -0.0822 -0.0695 -0.0162
 6275W        W22536   5.730  14.007  14.580 -0.1670 -0.0725 -0.1577
 6276W        W22537  12.696  13.839   3.395 -0.4518  0.0102  0.1532
 6277W        W22538  16.658   4.046   3.737 -0.2728  0.0176 -0.2008
 6278W        W22539   7.016  11.337  13.657 -0.1303 -0.0973 -0.2814
 6279W        W22540   3.938   5.897   0.574  0.1259  0.3925 -0.2419
 6280W        W22541  11.247   5.369   3.018 -0.2745  0.0586  0.0601
 6281W        W22542   0.278  14.773   2.085 -0.0778  0.0169 -0.0969
 6282W        W22543  18.235   2.630   4.582  0.1174 -0.0590  0.3661
 6283W        W22544  11.289   4.409  13.026 -0.0602  0.4019 -0.0557
 6284W        W22545   3.915   1.923   2.643 -0.0432  0.1603  0.1721
 6285W        W22546  13.204   2.226  12.569  0.0883 -0.1638  0.1955
 6286W        W22547  18.237   9.474  11.363  0.2511  0.2276 -0.1944
 6287W        W22548  10.466  15.184  12.100  0.0834  0.3159  0.3082
 6288W        W22549  16.187  12.496   0.499  0.0531  0.1329 -0.2784
 6289W        W22550   6.894   6.137  14.217  0.0320 -0.0889 -0.2492
 6290W        W22551  15.059  11.315   1.448 -0.2632  0.0978  0.0210
 6291W        W22552  15.438   8.419  14.681  0.0267  0.2414 -0.0419
 6292W        W22553  13.275   6.589   1.333 -0.0877  0.0720 -0.0762
 6293W        W22554   5.483   2.419   0.338 -0.1257 -0.2500 -0.2161
 6294W        W22555  16.519  12.628   0.904 -0.0164  0.0118  0.0920
 6295W        W22556  17.518  18.445   2.867  0.0933 -0.0510 -0.0898
 6296W        W22557   7.856   4.366  12.743 -0.0454  0.2577  0.1134
 6297W        W22558  12.795  10.769   1.892 -0.2283  0.0496  0.1836
 6298W        W22559   0.674   1.902   0.256 -0.0880 -0.4742  0.1532
 6299W        W22560   5.464   6.163   3.133 -0.0400  0.0937 -0.2882
 6300W        W22561  11.727  16.760  14.350 -0.1880 -0.1743  0.2911
 6301W        W22562  10.754   9.474   3.327  0.2033  0.2206  0.0640
 6302W        W22563   7.187  16.318   1.040  0.1880 -0.3762 -0.2327
 6303W        W22564  18.046   2.503   2.151  0.2074  0.2609  0.1225
 6304W        W22565  17.617  11.631  11.261 -0.1676 -0.0920 -0.2900
 6305W        W22566   6.016  10.647   1.081  0.2197  0.1399 -0.0630
 6306W        W22567   0.130   7.433   4.954  0.1421 -0.1947 -0.2945
 6307W        W22568   4.854   6.390   3.494  0.1235 -0.1060 -0.2934
 6308W        W22569   3.784   2.749   3.530  0.3630  0.0718  0.0571
 6309W        W22570   1.044   9.443   0.565  0.3057  0.0045  0.2751
 6310W        W22571   8.682   1.367  14.970 -0.2458  0.2326  0.1034
 6311W        W22572  11.406  17.088   3.820 -0.1135  0.2989  0.3231
 6312W        W22573  13.354  13.024   1.924  0.0914 -0.1947 -0.1631
 6313W        W22574  13.098  11.785   3.406  0.1636  0.1648 -0.0329
 6314W        W22575   4.608   8.063   5.601  0.0719 -0.2908  0.0514
 6315W        W22576  15.677  16.026   4.393 -0.1694 -0.1844  0.1576
 6316W        W22577  17.167  17.127  14.449 -0.0463 -0.4002 -0.0983
 6317W        W22578   1.185  14.509   3.347 -0.3750  0.0971  0.3674
 6318W        W22579   4.049   4.076   3.664 -0.2153  0.0209 -0.4355
 6319W        W22580   3.798  10.860   0.075  0.1536  0.0706  0.1675
 6320W        W22581  10.161  17.192   3.100 -0.0242 -0.0907  0.0466
 6321W        W22582   7.299   9.244  13.675  0.3688  0.1196  0.2000
 6322W        W22583   7.644  10.602   5.811  0.1906 -0.0882  0.1824
 6323W        W22584   6.921  18.361  11.582  0.3971 -0.1068  0.0547
 6324W        W22585   0.243   8.627   2.484  0.0178 -0.0557  0.0895
 6325W        W22586   6.981   0.473   0.534 -0.1188 -0.2077 -0.0520
 6326W        W22587   9.145   5.319   2.289 -0.4565  0.1421  0.1961
 6327W        W22588   8.274  11.343   1.685  0.0039 -0.1062  0.2331
 6328W        W22589   9.597  13.451  16.013 -0.2259 -0.0123  0.0105
 6329W        W22590  14.762  17.299  15.193  0.0617  0.0793 -0.1233
 6330W        W22591  13.317  18.094  14.684  0.1694 -0.1034  0.0968
 6331W        W22592  16.877   5.728   3.627  0.0677  0.0372  0.1481
 6332W        W22593   1.944   1.413  11.597 -0.2057 -0.0972 -0.2627
 6333W        W22594  13.132   2.670   5.506  0.2213  0.3444 -0.0911
 6334W        W22595   0.042   7.089   5.740  0.2316  0.0447  0.0362
 6335W        W22596   8.998   7.473  13.520  0.0831  0.1372  0.0780
 6336W        W22597  12.504  10.620   4.939  0.0664 -0.0437  0.3219
 6337W        W22598  14.531   0.316  11.335 -0.1222 -0.2967  0.1853
 6338W        W22599  12.939   8.586  14.952  0.2629 -0.1158 -0.1356
 6339W        W22600  16.880   3.291   4.137  0.2936  0.1448  0.0733
 6340W        W22601  11.612   4.044  12.867  0.3788  0.2625  0.0425
 6341W        W22602  17.523   2.550   3.647 -0.0362 -0.0427 -0.2901
 6342W        W22603  11.344  15.160   5.188  0.3926 -0.0023  0.2361
 6343W        W22604   8.006  12.592   5.034 -0.1861  0.0194 -0.4843
 6344W        W22605   2.291   9.607   3.047  0.0717  0.0753  0.0383
 6345W        W22606   9.169   4.079   5.593  0.0443 -0.0484 -0.2061
 6346W        W22607   4.332   9.007   3.691  0.0821  0.0059 -0.1778
 6347W        W22608  10.237   0.974   2.819  0.0714 -0.1830 -0.3550
 6348W        W22609   1.637  11.278   3.249 -0.3098  0.3220  0.1632
 6349W        W22610  13.590   8.278   2.816 -0.2054  0.3029 -0.2446
 6350W        W22611  18.258   6.659  14.058  0.0315 -0.2917 -0.2394
 6351W        W22612  16.584   1.620  14.716  0.1497 -0.0305  0.2205
 6352W        W22613   6.430   9.746   1.370  0.1065  0.1393  0.2460
 6353W        W22614   0.557  14.241   2.676 -0.1296 -0.2748 -0.0086
 6354W        W22615  18.057  13.486  14.849 -0.0167  0.0315 -0.1198
 6355W        W22616   9.431   8.335   3.901 -0.0046 -0.0944 -0.0604
 6356W        W22617   2.907   3.789   1.198 -0.0353  0.0678 -0.1515
 6357W        W22618  11.706  10.822  13.311 -0.2878 -0.0269 -0.0660
 6358W        W22619  18.226  15.457   2.458 -0.3023  0.3697 -0.1692
 6359W        W22620  11.481  14.731   5.397 -0.1419 -0.1532  0.0566
 6360W        W22621   2.511   9.595   6.092 -0.0979  0.2317  0.3255
 6361W        W22622  16.561  16.340  12.586 -0.0614 -0.1942  0.4267
 6362W        W22623   0.782  10.596  13.602  0.0751  0.3131  0.0242
 6363W        W22624   4.396   3.788   6.042 -0.2421  0.2294 -0.2696
 6364W        W22625   5.445  11.041  14.110 -0.1195 -0.0160  0.1668
 6365W        W22626  11.014   4.183   5.866  0.1936 -0.0910 -0.2455
 6366W        W22627   3.239  17.925   4.720  0.1052  0.1114 -0.1527
 6367W        W22628   4.211   9.355   6.104  0.4140  0.0172 -0.1823
 6368W        W22629  14.218   4.422  14.256 -0.3624  0.2928 -0.0239
 6369W        W22630   1.106  14.759  14.728  0.0542 -0.1902  0.2505
 6370W        W22631   6.381  15.172  14.008 -0.1541  0.3628 -0.2359
 6371W        W22632   7.269   8.151  12.491  0.0389 -0.0264 -0.0465
 6372W        W22633   2.376  11.059   1.444 -0.0931  0.1856 -0.0292
 6373W        W22634   3.647   7.483   4.407 -0.0767  0.1099  0.0100
 6374W        W22635   5.812  13.820   2.310  0.1933  0.0628 -0.0128
 6375W        W22636  11.843   7.013  14.004  0.0271 -0.1925  0.0582
 6376W        W22637  16.231  11.808  11.292  0.0560 -0.0289 -0.1125
 6377W        W22638   0.795   8.426  11.833 -0.1104 -0.0413  0.1266
 6378W        W22639   2.739   7.441   1.981 -0.0577  0.1236  0.3694
 6379W        W22640  16.031   1.065   2.879  0.1157 -0.0252  0.0553
 6380W        W22641  10.651  15.242  11.622 -0.2623 -0.0051  0.4168
 6381W        W22642   7.026   5.086   1.010 -0.1469 -0.0148 -0.1045
 6382W        W22643  15.093   8.262  15.266  0.3336 -0.2517  0.2860
 6383W        W22644   1.826  10.603   4.403 -0.0015  0.2505  0.2923
 6384W        W22645  11.955   4.575   2.033  0.0455 -0.0329 -0.2639
 6385W        W22646  10.572  14.567  12.418 -0.0532  0.2576  0.0925
 6386W        W22647   0.236  11.324   3.868 -0.3938 -0.1144 -0.3937
 6387W        W22648   4.942  14.418  15.255 -0.1414 -0.2321  0.0345
 6388W        W22649   2.428   7.916   3.351  0.2017  0.1127  0.1583
 6389W        W22650  15.078   5.905   3.982 -0.1472  0.1164  0.1335
 6390W        W22651  11.697   4.311   5.062  0.3057  0.0214 -0.3549
 6391W        W22652   2.609   8.339  15.939  0.0726  0.2340  0.1733
 6392W        W22653  17.360  10.375  14.304 -0.1820  0.0461  0.1975
 6393W        W22654  15.329   7.398   1.206  0.3785  0.2590 -0.0841
 6394W        W22655   1.832   5.302   3.433  0.1363  0.0644 -0.3094
 6395W        W22656   1.109   6.317  11.614 -0.0337 -0.3473 -0.3119
 6396W        W22657   1.566   0.781   1.457  0.0829  0.0956  0.1288
 6397W        W22658   6.613   0.528   2.949  0.1443  0.2908  0.0263
 6398W        W22659  14.919  11.718  15.334 -0.1823 -0.2325  0.0732
 6399W        W22660  11.030  17.218  12.462 -0.0795 -0.0222 -0.1579
 6400W        W22661   2.996  10.112   0.919 -0.2107 -0.1383  0.2112
 6401W        W22662   2.292   5.587  12.715 -0.2725 -0.3319  0.4213
 6402W        W22663  14.309  17.224   0.850  0.0208 -0.2319 -0.0540
 6403W        W22664   6.105   4.299   5.817  0.3604 -0.3290 -0.0948
 6404W        W22665   2.895   6.242  11.349  0.2387 -0.3338 -0.0113
 6405W        W22666   0.063   8.213  11.520  0.0987 -0.2461 -0.0371
 6406W        W22667  17.743  15.413  15.806  0.2301  0.0082 -0.1557
 6407W        W22668   5.170   5.956   0.521  0.0395  0.1085  0.2835
 6408W        W22669   4.226   8.257  14.020  0.1860  0.0311 -0.1061
 6409W        W22670  17.729  11.559  12.859 -0.1493 -0.2397  0.3031
 6410W        W22671  13.360   1.183  12.187 -0.1048 -0.2318 -0.2962
 6411W        W22672   0.191  15.297   1.631  0.0571 -0.0605 -0.1720
 6412W        W22673  16.709  15.943   0.520  0.0714  0.5733  0.1839
 6413W        W22674  16.414  17.929  15.421 -0.0512 -0.1618  0.1364
 6414W        W22675  10.190  15.415  14.102  0.0742  0.1789 -0.1082
 6415W        W22676   8.937   3.615   3.132 -0.1041 -0.0054 -0.1475
 6416W        W22677  14.389  15.693   4.539  0.1760  0.1834 -0.0225
 6417W        W22678  14.937   6.770   2.028 -0.0407  0.3585 -0.0866
 6418W        W22679  12.541  14.629  11.459 -0.0020  0.2513  0.1594
 6419W        W22680  12.142   1.653   2.665 -0.0225 -0.1032  0.2620
 6420W        W22681  15.068   8.817   3.219  0.0023  0.2861 -0.1835
 6421W        W22682  11.932   6.293   2.560 -0.0516  0.0837 -0.1204
 6422W        W22683  15.930  12.093   0.832 -0.1697  0.0115 -0.3503
 6423W        W22684  13.617   5.013   3.471  0.0845  0.0383 -0.2491
 6424W        W22685   6.622  12.169  13.219 -0.1077  0.3232  0.0776
 6425W        W22686   2.910   2.602  14.506 -0.1255 -0.2679 -0.1820
 6426W        W22687   1.761  17.260   0.447  0.1940  0.3999 -0.1341
 6427W        W22688  14.062  16.904  12.843  0.1805  0.0057 -0.0661
 6428W        W22689  12.949   0.632   2.077  0.1737 -0.0897 -0.3000
 6429W        W22690  14.685   1.099  12.950  0.0591  0.0449  0.2556
 6430W        W22691  11.758   1.925   3.695 -0.0435 -0.1026  0.1177
 6431W        W22692   7.408   2.355   0.255 -0.1356  0.2000 -0.1233
 6432W        W22693  17.342   5.850  15.343 -0.0007 -0.0366  0.0528
 6433W        W22694   7.304  12.789  12.411  0.0622  0.1137 -0.2412
 6434W        W22695   9.579   5.020   2.045  0.1551  0.3401  0.0753
 6435W        W22696   4.605   1.080   4.714  0.0130  0.0649  0.1464
 6436W        W22697   3.655   6.149  15.997  0.2724 -0.0053 -0.0709
 6437W        W22698  11.363  10.618  16.134  0.1890 -0.3932  0.1482
 6438W        W22699  17.923  10.064  12.024  0.1389 -0.0445 -0.2528
 6439W        W22700   6.465   4.265   5.221 -0.2215  0.0456 -0.0013
 6440W        W22701  15.153   6.923  11.305  0.1908  0.0541  0.2091
 6441W        W22702  13.585   7.863  10.849  0.0410  0.0294 -0.2546
 6442W        W22703   8.038   6.701   4.716 -0.1542 -0.2331  0.0278
 6443W        W22704  17.438   5.879  14.022  0.0749 -0.0624  0.3071
 6444W        W22705   6.810   1.699   0.498  0.3190 -0.1662 -0.0118
 6445W        W22706  17.949   9.858  13.085 -0.0765  0.0943 -0.2659
 6446W        W22707  11.563  12.231   3.981 -0.0117 -0.1199  0.1195
 6447W        W22708  10.244   8.080   4.164  0.1085  0.1493  0.1555
 6448W        W22709   4.933   8.244  13.897  0.0811  0.1231 -0.3168
 6449W        W22710   8.815  18.139   5.229 -0.1681 -0.0945  0.0570
 6450W        W22711  17.715   0.401   2.730  0.2334  0.0843  0.1230
 6451W        W22712  14.243  11.901  14.696 -0.1569  0.1186  0.0855
 6452W        W22713   7.898   4.784   2.200 -0.0414 -0.2209 -0.1104
 6453W        W22714  14.510  13.660  11.044  0.2690 -0.1321 -0.2301
 6454W        W22715  15.320  17.791  16.078 -0.1226 -0.0725 -0.2626
 6455W        W22716  17.863   4.167  12.414 -0.1214  0.3177  0.1551
 6456W        W22717  10.011   6.551  15.379 -0.0595  0.1552  0.3253
 6457W        W22718  12.151   2.030  12.289  0.0016  0.3564  0.2185
 6458W        W22719  17.489   6.186   5.515  0.0444 -0.2788 -0.0673
 6459W        W22720   0.172   0.837  12.672  0.2181 -0.1159 -0.0799
 6460W        W22721  15.013  10.604   4.802 -0.0232 -0.0770  0.3990
 6461W        W22722  11.281  13.714  11.354  0.1482  0.0884  0.1511
 6462W        W22723  18.390   1.681   4.983 -0.1860  0.2550 -0.0196
 6463W        W22724   0.951   3.922   4.190 -0.0037 -0.0004  0.1201
 6464W        W22725   2.268   4.598   3.820  0.5077  0.0610  0.0440
 6465W        W22726   4.485   4.432  14.752  0.0994 -0.2374 -0.1082
 6466W        W22727   3.254  13.502  14.478  0.0224 -0.0318 -0.0477
 6467W        W22728  12.969   6.820  12.088  0.0932  0.0382 -0.1385
 6468W        W22729   5.619   2.734  13.331  0.0083 -0.0023 -0.2106
 6469W        W22730   8.660   7.005   0.006 -0.0579  0.2826 -0.0601
 6470W        W22731   0.230   7.704   2.733  0.0218 -0.1615 -0.0555
 6471W        W22732   6.765   6.940  12.734 -0.0522 -0.3705  0.1806
 6472W        W22733  16.046  13.741   3.826  0.0213  0.2377  0.1213
 6473W        W22734  10.459   9.611  15.758 -0.0610  0.0806  0.3687
 6474W        W22735   7.272  13.620  11.701 -0.2021 -0.1113  0.0062
 6475W        W22736   2.002  13.847   0.671 -0.2537 -0.1701  0.3009
 6476W        W22737   4.412  15.237  12.132  0.0429  0.0484  0.3316
 6477W        W22738  10.977  15.520   4.130 -0.2268 -0.1282  0.1114
 6478W        W22739   7.645   6.354  11.363 -0.0730 -0.1836 -0.3646
 6479W        W22740   5.411   6.188  12.812  0.0927  0.1210  0.0551
 6480W        W22741   7.608  11.241   5.195  0.1212 -0.1340 -0.0661
 6481W        W22742   1.286   1.890   6.223 -0.0168 -0.1518  0.0328
 6482W        W22743   8.877   8.406   4.669  0.1471  0.2196  0.0789
 6483W        W22744   8.502   7.624   4.721 -0.3069 -0.1012 -0.1379
 6484W        W22745  11.714  13.416  15.946  0.2301  0.1405  0.0754
 6485W        W22746  12.847  12.827  12.215 -0.2939 -0.1909 -0.1339
 6486W        W22747   4.159   9.923   0.087 -0.2401 -0.2092 -0.1537
 6487W        W22748  11.927  13.104   1.437 -0.0182  0.1506  0.0750
 6488W        W22749   7.744   6.669   5.875 -0.1753 -0.1821 -0.1618
 6489W        W22750   9.154   8.307  12.341 -0.0749 -0.0627  0.2560
 6490W        W22751  11.831   8.503   1.927  0.3214  0.2505 -0.0415
 6491W        W22752  12.180   9.584   3.522  0.6595  0.1653  0.0647
 6492W        W22753  12.427  10.168   2.946 -0.1667 -0.3392 -0.1840
 6493W        W22754  16.376   3.590   0.309  0.0688  0.0153  0.0758
 6494W        W22755  10.592   9.849   4.359  0.2095 -0.0060 -0.1511
 6495W        W22756  15.656  15.569   1.966  0.1240 -0.2633  0.3032
 6496W        W22757   8.239   1.941   4.491 -0.2688  0.1001  0.2211
 6497W        W22758  10.260   8.699   4.955  0.2399  0.4024 -0.1983
 6498W        W22759  11.019   8.251  15.466 -0.2710 -0.0676 -0.1279
 6499W        W22760  14.517   7.381   0.145 -0.2034 -0.1972  0.4262
 6500W        W22761   8.725  13.692  12.619  0.2774  0.0710  0.1971
 6501W        W22762   0.205   9.060  11.383  0.1618 -0.2243 -0.0523
 6502W        W22763  15.697   6.892   3.404 -0.0247  0.2362 -0.3176
 6503W        W22764   2.071  11.310   4.130 -0.0706 -0.1780 -0.0853
 6504W        W22765   0.641  15.985   5.206  0.1242 -0.2957  0.0684
 6505W        W22766  12.708   3.088   5.465 -0.1199 -0.0902  0.1120
 6506W        W22767   0.636  15.270  15.673  0.0164 -0.0403  0.1226
 6507W        W22768  14.798  11.986  16.038  0.3692  0.3632 -0.2411
 6508W        W22769  14.063  12.359  16.159 -0.1851 -0.1258  0.1787
 6509W        W22770   0.643  11.860  10.354 -0.3948 -0.2485  0.3208
 6510W        W22771  17.413  17.766  12.192 -0.1785 -0.0458  0.1149
 6511W        W22772   0.352  12.786  11.174  0.2193 -0.2084 -0.1350
 6512W        W22773  15.870   5.645   4.564 -0.1542 -0.1781  0.0561
 6513W        W22774   9.338   2.190  12.288 -0.1383 -0.1140  0.2927
 6514W        W22775  15.488   3.890   1.227 -0.0167 -0.0148  0.3342
 6515W        W22776  17.642  12.128  11.603 -0.2564 -0.1273  0.0320
 6516W        W22777   8.959  10.894  15.712 -0.2072 -0.2255 -0.2616
 6517W        W22778  14.348  12.094   4.132 -0.0349  0.0461 -0.3754
 6518W        W22779   6.249  14.912  13.570  0.2850 -0.2080  0.2752
 6519W        W22780  17.987  14.933  15.106 -0.1365  0.1086  0.3006
 6520W        W22781   5.356  18.263  13.290  0.2525  0.0247  0.1383
 6521W        W22782   7.259  10.345   0.247  0.1268  0.3063 -0.0036
 6522W        W22783  11.217   4.705   5.568 -0.3813  0.1244 -0.2080
 6523W        W22784   1.976   3.979  14.658 -0.2099  0.1938 -0.0938
 6524W        W22785  15.823   1.716   5.370 -0.2706 -0.2266  0.1000
 6525W        W22786  16.857   6.525   3.132  0.3915  0.0312 -0.0830
 6526W        W22787  15.460   2.764   0.497 -0.1221 -0.4480  0.0537
 6527W        W22788   9.664   4.613   3.118  0.0267 -0.0384  0.1493
 6528W        W22789   3.439  11.181   3.618 -0.0606 -0.1350  0.1681
 6529W        W22790   5.698   2.047   4.412  0.1335  0.2835  0.3076
 6530W        W22791  13.888   7.956   5.887  0.3248  0.2247 -0.0452
 6531W        W22792   5.087  16.729   5.131  0.0488  0.0319 -0.1837
 6532W        W22793  11.477  15.911   3.477 -0.1568 -0.1434  0.0983
 6533W        W22794  14.006   2.397   2.549  0.2083  0.2609 -0.2579
 6534W        W22795   1.665   6.903   1.389  0.1184  0.0674 -0.1248
 6535W        W22796   4.103  17.435   2.266 -0.0149  0.1453  0.3660
 6536W        W22797   7.999  16.745  14.615 -0.1490 -0.1323  0.1233
 6537W        W22798   1.125  10.856  12.919 -0.4384 -0.1348  0.1311
 6538W        W22799   8.299   7.723   5.401  0.1339 -0.1533  0.0760
 6539W        W22800  11.135   8.611   5.255  0.1620 -0.1622 -0.3155
 6540W        W22801  14.295  15.932  15.767  0.0834 -0.3875  0.1725
 6541W        W22802   1.907   8.330   3.208 -0.1393  0.1201  0.0483
 6542W        W22803  11.086   7.967   1.873  0.1581 -0.3512 -0.0889
 6543W        W22804  15.169   7.014  12.397 -0.1185  0.0433 -0.0183
 6544W        W22805  17.389  11.935  13.220  0.0841 -0.4991  0.2319
 6545W        W22806   8.734   8.251  13.139  0.0391  0.0672 -0.1307
 6546W        W22807   4.318  10.820   0.005  0.0374  0.0725  0.0376
 6547W        W22808  15.525   3.328   4.015  0.0889 -0.0099  0.1444
 6548W        W22809   0.762   7.056  12.518 -0.0209  0.0698 -0.2414
 6549W        W22810  12.302   1.437   2.017 -0.2158 -0.0286 -0.1755
 6550W        W22811   7.037   1.558  12.744 -0.0743 -0.0009  0.0317
 6551W        W22812  12.402  14.609  12.302  0.1528 -0.3080 -0.0077
 6552W        W22813  15.577  10.918   3.431 -0.3153  0.3305  0.1826
 6553W        W22814  17.553  17.507  14.341  0.1097  0.2624  0.0267
 6554W        W22815   2.751  14.220  14.338  0.0066  0.0642  0.2126
 6555W        W22816   2.556   9.212  14.287  0.1826 -0.0504  0.0926
 6556W        W22817  12.300  10.422   2.497  0.0474  0.0698  0.2323
 6557W        W22818   4.110   5.740   6.203 -0.1845  0.2333  0.1934
 6558W        W22819  15.505   6.934  15.729  0.2185  0.0683 -0.0722
 6559W        W22820  15.206  18.207   5.287 -0.0904  0.1597 -0.0047
 6560W        W22821  14.280   1.840   1.752 -0.3764  0.0411 -0.3173
 6561W        W22822   4.686  14.785   4.277 -0.6403  0.3144  0.2043
 6562W        W22823  15.872  11.486   2.223  0.1389 -0.3068 -0.1947
 6563W        W22824   8.901   8.054  11.958 -0.2152  0.0321  0.1712
 6564W        W22825  15.870   2.833   5.471  0.1890  0.1797 -0.0611
 6565W        W22826   0.592   7.236   4.250  0.1862  0.0070 -0.1748
 6566W        W22827   1.756   9.416   0.593  0.3161 -0.3826 -0.2869
 6567W        W22828  13.192   1.563   1.130  0.0952  0.1890 -0.1190
 6568W        W22829  10.292  14.450   4.719 -0.0981 -0.0873  0.0069
 6569W        W22830  10.381   7.431   0.852  0.2903  0.0025 -0.1776
 6570W        W22831   6.742   5.177  14.444 -0.2754  0.0850 -0.0177
 6571W        W22832   3.082   7.407  13.615 -0.3170 -0.0034  0.1783
 6572W        W22833   5.124  13.498   4.569  0.1380  0.0494  0.1735
 6573W        W22834   3.118  13.639   4.694 -0.0795  0.2659  0.0804
 6574W        W22835   7.111  16.882   3.196 -0.4449 -0.0770  0.0018
 6575W        W22836  10.917   6.035   5.976 -0.0645  0.2035  0.2730
 6576W        W22837  17.849  14.071   2.602  0.2941  0.1709  0.2853
 6577W        W22838   2.302   5.978   0.335  0.1938  0.0211 -0.1253
 6578W        W22839  14.302   9.025  15.533  0.1733  0.0731  0.0546
 6579W        W22840   4.136  11.512   2.697  0.0985  0.0656 -0.3254
 6580W        W22841  13.561  10.097  10.121  0.1423  0.1001  0.0130
 6581W        W22842   2.162  16.865   1.838  0.0943 -0.0597 -0.1767
 6582W        W22843   0.613   1.194   2.923  0.0203 -0.0212  0.0662
 6583W        W22844   6.690  10.201   0.155 -0.0677  0.1359 -0.2778
 6584W        W22845   3.566   8.849  14.811 -0.0668 -0.0025 -0.1420
 6585W        W22846  17.662  12.073   2.107 -0.2883  0.0284 -0.1597
 6586W        W22847  13.863  13.592   5.039  0.0355 -0.0116  0.1141
 6587W        W22848  14.060   7.434  15.100  0.1117  0.0426  0.4348
 6588W        W22849  17.890   7.925  14.086  0.0364 -0.2680 -0.1937
 6589W        W22850   9.048   8.099  15.811 -0.1359 -0.0505 -0.0037
 6590W        W22851   1.686  15.515  12.518 -0.1706 -0.1024  0.0368
 6591W        W22852  11.192   3.222   3.673 -0.1859 -0.1788  0.3361
 6592W        W22853   2.921   4.144   2.165 -0.6406 -0.2325  0.0876
 6593W        W22854  14.262   4.537  15.379  0.1417  0.1193 -0.1338
 6594W        W22855   0.726  17.826   4.136 -0.2778  0.1601 -0.0388
 6595W        W22856  10.973  17.118  16.098 -0.0231  0.0334 -0.1235
 6596W        W22857   3.829   7.559  13.361 -0.3160  0.0858  0.1769
 6597W        W22858  12.231   8.801   2.001 -0.1345  0.2651  0.2959
 6598W        W22859   3.849   7.950  10.647  0.1767  0.0974  0.0367
 6599W        W22860   3.428  18.342   5.527 -0.1871 -0.0899  0.0069
 6600W        W22861   7.984   0.089   3.584 -0.0258 -0.2084  0.0691
 6601W        W22862  14.472  15.610   3.138  0.0383  0.2858 -0.0552
 6602W        W22863  12.955  10.883  12.390  0.0025 -0.2808  0.0394
 6603W        W22864   0.645   0.272  13.286 -0.2266  0.3645  0.2668
 6604W        W22865  14.108  17.133  11.409 -0.2492  0.0286 -0.0476
 6605W        W22866  16.233   4.733   1.046 -0.1032  0.1257  0.3933
 6606W        W22867   7.726  16.059   5.807  0.2659  0.1483 -0.0722
 6607W        W22868   7.888   1.980   0.268  0.0335 -0.3156 -0.0601
 6608W        W22869   9.689   4.137   3.246  0.0444  0.1984 -0.2881
 6609W        W22870  11.646  15.986  14.023 -0.0120  0.3319  0.0827
 6610W        W22871  13.336   4.811   6.039  0.1009 -0.2572  0.4554
 6611W        W22872  14.969   6.898  15.695  0.1617 -0.1978  0.2049
 6612W        W22873  17.207   8.853  12.571  0.0674  0.1438  0.2914
 6613W        W22874  12.583   1.740  15.972  0.1085 -0.4284 -0.3435
 6614W        W22875  17.497  17.318   3.385  0.1278 -0.1188  0.1901
 6615W        W22876  10.068   8.857  13.190  0.1059 -0.0685  0.3378
 6616W        W22877  17.581  12.873  13.214  0.1185 -0.4399  0.1364
 6617W        W22878   3.181  10.878   1.945 -0.1639 -0.1035 -0.1899
 6618W        W22879   9.794  11.798  16.031  0.2787  0.0464 -0.2509
 6619W        W22880   0.528   5.609  14.150  0.1390 -0.0213  0.4420
 6620W        W22881   1.920   2.723  12.061 -0.2641  0.0591  0.1182
 6621W        W22882   2.158   3.181  13.542 -0.1137 -0.1254  0.3051
 6622W        W22883  17.002  16.065  13.873 -0.1753 -0.0215 -0.1988
 6623W        W22884   3.600   0.337  14.856 -0.0261  0.0050 -0.0126
 6624W        W22885  14.226   1.527   4.926 -0.5436 -0.0598 -0.0244
 6625W        W22886   8.200   7.282  16.035 -0.5877  0.0813  0.0194
 6626W        W22887   3.592   1.086   6.441  0.1810 -0.0908  0.0064
 6627W        W22888  17.115  14.610   1.083  0.1076  0.3742  0.1229
 6628W        W22889   8.405  11.333   1.006  0.1587 -0.1127  0.2127
 6629W        W22890   9.483   9.781  13.895  0.2192 -0.1404  0.0497
 6630W        W22891  16.978  16.040  16.118  0.0004 -0.2267 -0.3639
 6631W        W22892   2.392  14.194  10.903 -0.2000 -0.4434  0.1395
 6632W        W22893   1.768   7.416  13.851 -0.2023  0.0880  0.1585
 6633W        W22894  11.612   5.271   4.160 -0.1545 -0.1307 -0.2799
 6634W        W22895  14.721  10.189  14.708  0.0866  0.3685 -0.0679
 6635W        W22896   3.153  15.699  15.004 -0.0715 -0.0198 -0.0214
 6636W        W22897   1.722  13.517   2.085 -0.1064  0.0703 -0.0190
 6637W        W22898   0.050  12.324  14.518 -0.0933 -0.2200 -0.0251
 6638W        W22899  11.782   1.597   1.309 -0.0384  0.1972 -0.0540
 6639W        W22900  11.797  12.045  15.491  0.0248  0.0420  0.0355
 6640W        W22901  10.408  13.763   0.338 -0.0284 -0.1212  0.0040
 6641W        W22902   0.090   8.285  12.495  0.0266 -0.1024 -0.1349
 6642W        W22903  12.861  13.853   0.752  0.4694 -0.2341  0.2398
 6643W        W22904  15.466   9.295   3.876  0.1652 -0.0526 -0.5458
 6644W        W22905   0.573   9.348  10.347 -0.1454  0.2056  0.1529
 6645W        W22906   0.940   4.686   1.015  0.2599 -0.2433 -0.0911
 6646W        W22907   9.006   9.667  14.260 -0.3662  0.2524  0.2509
 6647W        W22908   9.210   8.377  14.542 -0.3933 -0.1229  0.2089
 6648W        W22909  13.313   0.181  11.341  0.1000  0.1713 -0.0328
 6649W        W22910   1.427   1.989  13.085 -0.1469 -0.0975 -0.0387
 6650W        W22911   8.297  13.479   3.245 -0.0612 -0.0364  0.0754
 6651W        W22912   0.953   3.472   0.624  0.0742 -0.0933  0.3370
 6652W        W22913  14.396  10.971   2.120 -0.0361 -0.0467 -0.0900
 6653W        W22914  16.367   2.745  12.070  0.1285 -0.1781 -0.1070
 6654W        W22915  18.412  10.672  11.193  0.2846 -0.0988  0.0269
 6655W        W22916   9.248  18.103   2.888  0.0214  0.0041 -0.1810
 6656W        W22917  16.629  12.158   4.174  0.2710  0.0130  0.1319
 6657W        W22918   0.413  13.466  12.543 -0.1836  0.0485 -0.3275
 6658W        W22919   7.771   8.002   2.211 -0.0539  0.2146  0.0598
 6659W        W22920  15.115   2.600  13.369 -0.0712  0.1008  0.2056
 6660W        W22921   1.637  11.570   1.038  0.2100 -0.0942  0.1476
 6661W        W22922   9.078   4.634   3.020 -0.2176  0.1638 -0.1387
 6662W        W22923   0.154   7.104   1.467 -0.1090 -0.1144  0.0328
 6663W        W22924  14.199  14.169   0.511  0.0039  0.2710 -0.3387
 6664W        W22925  14.612  10.232   4.805  0.0809  0.1562 -0.0916
 6665W        W22926   9.398   4.791   1.220  0.2780  0.1968  0.1722
 6666W        W22927  16.727   4.181   5.351  0.2875 -0.0117 -0.1217
 6667W        W22928  13.911  10.334   3.797  0.0997  0.0048 -0.1132
 6668W        W22929   9.425  16.615   4.941  0.0397 -0.2965  0.1667
 6669W        W22930   9.232   4.313  13.802  0.0475  0.0089  0.2384
 6670W        W22931   3.896   0.770  12.410 -0.3580  0.1105 -0.0335
 6671W        W22932   9.964  10.496   4.545 -0.0494 -0.3189 -0.1372
 6672W        W22933  14.718  10.904  13.281 -0.1446  0.1310  0.0411
 6673W        W22934   8.387   6.119   0.014 -0.2241 -0.2998  0.0897
 6674W        W22935  15.362   5.546   4.696 -0.1253 -0.2213 -0.3727
 6675W        W22936  10.196   7.391   4.402  0.1431 -0.0583 -0.0593
 6676W        W22937  12.634  18.320   4.806 -0.2730 -0.0947  0.2869
 6677W        W22938   9.458   5.525  15.333 -0.0306  0.0175  0.0777
 6678W        W22939  16.934   0.159   3.039 -0.1857 -0.1879 -0.1484
 6679W        W22940  11.287   7.504  13.410  0.0105 -0.2854  0.2205
 6680W        W22941   4.571  18.015   2.047  0.1659  0.1086  0.4940
 6681W        W22942   8.087   7.649   2.240 -0.3763 -0.2345 -0.1193
 6682W        W22943   4.014  16.965   2.515  0.4808 -0.0689  0.4988
 6683W        W22944   9.428  14.499   3.632  0.0153 -0.0737 -0.0536
 6684W        W22945  16.587   5.559   1.311  0.3532 -0.0937  0.1023
 6685W        W22946  18.281   7.445  15.170 -0.0013 -0.0759  0.0168
 6686W        W22947   8.835   2.854   1.979 -0.0084 -0.0794 -0.4327
 6687W        W22948   1.401   8.242   5.346 -0.0698  0.0725 -0.0681
 6688W        W22949   2.518  10.756  11.846 -0.1017  0.2557 -0.0037
 6689W        W22950   2.840   4.623   5.650  0.1276 -0.0015  0.0838
 6690W        W22951   6.037  10.471   3.675  0.2674  0.0951 -0.0382
 6691W        W22952   9.100  15.628  15.161 -0.0953  0.0771 -0.1525
 6692W        W22953  16.692   3.401   0.716  0.0723  0.0880  0.2508
 6693W        W22954  10.334   5.053  11.702  0.2091 -0.1730 -0.1206
 6694W        W22955  17.128  17.120  11.196 -0.0504 -0.0714 -0.1104
 6695W        W22956  18.353   7.273  14.689 -0.1502  0.0852  0.3911
 6696W        W22957  12.337  16.174   3.170  0.0127 -0.0146 -0.2784
 6697W        W22958   8.300   0.871   3.886  0.1589  0.1756 -0.1261
 6698W        W22959   5.992  16.699  12.536  0.1357 -0.2532 -0.0702
 6699W        W22960   1.903   2.009   0.991  0.3015  0.0757 -0.3086
 6700W        W22961   8.712   5.757   0.519 -0.1470 -0.0326  0.5571
 6701W        W22962  10.722  18.222   1.115  0.1669 -0.1828  0.0180
 6702W        W22963   5.698  11.009   1.968  0.2090 -0.3681 -0.1068
 6703W        W22964  11.164   0.850  13.667  0.1243  0.0091  0.0678
 6704W        W22965  13.031  17.444  15.072 -0.0289 -0.1391  0.1693
 6705W        W22966   3.486   4.644  14.466  0.0777 -0.1866 -0.1618
 6706W        W22967  16.114   3.792  13.346 -0.2497 -0.1040 -0.3626
 6707W        W22968   7.462   2.675   5.509 -0.1580 -0.0018  0.1025
 6708W        W22969   5.222  18.267   5.336 -0.1736 -0.0150 -0.1062
 6709W        W22970   3.553  13.791   2.484  0.1400 -0.1018  0.2284
 6710W        W22971   4.522  12.817   1.893  0.0074  0.0229  0.0912
 6711W        W22972   1.022   1.453  12.526 -0.1279  0.4764  0.0090
 6712W        W22973   4.889  17.109   4.672 -0.0156  0.0748  0.0763
 6713W        W22974   3.409   1.044  11.587 -0.1054 -0.0733  0.1178
 6714W        W22975   8.013   1.344   4.730  0.1244  0.2518 -0.3772
 6715W        W22976   7.463   0.435   0.350  0.0617 -0.0750  0.1137
 6716W        W22977  12.055   0.085   5.147 -0.0436  0.0427  0.0978
 6717W        W22978   3.038   2.395   4.635 -0.2500 -0.2798  0.1524
 6718W        W22979   0.992   6.685  15.113  0.1476 -0.3281 -0.0008
 6719W        W22980  11.424   2.483   0.014 -0.2583 -0.0526  0.1077
 6720W        W22981  11.082  13.868  15.774 -0.3213 -0.0320 -0.0367
 6721W        W22982   3.280   4.708  13.237  0.0482  0.0022 -0.3619
 6722W        W22983   1.218  13.264   3.443  0.2993  0.1306  0.1129
 6723W        W22984  17.354   2.564   1.841  0.2583  0.3414  0.1165
 6724W        W22985  12.027   2.862  12.438  0.0169  0.0230  0.1982
 6725W        W22986  18.463   6.646   1.883  0.1352  0.2143  0.1336
 6726W        W22987   2.536  15.172  13.432  0.0026  0.0983  0.3058
 6727W        W22988   6.329  16.711   2.130  0.1898 -0.3637  0.0755
 6728W        W22989   0.689   7.921   1.767  0.2380 -0.2640  0.3119
 6729W        W22990  14.113  17.485   4.940  0.0178  0.0547  0.1451
 6730W        W22991  12.290   9.027  13.548  0.2801  0.1170  0.0036
 6731W        W22992  11.389  13.979  15.351 -0.0431 -0.0845  0.1544
 6732W        W22993   1.700  11.166   0.421 -0.1228  0.1893  0.1612
 6733W        W22994   7.279   6.593   5.797 -0.0760  0.1969 -0.0467
 6734W        W22995  14.111   8.989  15.032  0.0277  0.1090  0.2808
 6735W        W22996  12.090   4.294  11.523 -0.2843 -0.3863 -0.0592
 6736W        W22997   1.417  10.722   1.395 -0.3658  0.1888  0.0940
 6737W        W22998   2.577   6.407   0.396 -0.0556  0.1336  0.2293
 6738W        W22999  16.911  14.188  11.794  0.1879 -0.1853  0.0237
 6739W        W23000   1.037   1.490   1.592  0.2661 -0.1463 -0.2040
 6740W        W23001   7.676   8.873   2.156  0.0567  0.0302 -0.1389
 6741W        W23002  11.780   9.299   0.092  0.2208  0.2377  0.0592
 6742W        W23003  11.262  14.819  15.943  0.2363 -0.0212 -0.0739
 6743W        W23004   2.495  16.054   1.562 -0.1267  0.1106  0.2126
 6744W        W23005   8.483   5.487   5.023 -0.2181 -0.2749  0.1569
 6745W        W23006   6.491   6.897   5.900  0.2627 -0.2471 -0.0141
 6746W        W23007  15.271  13.285  13.163 -0.1634 -0.1801 -0.0755
 6747W        W23008  17.007   5.995   4.895  0.3322  0.1715  0.0025
 6748W        W23009   0.811  12.122   0.492 -0.1974 -0.0109 -0.2539
 6749W        W23010   2.866  14.514   6.123 -0.1076  0.2403  0.1401
 6750W        W23011  18.158   0.528   4.123 -0.1068 -0.0481 -0.2687
 6751W        W23012  13.724  16.383  15.447  0.0936  0.0287 -0.0775
 6752W        W23013   2.405   2.674   0.437  0.0553 -0.1377  0.4428
 6753W        W23014  11.096   3.829   1.141 -0.0913 -0.4086  0.0338
 6754W        W23015  11.255  11.322   9.973 -0.1644 -0.2782  0.1830
 6755W        W23016  14.913  11.968   0.691  0.2393 -0.3246 -0.0980
 6756W        W23017   1.746   3.665   0.787  0.0097  0.1205  0.1951
 6757W        W23018  14.571   5.523  10.875 -0.0763  0.0639 -0.0995
 6758W        W23019   2.373   2.905   3.389 -0.1116 -0.2609  0.0400
 6759W        W23020   2.920   6.812   4.376  0.1569  0.0005  0.1780
 6760W        W23021  12.948  12.274  13.143 -0.1875  0.1380  0.2311
 6761W        W23022  14.419  10.652   4.893  0.0572 -0.0850  0.1918
 6762W        W23023  15.078  12.917   2.159  0.0007  0.2346 -0.1590
 6763W        W23024  11.028  16.291  10.741 -0.0011  0.0186  0.0556
 6764W        W23025   0.587  17.687   3.177 -0.1630 -0.1828 -0.2110
 6765W        W23026   7.968   0.918  15.270 -0.3399  0.3755 -0.0627
 6766W        W23027  14.217   8.655  14.214  0.0637  0.0928  0.3299
 6767W        W23028   9.362  15.657  15.769 -0.0748  0.1845 -0.2537
 6768W        W23029   6.307  17.670   0.154 -0.0238 -0.1491 -0.0954
 6769W        W23030   4.263  18.067   5.509  0.2011 -0.0525 -0.1989
 6770W        W23031   5.990  13.427   4.294  0.0035  0.1717 -0.1596
 6771W        W23032  16.731  16.467   3.166 -0.1436  0.0423 -0.2153
 6772W        W23033   4.585  10.541   4.074  0.1907 -0.3665 -0.0037
 6773W        W23034  15.565   1.177  12.781  0.1072  0.2545 -0.3338
 6774W        W23035   5.213   4.545   4.592  0.1554 -0.0108 -0.3175
 6775W        W23036  10.615   0.839  15.991 -0.4297 -0.3331  0.1390
 6776W        W23037   7.267  17.521  12.328  0.1319  0.1002 -0.1478
 6777W        W23038   6.018   8.558   4.248  0.0519  0.2019 -0.0234
 6778W        W23039   4.129  12.081   0.809 -0.0604 -0.4457 -0.3036
 6779W        W23040  13.438   3.184  12.950  0.0179 -0.4340 -0.2420
 6780W        W23041  16.427  17.009  15.460 -0.1626  0.1553  0.2766
 6781W        W23042  11.121   3.704   0.120  0.1206 -0.2629  0.0222
 6782W        W23043  10.588   9.254   2.912  0.0792  0.0955  0.2022
 6783W        W23044   9.746  11.914   5.251 -0.0000 -0.0841  0.1770
 6784W        W23045  10.870   0.150  10.516 -0.1212  0.1033  0.0168
 6785W        W23046  17.358   2.682  12.693  0.2261  0.0940 -0.0119
 6786W        W23047  17.865  15.078   1.711 -0.1012  0.0201 -0.2016
 6787W        W23048  15.347  14.801  11.841 -0.6733  0.0598  0.1003
 6788W        W23049  14.344   0.023  12.569  0.1612  0.2604  0.3575
 6789W        W23050  11.163   9.494  13.849 -0.0934 -0.1114 -0.0500
 6790W        W23051  14.265  10.489  14.634  0.2184  0.2957 -0.0754
 6791W        W23052  11.107   5.984  12.006  0.0654  0.1441  0.0671
 6792W        W23053   7.877   0.380   1.047  0.0546 -0.1489  0.1010
 6793W        W23054  11.737   5.231  12.301  0.0259 -0.0319  0.0266
 6794W        W23055  15.432  16.614   4.491  0.3472 -0.0421 -0.3526
 6795W        W23056  16.941   3.828  15.214 -0.0470  0.0798 -0.0597
 6796W        W23057  13.512  12.611   3.339 -0.1861  0.1433 -0.0234
 6797W        W23058  18.397  11.227  11.334  0.0843  0.2368  0.1956
 6798W        W23059   1.344  12.713  13.473  0.3086  0.1583 -0.0006
 6799W        W23060   8.802  10.412  15.352 -0.0906 -0.2573 -0.0932
 6800W        W23061  13.733  16.018   4.532 -0.2499  0.0248 -0.0385
 6801W        W23062  12.729   6.141   0.628 -0.0448  0.1689 -0.0586
 6802W        W23063  14.361  13.147  15.988  0.3370 -0.1493 -0.2165
 6803W        W23064  17.181  13.632   1.996 -0.1372  0.3590 -0.1671
 6804W        W23065   8.901   4.980  11.964 -0.1052 -0.0887 -0.1629
 6805W        W23066   5.897   0.437  15.741 -0.3803  0.0358 -0.1581
 6806W        W23067   9.697  17.475   3.761 -0.0394 -0.1060 -0.0876
 6807W        W23068  12.715   9.483  12.847  0.0414 -0.3942  0.0793
 6808W        W23069   4.381  12.102   1.257 -0.1891 -0.0717 -0.0413
 6809W        W23070   0.048   5.268  15.761  0.0198 -0.2909 -0.0250
 6810W        W23071  12.237   3.753   5.676 -0.1111  0.4097  0.1034
 6811W        W23072   0.855   0.774  11.796  0.0422 -0.4551  0.0853
 6812W        W23073  10.513  11.377   2.418  0.3719 -0.0856 -0.2415
 6813W        W23074   4.085   1.343   4.348 -0.0666  0.2159 -0.0024
 6814W        W23075   3.055  10.758  14.092 -0.1166 -0.0244 -0.1786
 6815W        W23076  18.226  10.935   5.186  0.0987 -0.3673  0.0457
 6816W        W23077   6.376   0.940  13.677  0.1220 -0.0649 -0.0154
 6817W        W23078  18.285  12.128  12.321  0.1558  0.0205  0.5116
 6818W        W23079   0.815  18.322  14.502  0.1177 -0.2082 -0.0678
 6819W        W23080   2.106   8.488   4.702  0.1782  0.0699 -0.2277
 6820W        W23081   8.824   9.187  14.546 -0.0561 -0.1352  0.1440
 6821W        W23082  14.890   8.785  13.461 -0.1078 -0.0343  0.0105
 6822W        W23083  16.327  11.712   2.857 -0.0128  0.1008 -0.2560
 6823W        W23084  15.086  15.068   2.519  0.0315 -0.1052  0.2365
 6824W        W23085   8.141  17.148  11.382  0.0536 -0.0589 -0.4423
 6825W        W23086   4.907   8.966  15.130  0.0603 -0.3192  0.3132
 6826W        W23087  14.433   9.110   0.942  0.0120  0.2634  0.0876
 6827W        W23088   0.944  10.508   0.349  0.0406 -0.0672  0.0536
 6828W        W23089   0.376  12.621   0.739  0.0532 -0.0747  0.1753
 6829W        W23090   3.186   1.201   3.400  0.2389  0.0469  0.0143
 6830W        W23091  15.799  11.163  14.215  0.1291  0.0367 -0.0967
 6831W        W23092   2.235   0.164  13.568 -0.1167  0.0580 -0.4488
 6832W        W23093   9.844  18.156  14.024  0.0355 -0.0391  0.0435
 6833W        W23094   1.077   3.762  16.177 -0.1043  0.2424  0.0110
 6834W        W23095  13.070  15.255   2.243  0.1277 -0.2937 -0.1465
 6835W        W23096  12.111  11.724   2.821  0.0473 -0.0874  0.0945
 6836W        W23097  18.015   5.467  14.456  0.1314  0.0155 -0.4157
 6837W        W23098   8.872   4.232  12.923  0.3113  0.0627  0.2548
 6838W        W23099   0.534   9.223  13.529 -0.1522  0.1807  0.1655
 6839W        W23100   0.802  17.297   0.622 -0.3255 -0.0730  0.0572
 6840W        W23101   6.715  13.467   4.802  0.0758  0.4281 -0.0760
 6841W        W23102  10.783   3.553   1.962 -0.1397  0.0040 -0.2472
 6842W        W23103  18.080  17.450   0.586 -0.2306  0.1635 -0.1275
 6843W        W23104   1.091  13.019  15.298  0.0807  0.3787 -0.1195
 6844W        W23105  11.557   3.101   2.442  0.0643 -0.0872 -0.0856
 6845W        W23106   7.292  13.172  15.728 -0.0431 -0.0177  0.1898
 6846W        W23107  17.342   9.882   3.741  0.0377  0.1323  0.1446
 6847W        W23108   2.649   4.738   4.490  0.0255  0.3785  0.1770
 6848W        W23109  15.732  12.973   2.534 -0.2582 -0.0872 -0.1244
 6849W        W23110  18.184   6.804   2.294 -0.0933  0.1810  0.1924
 6850W        W23111   7.413   3.458   5.806 -0.0968  0.1713 -0.2536
 6851W        W23112   6.897  17.364  13.603  0.3070 -0.0158  0.0440
 6852W        W23113  14.884   3.713   1.830  0.2587 -0.0832  0.2916
 6853W        W23114   3.282   0.564  11.760 -0.0506  0.4747  0.0658
 6854W        W23115  15.159  15.108   4.298 -0.2459 -0.1351  0.1509
 6855W        W23116  12.738   0.438  14.883  0.0412 -0.4143 -0.0131
 6856W        W23117   2.171   5.070   5.199 -0.0492 -0.0520 -0.0465
 6857W        W23118   1.937  11.805  14.749 -0.0625 -0.1171 -0.0567
 6858W        W23119   9.659   7.936  14.083 -0.0592 -0.1478  0.1008
 6859W        W23120   4.561  10.414   0.778  0.0636 -0.3232  0.1578
 6860W        W23121   8.632   2.013  14.505  0.2967 -0.0359  0.0713
 6861W        W23122   9.447   0.475   0.614 -0.0054  0.0091  0.1010
 6862W        W23123  15.447  13.836  11.671  0.2708 -0.0568  0.0640
 6863W        W23124  16.400   0.470  11.373 -0.0666  0.0533 -0.3482
 6864W        W23125  12.940  17.010  12.158  0.0105 -0.3111  0.0127
 6865W        W23126   9.653  16.195   4.846 -0.0508 -0.0373 -0.0198
 6866W        W23127  11.112  13.160  14.705 -0.0836  0.4593 -0.1783
 6867W        W23128   2.398  12.914  15.601  0.3710 -0.2216 -0.1164
 6868W        W23129  17.744   7.145  14.256 -0.0348  0.3426 -0.1423
 6869W        W23130  13.699   7.758   4.206 -0.1475 -0.1643 -0.2403
 6870W        W23131   8.140   1.396   3.058 -0.0396 -0.5039  0.1613
 6871W        W23132   3.081  17.731  15.683  0.0822  0.0911  0.2122
 6872W        W23133  10.955   2.680   1.688 -0.2966  0.1454 -0.1622
 6873W        W23134  13.243   3.355  15.285 -0.0790  0.1799 -0.2395
 6874W        W23135   4.071   0.018   0.246  0.1388 -0.0212  0.3021
 6875W        W23136  12.914   3.216   2.273 -0.1860 -0.0407  0.0632
 6876W        W23137  14.813   6.467   4.311  0.0913  0.0069 -0.2015
 6877W        W23138  15.462   5.256   2.233 -0.0746 -0.3152 -0.3145
 6878W        W23139   0.830   1.954  12.507  0.2211  0.2647  0.1888
 6879W        W23140   5.491   7.870   2.329  0.0044  0.1688 -0.0716
 6880W        W23141  10.711   9.419  13.823  0.0185  0.4646  0.1614
 6881W        W23142   7.368  12.780   0.267 -0.4177  0.0864  0.2174
 6882W        W23143  14.635  18.374   0.512  0.2701 -0.1180  0.0804
 6883W        W23144  17.263   6.400  12.591 -0.2243  0.0268 -0.0290
 6884W        W23145  16.427   9.834   1.356 -0.0331 -0.2313  0.0489
 6885W        W23146  15.188   4.879  15.151  0.0303  0.2985  0.1004
 6886W        W23147   7.157   3.654   2.634 -0.3377  0.1130 -0.2866
 6887W        W23148  10.164  11.717   3.663 -0.3626 -0.0224 -0.2089
 6888W        W23149  12.515   4.522  10.465 -0.2722  0.0466 -0.0780
 6889W        W23150  17.306   3.606   2.453 -0.1417 -0.0547 -0.0407
 6890W        W23151   8.606   2.125   0.990 -0.1259 -0.1715 -0.2289
 6891W        W23152   8.874  16.370   2.702 -0.0246  0.0330 -0.0678
 6892W        W23153   0.671   4.991   4.587 -0.1665  0.0050  0.1227
 6893W        W23154   9.743   7.248   1.906 -0.0584 -0.3026 -0.0362
 6894W        W23155   2.457   7.021   0.674  0.3969 -0.0399  0.0651
 6895W        W23156  17.255   3.685   4.327 -0.0564 -0.2855  0.0881
 6896W        W23157   2.594  15.166   0.025  0.2030 -0.0255 -0.1518
 6897W        W23158   0.389  18.210   0.381  0.0307  0.1284 -0.0055
 6898W        W23159  12.730  16.385  12.830  0.1464 -0.0038 -0.1039
 6899W        W23160   1.778   0.256  13.725 -0.0728  0.1660  0.0490
 6900W        W23161   0.233   4.224  12.927  0.0469 -0.0886  0.0701
 6901W        W23162   0.726  14.365  12.783  0.0752 -0.1486 -0.1798
 6902W        W23163  17.779   2.858  12.986 -0.2802  0.3518  0.1861
 6903W        W23164   7.617   2.924   3.012  0.1719 -0.2240 -0.1791
 6904W        W23165   3.496   9.201   1.173 -0.0851 -0.2522  0.0342
 6905W        W23166  17.173   7.095  15.302  0.0941 -0.2045  0.1515
 6906W        W23167   6.598  10.742   6.088  0.1411 -0.1061  0.1638
 6907W        W23168   0.386   2.737  11.470  0.0702 -0.3635  0.1593
 6908W        W23169   2.152   4.549   2.779 -0.2175  0.1230 -0.0834
 6909W        W23170   8.257  14.492   2.929 -0.0438  0.1481  0.2652
 6910W        W23171   9.553   3.217  14.714  0.2398  0.0310 -0.1552
 6911W        W23172   3.911   4.586   3.973  0.1137 -0.0922  0.0620
 6912W        W23173   9.511   7.546   0.465 -0.2789  0.2228  0.0670
 6913W        W23174  10.167  16.827  13.962  0.0758 -0.0197 -0.2243
 6914W        W23175  11.806   2.207   1.415 -0.1562 -0.1801  0.2037
 6915W        W23176   9.110  12.975  15.843 -0.1420  0.1866  0.0117
 6916W        W23177  14.122  13.357  12.838 -0.1581  0.1978  0.3912
 6917W        W23178   1.750  16.391   4.433  0.1487  0.4070 -0.2345
 6918W        W23179   7.500   9.028   1.112 -0.0047  0.3171 -0.2567
 6919W        W23180  13.073   3.786   3.161 -0.1324 -0.0557 -0.2284
 6920W        W23181   8.810  13.499   3.171 -0.0930  0.3426 -0.1154
 6921W        W23182   8.920  18.023   3.533  0.0497 -0.0325  0.2068
 6922W        W23183   4.642   0.264  12.862 -0.2877 -0.0149 -0.0819
 6923W        W23184   2.259  14.466  14.516  0.1537  0.1444  0.1589
 6924W        W23185   0.180   3.011   4.957  0.2260  0.2186 -0.0156
 6925W        W23186  18.004   6.365   5.373 -0.1097 -0.0911 -0.2251
 6926W        W23187  15.443   4.175  13.852 -0.1748  0.1218  0.0242
 6927W        W23188   0.169   3.773  12.755 -0.2108 -0.1223  0.1624
 6928W        W23189  15.115  15.207  10.999  0.1421 -0.0156  0.0120
 6929W        W23190  15.542  14.986   2.088 -0.1704 -0.0687 -0.1459
 6930W        W23191  12.672   0.240   3.711  0.1392  0.1586 -0.1159
 6931W        W23192  14.281  16.119   1.379  0.0167  0.0305 -0.0857
 6932W        W23193   2.520   9.735  14.252 -0.1748  0.1142 -0.2609
 6933W        W23194  13.775  10.721   2.609  0.0610 -0.1097  0.0532
 6934W        W23195   1.887   9.521   2.533 -0.1617 -0.1892 -0.3362
 6935W        W23196   3.482   8.681   1.943  0.2815 -0.0131  0.1442
 6936W        W23197   0.800   9.359   5.364 -0.0175 -0.1392 -0.0714
 6937W        W23198  16.232  16.642  11.338  0.1411 -0.0173  0.4459
 6938W        W23199  10.917  11.747   2.207  0.0101  0.0574  0.3482
 6939W        W23200  12.046  18.356  15.244 -0.0499 -0.1467  0.1942
 6940W        W23201  13.950  15.784   4.177  0.2269 -0.1080  0.1305
 6941W        W23202   5.110  11.457   4.684 -0.0778 -0.0998 -0.3065
 6942W        W23203  15.049  18.164   1.477  0.1284  0.0642 -0.3063
 6943W        W23204   7.108   9.169   1.466  0.4631 -0.1149  0.1686
 6944W        W23205   7.847  14.221   3.190 -0.0698  0.2047  0.1745
 6945W        W23206   3.160   4.599   4.796 -0.1163  0.0436  0.5096
 6946W        W23207  10.825   8.169  12.211 -0.1452 -0.2221  0.0170
 6947W        W23208   1.043   7.414   4.772 -0.0416 -0.3006  0.1224
 6948W        W23209   8.593   5.664   2.287 -0.0142  0.1635 -0.2268
 6949W        W23210   8.557   3.428   1.745  0.1329  0.5560 -0.3015
 6950W        W23211   7.506   0.364  12.564 -0.2062  0.2589 -0.0882
 6951W        W23212  17.617  10.026  13.440 -0.0639  0.3155  0.1567
 6952W        W23213  14.299   4.259   1.910 -0.1379  0.0414 -0.0286
 6953W        W23214  14.067  11.003   4.461  0.5374 -0.0534 -0.3611
 6954W        W23215   5.657   9.057  15.929 -0.2685 -0.0878 -0.0889
 6955W        W23216  17.427   2.003   0.836  0.3474  0.1195  0.0454
 6956W        W23217  17.546  17.826  12.702  0.0445 -0.3821 -0.0094
 6957W        W23218   6.567  11.056  14.100  0.0679 -0.0528 -0.0445
 6958W        W23219   4.708   8.028   3.774  0.2794  0.1280 -0.3683
 6959W        W23220   4.472   8.255   3.376 -0.2031 -0.1447 -0.1798
 6960W        W23221  12.358  10.514   1.180 -0.0863  0.2238 -0.3800
 6961W        W23222   5.394  17.727  14.621  0.1903 -0.0809 -0.1948
 6962W        W23223  14.524   6.984   2.440  0.2750  0.3092 -0.0562
 6963W        W23224   6.101   8.345   1.896  0.4380  0.1144 -0.0394
 6964W        W23225   3.201   0.681   2.388  0.0273  0.0511 -0.3656
 6965W        W23226  13.861   7.964   4.649  0.2707  0.3152  0.0429
 6966W        W23227  12.210  12.322   4.112 -0.3036 -0.2421 -0.1335
 6967W        W23228   2.857   2.001   5.020  0.1828 -0.2852  0.3574
 6968W        W23229   7.490  17.974  13.377 -0.0508  0.1288 -0.0503
 6969W        W23230   1.314   1.543   2.761 -0.5134 -0.3909  0.1210
 6970W        W23231   1.718  17.028  16.165 -0.2828 -0.0687  0.2016
 6971W        W23232   5.826  18.152   3.640  0.2357  0.1053 -0.2352
 6972W        W23233   9.879  17.328  12.362 -0.0002 -0.2619  0.0895
 6973W        W23234  18.352   7.943  13.910  0.2530  0.0881 -0.1747
 6974W        W23235   8.077  14.115  15.217 -0.2842 -0.0410 -0.0398
 6975W        W23236  12.481  10.677  15.646  0.0947 -0.0724  0.6553
 6976W        W23237  14.436  18.211  16.122  0.0610 -0.0566 -0.0994
 6977W        W23238   9.152   6.703  12.793  0.0669  0.0025  0.0446
 6978W        W23239   5.174   6.745   3.071 -0.2393 -0.0458 -0.1484
 6979W        W23240   6.644  15.324  12.708  0.0303  0.1761 -0.1069
 6980W        W23241   9.868   8.740  13.666 -0.0729 -0.0473 -0.1739
 6981W        W23242   6.120  10.959  15.383  0.3034  0.2828  0.0585
 6982W        W23243  13.366  13.967   1.112 -0.0662 -0.6264  0.0259
 6983W        W23244   3.210   1.579   1.143 -0.3712 -0.2166  0.0472
 6984W        W23245   6.298  14.249  11.645  0.0151 -0.0674 -0.0473
 6985W        W23246   0.462  13.663   3.949  0.1694  0.2272 -0.1383
 6986W        W23247   4.725  11.051  16.048 -0.3792  0.1738  0.2750
 6987W        W23248  10.926  10.160   1.240  0.1969 -0.0154 -0.0621
 6988W        W23249   1.295   3.858  13.379  0.0812 -0.0700 -0.0098
 6989W        W23250   2.758   9.687   0.846 -0.1220 -0.0127 -0.1267
 6990W        W23251   8.491   9.035  13.828  0.0319  0.0287  0.1729
 6991W        W23252   5.257   6.475   4.504  0.2825 -0.3705  0.1145
 6992W        W23253   6.320   5.373  13.308  0.1172  0.1779  0.4500
 6993W        W23254  14.177   6.326  12.582 -0.0630 -0.3005  0.2081
 6994W        W23255   5.702  17.493   4.756 -0.0657 -0.1153 -0.2152
 6995W        W23256   2.582   8.855   1.146  0.2568 -0.0199  0.1408
 6996W        W23257   3.666  13.729  12.927 -0.3514  0.0147  0.1949
 6997W        W23258  14.807  10.804  15.548 -0.2349 -0.0832  0.1933
 6998W        W23259  18.053   8.399   0.101 -0.1069  0.0539 -0.2497
 6999W        W23260  14.299   9.435  15.204 -0.1518 -0.1880 -0.0735
 7000W        W23261  16.187   2.903  13.840 -0.0303  0.0041 -0.0420
 7001W        W23262  11.096  12.520   2.657 -0.0530 -0.0090  0.2238
 7002W        W23263  11.946  16.403  15.490  0.0676 -0.3051  0.1697
 7003W        W23264  10.935  10.157  14.270 -0.0374  0.1636 -0.3222
 7004W        W23265  14.486  13.850   1.366 -0.3346  0.0913  0.1346
 7005W        W23266  11.998  17.155  11.991 -0.2980 -0.0459  0.1603
 7006W        W23267   0.667  16.397  13.791 -0.0021 -0.3052  0.1589
 7007W        W23268   2.961  14.662  12.836 -0.0998 -0.1886 -0.1537
 7008W        W23269  11.253  16.227   0.998  0.3671 -0.1676 -0.2889
 7009W        W23270   2.827  14.364   1.407  0.1912 -0.1706 -0.1946
 7010W        W23271   7.070   6.346  12.656  0.0663 -0.0880  0.0517
 7011W        W23272   4.010   0.079  11.583  0.2303 -0.2149 -0.0170
 7012W        W23273  15.082   5.996   4.549 -0.1259 -0.1587  0.0920
 7013W        W23274   6.972  13.674   1.910  0.2425 -0.4267 -0.0030
 7014W        W23275   6.600  12.128   5.058  0.0765  0.1190 -0.4105
 7015W        W23276   2.777  16.324  11.397 -0.3005  0.0627  0.1486
 7016W        W23277   8.967  10.209   4.932 -0.2237  0.1931  0.1164
 7017W        W23278  11.586  16.625  15.971  0.0623  0.1901 -0.2894
 7018W        W23279   9.513  10.540  11.452  0.1303 -0.0615  0.1061
 7019W        W23280  10.788  16.390   3.775 -0.0577 -0.1771 -0.2732
 7020W        W23281   0.271   1.520  15.423 -0.0426 -0.3700  0.0919
 7021W        W23282   7.061   8.356  14.388  0.1351  0.0851 -0.1119
 7022W        W23283  18.212   0.615   2.777  0.1446  0.2713 -0.0593
 7023W        W23284   2.786   7.938   5.280 -0.0187  0.1192 -0.0077
 7024W        W23285   3.348  12.676  15.763 -0.0696  0.3263 -0.2890
 7025W        W23286  17.314   9.818   0.669  0.0066 -0.2254  0.2807
 7026W        W23287   4.107   4.261   3.211 -0.1086  0.0890  0.3251
 7027W        W23288  15.356   6.958  12.874 -0.1291  0.0151  0.0813
 7028W        W23289  12.671   5.362   5.116  0.1252 -0.0419 -0.0670
 7029W        W23290  14.700   7.799   4.292 -0.2225  0.2610 -0.0762
 7030W        W23291  10.174  11.913   1.225 -0.1335 -0.3175  0.0373
 7031W        W23292   7.347  17.552   0.498 -0.1806  0.3082  0.3031
 7032W        W23293   9.257   2.659   5.093 -0.0312 -0.0789 -0.2069
 7033W        W23294   3.177   9.045  12.177 -0.0899  0.1329 -0.1517
 7034W        W23295  17.182  11.533   3.800 -0.1418 -0.1779 -0.2320
 7035W        W23296   4.545   8.535  12.081 -0.3045  0.1164 -0.0272
 7036W        W23297   6.158  14.687  11.947 -0.3100 -0.1868 -0.0019
 7037W        W23298   4.231   8.044   1.824 -0.1093 -0.3005  0.3135
 7038W        W23299  13.691  16.961   5.196  0.3287  0.0445 -0.1689
 7039W        W23300  17.132  16.509   4.533  0.1883  0.2492 -0.4327
 7040W        W23301   0.087   8.400  13.029 -0.1912  0.0212 -0.1300
 7041W        W23302  10.104   6.511   4.755  0.0867 -0.1847 -0.1186
 7042W        W23303  13.964  17.272   3.267 -0.0224 -0.1337  0.1050
 7043W        W23304  18.283   2.377   1.345  0.1926  0.1408 -0.2664
 7044W        W23305  16.937  12.880   0.938  0.0838  0.2097  0.2257
 7045W        W23306   0.994   1.701   4.781 -0.3933 -0.1464  0.1576
 7046W        W23307   3.549   5.052   4.644 -0.1346 -0.1688  0.2747
 7047W        W23308   8.145   8.150   0.265 -0.1908 -0.1759  0.0576
 7048W        W23309  15.116   5.761   5.034  0.1214  0.0162 -0.3038
 7049W        W23310   2.784   4.695   4.009  0.0323  0.3161  0.2574
 7050W        W23311  11.698   0.180   2.128 -0.1414  0.0851  0.1429
 7051W        W23312  13.994  17.439  12.577 -0.0966  0.2226 -0.2633
 7052W        W23313  12.110  16.534   4.747 -0.0195  0.0500 -0.1053
 7053W        W23314   5.863  13.060   3.923 -0.2771 -0.2901 -0.0822
 7054W        W23315   5.241   5.204   5.051 -0.0127  0.0216 -0.1747
 7055W        W23316   5.379   6.817  15.532  0.4490  0.0997 -0.2255
 7056W        W23317   1.094  11.361   4.147 -0.0773 -0.2302  0.1133
 7057W        W23318   9.662  15.128  13.199 -0.2196 -0.1211  0.1832
 7058W        W23319  12.684   1.951  12.218 -0.2512  0.0639  0.0678
 7059W        W23320   7.054  15.799   0.469  0.0388 -0.3021  0.0541
 7060W        W23321  11.618   2.168  15.301  0.0416 -0.0114 -0.0113
 7061W        W23322  13.768  10.082   2.913 -0.0663  0.0226 -0.1257
 7062W        W23323   3.153  16.370   0.632  0.1329  0.0295 -0.4725
 7063W        W23324  17.952   2.308  15.603  0.0091 -0.1632  0.4718
 7064W        W23325   7.606  12.466  13.873 -0.0379 -0.2391 -0.1049
 7065W        W23326   6.042   8.545   0.483  0.1710  0.0371 -0.2013
 7066W        W23327   1.115  12.083  12.174  0.2843  0.2474  0.0029
 7067W        W23328  12.059  16.821  10.667  0.0230 -0.0326  0.1441
 7068W        W23329   9.530  17.168  12.869  0.0813  0.1929 -0.0554
 7069W        W23330   2.113  18.419   3.111 -0.1395  0.3092 -0.0021
 7070W        W23331  12.309  12.165   3.681 -0.2654  0.0071  0.2835
 7071W        W23332   7.002   1.775  15.503 -0.1637 -0.0609 -0.0532
 7072W        W23333   2.645  13.587   5.466 -0.1126  0.2856 -0.1266
 7073W        W23334   5.827  16.026   2.828  0.0915 -0.0968  0.0902
 7074W        W23335   9.522   7.039   3.230 -0.1084  0.1585 -0.1458
 7075W        W23336   8.613   6.386  13.049  0.0478  0.1241  0.0954
 7076W        W23337  17.379   0.337   3.210  0.1043 -0.0794  0.0105
 7077W        W23338   0.177   9.457  11.679  0.0454 -0.2090 -0.0924
 7078W        W23339   3.606   4.583   3.173  0.0028  0.2054  0.1845
 7079W        W23340  13.909  16.423   3.156  0.0831  0.1759  0.1666
 7080W        W23341   4.592   1.717  16.157  0.1435  0.4004 -0.3552
 7081W        W23342  12.824  10.835   4.606 -0.1800  0.0510 -0.1191
 7082W        W23343  16.604   9.269   1.422 -0.2631  0.0939 -0.0613
 7083W        W23344  13.794   5.618   3.570  0.0165  0.2624 -0.0967
 7084W        W23345   5.080  15.730   0.865 -0.2970 -0.2275  0.0050
 7085W        W23346  16.842  11.253  13.193 -0.4458 -0.1164 -0.3323
 7086W        W23347  14.354  14.365  15.682  0.2834  0.0367 -0.1396
 7087W        W23348  10.695   4.518   1.886 -0.2750  0.2141 -0.0864
 7088W        W23349   4.195   3.041   4.284 -0.0116 -0.1502  0.3228
 7089W        W23350   8.028  18.442   5.209  0.0996 -0.4724 -0.1154
 7090W        W23351  10.173   3.241   0.015 -0.3032 -0.2555  0.1471
 7091W        W23352  17.379  14.745   4.210 -0.1689  0.0129  0.0216
 7092W        W23353   4.113   2.627  14.967 -0.1780 -0.3355 -0.1282
 7093W        W23354   7.148   2.106  12.711 -0.4235  0.2456  0.0342
 7094W        W23355  15.312  17.229  15.933 -0.0275  0.0799  0.0314
 7095W        W23356   4.034  15.228   3.595 -0.1269  0.3461  0.1095
 7096W        W23357  16.385  14.004   0.581 -0.1310 -0.2120 -0.1089
 7097W        W23358   9.572  15.110   0.411  0.1385 -0.0775 -0.1294
 7098W        W23359   0.017   4.400  13.877 -0.1071  0.0177  0.1329
 7099W        W23360  12.639  14.403   2.736 -0.0609  0.1226  0.2094
 7100W        W23361   5.303   7.388  13.705  0.0233  0.2559  0.0047
 7101W        W23362  17.901   8.950  13.299  0.0341 -0.3978 -0.0284
 7102W        W23363  11.322  10.259   0.421 -0.0194 -0.2182 -0.0680
 7103W        W23364  15.759   9.901  14.783 -0.2234  0.2069  0.0023
 7104W        W23365   9.114   8.898  12.200 -0.0840  0.1018  0.2957
 7105W        W23366   3.230  14.620   5.253  0.3244  0.2205 -0.2038
 7106W        W23367  14.472   4.974  10.844 -0.0522  0.4693  0.3694
 7107W        W23368  15.731   7.563   1.502 -0.1852 -0.1430 -0.1343
 7108W        W23369  12.058  14.382  10.365 -0.0313  0.1082  0.1925
 7109W        W23370  15.568  12.096  12.378 -0.2669 -0.2230  0.1537
 7110W        W23371  15.431  15.331  11.830  0.0327  0.1742 -0.0446
 7111W        W23372  14.168   1.363  13.257  0.1833 -0.2352 -0.0169
 7112W        W23373   3.623  11.840   0.194 -0.3182 -0.2307 -0.0502
 7113W        W23374  18.090  10.841   4.201 -0.5491 -0.0788  0.2170
 7114W        W23375  17.972  13.944   3.881  0.0458  0.0675 -0.0494
 7115W        W23376  17.207  13.526  13.033 -0.1592  0.1184  0.1365
 7116W        W23377  14.839   7.774  15.261 -0.2501  0.0838 -0.2804
 7117W        W23378  14.064  11.229   3.582  0.0367  0.0532  0.1117
 7118W        W23379  11.146   2.522  15.620  0.1061  0.2068 -0.0891
 7119W        W23380  18.278  18.444  13.266 -0.2120  0.0758 -0.0594
 7120W        W23381   8.530   7.959   5.778  0.0338  0.0558 -0.0350
 7121W        W23382   9.958  13.407  15.198 -0.2731  0.2648 -0.1027
 7122W        W23383   4.075   1.681  14.814  0.1566 -0.0317 -0.1754
 7123W        W23384   1.218  14.005  16.118  0.0117  0.0503 -0.0981
 7124W        W23385  10.636  11.156  15.810  0.1275  0.1414  0.1666
 7125W        W23386  10.147   6.557  11.269  0.3479 -0.0274  0.1026
 7126W        W23387   3.389   8.473   5.326  0.1200  0.0692 -0.0819
 7127W        W23388  10.235  13.932  14.335  0.2911  0.1483 -0.0466
 7128W        W23389   9.487  11.087   4.374  0.3655  0.2364 -0.1159
 7129W        W23390  13.709  14.062   0.704  0.1337 -0.1561 -0.0693
 7130W        W23391   5.408  11.152   2.363  0.3964 -0.1432  0.1326
 7131W        W23392   8.206   0.237  15.142  0.1520  0.2838  0.1131
 7132W        W23393   7.181   7.158   1.930 -0.3013 -0.3789 -0.2995
 7133W        W23394   9.515   2.552   5.567  0.3223  0.1384 -0.5996
 7134W        W23395   5.341   6.419   3.573  0.1513  0.0220 -0.0751
 7135W        W23396   1.952   5.852   4.792  0.1537 -0.4105 -0.3357
 7136W        W23397  14.840   5.245  15.119 -0.2128 -0.2430  0.1942
 7137W        W23398   4.632  10.864   2.376  0.0339  0.1329 -0.0117
 7138W        W23399   7.250  14.525  13.983 -0.1105 -0.0614  0.2290
 7139W        W23400  15.121  15.393  16.066  0.0824  0.0101  0.2443
 7140W        W23401   7.824   6.303  15.589  0.0738 -0.2244 -0.0565
 7141W        W23402  15.819   3.289  12.441 -0.4457  0.0449 -0.1143
 7142W        W23403  13.836  16.020   2.789 -0.0383 -0.0977  0.3518
 7143W        W23404   7.756   4.465  14.223  0.2937 -0.4711  0.0389
 7144W        W23405  10.135   2.078   4.676 -0.2471  0.0146  0.2296
 7145W        W23406   8.492  14.843  14.083 -0.3740  0.1354  0.3764
 7146W        W23407   4.409   6.165   4.040 -0.0797 -0.3361 -0.3233
 7147W        W23408   9.272  17.450  14.210  0.2881 -0.0000 -0.1664
 7148W        W23409  13.279   8.654  13.901  0.1265 -0.3785 -0.1199
 7149W        W23410   2.107   9.683   0.288  0.1179  0.1147  0.0486
 7150W        W23411  15.481   9.783   3.894  0.0454  0.2640 -0.1196
 7151W        W23412   4.148   3.986  16.086  0.0406  0.1985 -0.0282
 7152W        W23413  13.478  16.847   1.629 -0.1995 -0.0023 -0.2720
 7153W        W23414   4.590  10.317  15.434 -0.0285 -0.2388  0.3234
 7154W        W23415   5.182   9.536   5.680 -0.1764  0.0913 -0.0908
 7155W        W23416  16.893   2.404  13.405  0.2329 -0.1143 -0.3368
 7156W        W23417   4.403  11.286   3.105 -0.1116 -0.0884  0.1093
 7157W        W23418  13.046  11.315   0.398  0.1109 -0.1509  0.2795
 7158W        W23419  18.327   3.042   5.490  0.3612  0.0496 -0.0544
 7159W        W23420   3.409  14.505  12.935  0.2728 -0.0479 -0.1807
 7160W        W23421   6.852  13.460  13.150 -0.1391  0.1687 -0.1879
 7161W        W23422   6.834   8.497  13.407  0.0532 -0.0039 -0.1484
 7162W        W23423  11.552  10.081   3.488  0.0423 -0.2103  0.1305
 7163W        W23424   3.109  17.166   3.400 -0.1886  0.1370 -0.0842
 7164W        W23425   0.917  17.801  15.370 -0.1737 -0.2601 -0.0549
 7165W        W23426   0.510  17.331   0.187  0.1283  0.4715 -0.1114
 7166W        W23427  10.395  16.111   5.531 -0.0989 -0.3167 -0.1171
 7167W        W23428  10.268   9.333   0.026  0.0790  0.1060  0.3152
 7168W        W23429  11.082   7.004   4.616  0.2970 -0.0993 -0.0667
 7169W        W23430   9.104  16.595   1.357 -0.0141 -0.1492 -0.1757
 7170W        W23431   1.303   2.975   2.008  0.1772  0.5633 -0.2528
 7171W        W23432  11.944   2.136   4.952  0.0907 -0.2542  0.0668
 7172W        W23433  13.314  11.518   0.823 -0.2329 -0.1614  0.1295
 7173W        W23434   3.811   3.201   1.664 -0.0800  0.1244  0.0768
 7174W        W23435  15.413  18.113   4.401 -0.0063  0.1499 -0.1028
 7175W        W23436  12.207   4.659   5.462 -0.2719 -0.0543  0.1145
 7176W        W23437  14.823  13.934  14.267  0.2678  0.5244  0.0599
 7177W        W23438  11.800   6.400   1.893 -0.0234  0.0104  0.1962
 7178W        W23439   3.455   2.713  15.942  0.0627  0.2905  0.1253
 7179W        W23440   8.001   5.055   4.410  0.0089  0.0143 -0.0296
 7180W        W23441  13.489  10.805   2.242  0.1344 -0.2378  0.0565
 7181W        W23442  17.876  18.206   3.184 -0.3225 -0.0626  0.2465
 7182W        W23443  13.601  14.858   3.610  0.1863 -0.3731 -0.0906
 7183W        W23444   1.416  13.045   1.249  0.1318 -0.1927  0.3244
 7184W        W23445   7.122  17.323  14.903 -0.1131 -0.1781  0.1116
 7185W        W23446  15.310  16.222   1.868  0.1040  0.2333 -0.1088
 7186W        W23447   0.740  12.247   1.058  0.2127 -0.2457  0.0860
 7187W        W23448   6.905   9.189  13.022 -0.0740  0.0703  0.1338
 7188W        W23449   4.401   0.620   4.417  0.4849  0.1130 -0.0142
 7189W        W23450   6.070  13.722   2.865 -0.0468  0.1888 -0.0091
 7190W        W23451  15.472   9.087   5.364  0.0175 -0.0271 -0.0167
 7191W        W23452   7.598   9.724  11.865  0.0172  0.2279 -0.3158
 7192W        W23453   1.881   6.933  12.262  0.1217  0.2277  0.0909
 7193W        W23454  11.384  10.807  15.462  0.1508 -0.3152 -0.0922
 7194W        W23455   3.692   4.990   2.813 -0.0014 -0.0321 -0.3381
 7195W        W23456  15.876  18.009   4.283  0.1929 -0.0920 -0.1612
 7196W        W23457  16.560  17.004   1.854 -0.0604  0.0901  0.0443
 7197W        W23458  14.719  12.444   3.425 -0.1020  0.1169 -0.2037
 7198W        W23459   7.603  13.750  15.986 -0.1407  0.0980 -0.3491
 7199W        W23460  12.345  11.661   0.353  0.2230 -0.1168 -0.1123
 7200W        W23461  12.120   3.042  13.485  0.2659 -0.2696 -0.0967
 7201W        W23462   3.095   9.098   0.875  0.0140 -0.2049 -0.1271
 7202W        W23463   4.572  14.927   2.008 -0.0046 -0.2184 -0.2628
 7203W        W23464  17.009   5.726  14.451  0.0062 -0.0744  0.1795
 7204W        W23465   9.609  16.627   3.091 -0.0437 -0.0659 -0.2601
 7205W        W23466  12.761  15.352   4.657  0.2320  0.0470 -0.1392
 7206W        W23467   7.259  17.796   0.913  0.1475  0.1692  0.1204
 7207W        W23468   4.709  12.231   0.891  0.1365  0.3117  0.1350
 7208W        W23469  10.656  11.765  15.944  0.1058 -0.3211 -0.3383
 7209W        W23470  14.224   5.853   3.827 -0.2787  0.3135 -0.0479
 7210W        W23471  11.997  16.976  11.418  0.0703  0.0440 -0.1058
 7211W        W23472  18.463  17.195  11.679  0.1160 -0.3086  0.1939
 7212W        W23473  11.180  10.923   2.779  0.0132 -0.1845 -0.0579
 7213W        W23474  13.678   3.689  15.740 -0.1585 -0.0775  0.0102
 7214W        W23475  16.412  15.428  11.909 -0.0904  0.0687  0.2560
 7215W        W23476   2.335   6.894   3.121 -0.0719  0.1849 -0.0314
 7216W        W23477  11.698   7.720   5.178 -0.1073  0.1075  0.1421
 7217W        W23478   7.931   8.847   0.824  0.1845  0.2381 -0.0575
 7218W        W23479  16.666   1.196  14.158 -0.0713 -0.0839  0.0402
 7219W        W23480   8.398  11.802  15.731 -0.0309 -0.0057  0.1562
 7220W        W23481   5.885  16.112  12.353 -0.1939 -0.1175  0.0116
 7221W        W23482   1.296   9.743  11.350 -0.0190  0.1918 -0.1331
 7222W        W23483   1.716  11.919  16.151  0.0116  0.2234  0.2824
 7223W        W23484   1.868   9.653  13.711 -0.0526 -0.1673 -0.0831
 7224W        W23485  16.723  16.553   5.415 -0.0062 -0.2825  0.2613
 7225W        W23486   7.576  12.900   3.719  0.0488 -0.0152 -0.1469
 7226W        W23487   6.919  11.951  16.174 -0.1808  0.0982 -0.3205
 7227W        W23488   3.351  11.580   2.747  0.2155  0.0523 -0.1560
 7228W        W23489   1.509  10.077   1.182 -0.1936  0.0125  0.0167
 7229W        W23490   0.476  18.475   1.913  0.0385  0.2939  0.0139
 7230W        W23491  13.141   0.256   3.621  0.1826  0.0974 -0.2502
 7231W        W23492   2.923   0.374  14.729  0.0883 -0.0340 -0.0550
 7232W        W23493  16.558   8.798   1.182 -0.1744 -0.0061  0.3839
 7233W        W23494   0.435   8.808  13.803  0.0759 -0.2499  0.2809
 7234W        W23495   0.407  12.239   5.358 -0.2305 -0.0162 -0.1274
 7235W        W23496  15.012   4.852  10.199  0.0842 -0.0523  0.1988
 7236W        W23497  11.503   6.257  14.574  0.1561  0.0469  0.1369
 7237W        W23498   2.704  10.754   3.657 -0.2281  0.0669 -0.0622
 7238W        W23499  14.247  15.507  14.627  0.1416  0.0379 -0.1927
 7239W        W23500  18.078   1.415  11.643  0.1512 -0.0589 -0.2416
 7240W        W23501   9.533   5.175  14.959  0.4405  0.2170 -0.2055
 7241W        W23502   9.820   0.876   3.981  0.0519 -0.0777 -0.2356
 7242W        W23503   4.953   5.472  15.483  0.1865 -0.0314 -0.3675
 7243W        W23504   4.257   3.040  14.599  0.1114 -0.0002 -0.1231
 7244W        W23505   6.212   6.523  12.311 -0.2387  0.0407 -0.0930
 7245W        W23506  12.740  15.756  12.999  0.0959  0.2066 -0.1405
 7246W        W23507  15.359   3.907   1.829  0.2983  0.0789  0.1747
 7247W        W23508   7.614  14.263  11.919  0.1481  0.0038  0.0903
 7248W        W23509  16.573  17.967   5.007 -0.0796 -0.1725  0.3380
 7249W        W23510  11.795  13.959  15.053 -0.2609  0.3354 -0.0418
 7250W        W23511   2.646   4.339  14.070  0.0208  0.4738  0.1371
 7251W        W23512  18.316  17.136  14.483  0.0919 -0.0973 -0.2712
 7252W        W23513   4.109  17.214   0.705 -0.0508  0.4275 -0.0510
 7253W        W23514   4.462   0.808  13.617  0.0161 -0.4163 -0.1951
 7254W        W23515   7.355  16.025   4.242  0.0124  0.2036  0.2113
 7255W        W23516   9.584   7.537  12.540 -0.2697  0.1566 -0.0305
 7256W        W23517   2.978   2.143  13.787 -0.1537  0.1525  0.2351
 7257W        W23518  14.323   5.687   2.795  0.5435  0.0632  0.0746
 7258W        W23519  14.704   6.064   5.107 -0.1156 -0.0153  0.1957
 7259W        W23520   2.177  18.076   3.969 -0.0666 -0.1642  0.3786
 7260W        W23521  11.330  16.132  13.549  0.0463  0.0192  0.2147
 7261W        W23522   9.328   1.899   0.270 -0.1260  0.3655 -0.0657
 7262W        W23523  15.409   5.735   0.251 -0.0118 -0.0673  0.1096
 7263W        W23524  12.822   8.499   2.297 -0.1138  0.0011 -0.0123
 7264W        W23525  10.012   0.984   4.806  0.1849 -0.1042  0.1473
 7265W        W23526  16.388   9.904  13.444  0.1302 -0.2330  0.2309
 7266W        W23527   1.530  17.869   2.594 -0.1371  0.1368 -0.2479
 7267W        W23528   3.374   1.857  11.597  0.3401 -0.0180  0.0281
 7268W        W23529  15.274   2.444  11.160 -0.0750 -0.0699  0.1368
 7269W        W23530   2.311  16.989   4.070 -0.0636  0.3599  0.0101
 7270W        W23531   7.446  15.005  11.665  0.0953 -0.2324 -0.0008
 7271W        W23532   8.683   8.678   1.582 -0.0013  0.1554 -0.2547
 7272W        W23533  14.120  13.918  12.831  0.1429 -0.0040  0.0269
 7273W        W23534   7.222  15.155   3.576  0.1083 -0.0991 -0.1175
 7274W        W23535  14.027  18.050   0.227  0.1976 -0.4390  0.0497
 7275W        W23536   3.090   4.214   5.209  0.0436 -0.0742  0.1660
 7276W        W23537   1.711   1.668   0.309 -0.0610  0.3051 -0.1492
 7277W        W23538   7.414   7.334  14.681 -0.1135 -0.0626 -0.1081
 7278W        W23539   3.595  16.315   0.435  0.1258  0.1826 -0.0041
 7279W        W23540  16.807   0.728   3.039 -0.0988 -0.0895  0.0819
 7280W        W23541  17.800  13.686  13.969 -0.1788 -0.3964 -0.3548
 7281W        W23542  15.735   8.549   0.937 -0.1193 -0.0378 -0.2790
 7282W        W23543  11.241  17.900  14.970  0.1578 -0.3778 -0.1145
 7283W        W23544  10.615  11.907  13.887  0.0479 -0.0123  0.1004
 7284W        W23545  13.331   3.359   1.908  0.1098 -0.0237  0.5864
 7285W        W23546  16.614   2.199   5.914 -0.2724  0.1680  0.0701
 7286W        W23547  16.827  15.670  11.726  0.0419 -0.0540  0.0268
 7287W        W23548  11.207  10.922   4.041  0.1850 -0.0189  0.4359
 7288W        W23549   7.127   8.009  11.759 -0.2177  0.1647  0.2423
 7289W        W23550   0.806  15.585  13.453 -0.1713 -0.1589 -0.2973
 7290W        W23551   3.486  11.536   5.081  0.2030  0.0412 -0.1897
 7291W        W23552   6.862   6.719   5.505 -0.1287  0.1162 -0.1146
 7292W        W23553   0.340  10.483   1.550  0.2433  0.1078 -0.0922
 7293W        W23554   2.025   3.682   2.701 -0.1451 -0.0308  0.1017
 7294W        W23555   3.076   1.588  14.541  0.0271  0.1766  0.0054
 7295W        W23556  14.024  17.878  14.806  0.1540 -0.2964  0.2721
 7296W        W23557   3.249   6.330   2.923 -0.5099 -0.5846  0.3999
 7297W        W23558   0.405  11.435  10.206  0.0805 -0.0740  0.2353
 7298W        W23559  10.370   5.759  15.100  0.0837  0.0370 -0.0402
 7299W        W23560   5.312  13.371  14.339 -0.0318  0.2030  0.1331
 7300W        W23561   1.628  13.146  10.645  0.0269  0.0474 -0.1127
 7301W        W23562  13.716   7.051  16.078 -0.0808 -0.0357 -0.0728
 7302W        W23563  12.024  17.652   1.381 -0.0560  0.0468  0.0517
 7303W        W23564   6.098  13.012  12.233 -0.4684 -0.3063 -0.0732
 7304W        W23565  10.570   2.296   3.508  0.0373 -0.5397  0.2556
 7305W        W23566  14.151   3.409   4.127 -0.3599  0.2248  0.0958
 7306W        W23567   3.118   0.152  15.491  0.2002 -0.1223 -0.1030
 7307W        W23568   2.373  13.079  11.740  0.2242  0.1916  0.0997
 7308W        W23569   8.720   3.108  13.862 -0.1475  0.3209 -0.1711
 7309W        W23570   4.437   8.174   1.369 -0.4750  0.1591  0.3114
 7310W        W23571   4.171  11.921   2.996 -0.3437  0.4834  0.1274
 7311W        W23572   7.096   2.126   4.476 -0.0465  0.0165 -0.2183
 7312W        W23573   4.701  15.718  12.870  0.0333 -0.0101 -0.1177
 7313W        W23574  18.443   6.317  14.336  0.0633  0.0340 -0.0706
 7314W        W23575  12.599   0.847   4.924 -0.0338  0.0177 -0.2248
 7315W        W23576  12.326   5.771  12.818 -0.2677 -0.0030 -0.1168
 7316W        W23577  14.819  11.073   3.517  0.3366 -0.0996 -0.2277
 7317W        W23578   7.757   1.167   6.168 -0.0024 -0.0601 -0.0854
 7318W        W23579   7.236   1.151  11.395  0.1294  0.4165 -0.3234
 7319W        W23580   7.388   7.937   5.143  0.2691  0.0398 -0.0213
 7320W        W23581   9.320  14.271   4.832  0.1034  0.0759  0.2346
 7321W        W23582   8.620  14.867   0.446 -0.1355  0.3034 -0.2051
 7322W        W23583  17.962   7.777   4.238  0.2870  0.2560  0.2478
 7323W        W23584  13.420   5.898   3.998  0.0400 -0.0888 -0.0678
 7324W        W23585   3.187  10.029   4.432 -0.3572  0.4333  0.0081
 7325W        W23586   8.038  12.743   2.131  0.1664  0.1641  0.1104
 7326W        W23587  16.117  12.664  13.116 -0.1413 -0.2201 -0.3267
 7327W        W23588   1.273   0.818  13.767 -0.1673  0.1356 -0.0967
 7328W        W23589   0.672   3.485   4.573  0.1301 -0.2307 -0.2279
 7329W        W23590   3.578  17.898   0.756 -0.0368 -0.1547 -0.0075
 7330W        W23591  16.457   5.997   3.643  0.1254  0.1475  0.0145
 7331W        W23592  17.574  16.740   0.879  0.2341 -0.0934 -0.0582
 7332W        W23593  12.104   8.095   1.330  0.1288  0.1477 -0.3737
 7333W        W23594   1.188   9.167   3.134  0.0918 -0.2019  0.1942
 7334W        W23595  14.714  16.717   2.233 -0.2734  0.1371 -0.0584
 7335W        W23596   6.860   1.047  13.671 -0.0953  0.1277 -0.1244
 7336W        W23597   8.291   5.668  14.368  0.0943 -0.0815 -0.1872
 7337W        W23598  13.981   3.863  13.026 -0.1785  0.0043  0.3472
 7338W        W23599  13.371   2.939  12.231  0.2768  0.2182  0.0870
 7339W        W23600   6.737   0.022   2.944  0.0326  0.3165  0.0827
 7340W        W23601  13.472  17.878   0.866  0.0898 -0.2227  0.0310
 7341W        W23602   6.345  12.036  14.777  0.0677  0.0749  0.3528
 7342W        W23603  11.905  16.110  13.175 -0.0712 -0.1410 -0.2945
 7343W        W23604   9.581   6.516  15.031 -0.0646  0.1826  0.3231
 7344W        W23605  12.442   3.067   5.906 -0.0577  0.4255  0.0017
 7345W        W23606  16.340  17.638   0.119 -0.0475 -0.4381  0.0020
 7346W        W23607   7.461  14.227   5.082 -0.1357  0.2823  0.0253
 7347W        W23608   5.580   1.027  15.505 -0.6596 -0.1086  0.0516
 7348W        W23609   0.177   4.716   2.150  0.0012  0.3144  0.1747
 7349W        W23610   5.617   6.927   1.897  0.1852  0.1755  0.1279
 7350W        W23611  13.887  11.945  13.721  0.0426  0.0395  0.0045
 7351W        W23612   3.656   2.230   1.922 -0.1344 -0.0916  0.0827
 7352W        W23613  17.138  11.724  11.742  0.0986  0.3600  0.2484
 7353W        W23614  11.183   9.597  15.065  0.0260  0.1840 -0.0731
 7354W        W23615   5.110   3.273   0.525 -0.0987  0.0725 -0.2017
 7355W        W23616   8.508  10.235   2.237  0.4736 -0.0185  0.3116
 7356W        W23617  10.902   3.020  13.463  0.3016  0.4649 -0.4860
 7357W        W23618  17.285  14.374  10.957 -0.1263 -0.1320 -0.3583
 7358W        W23619   5.814   2.646  15.092 -0.2264  0.1251 -0.1780
 7359W        W23620   3.860  16.083  15.308  0.0829  0.2528  0.0468
 7360W        W23621  14.471  18.118  13.460 -0.0137 -0.3346 -0.3427
 7361W        W23622   3.546  12.520   2.881  0.1368  0.0705 -0.0588
 7362W        W23623  16.597  11.009   1.800  0.0091 -0.3061  0.2581
 7363W        W23624   1.997   2.283   2.374  0.2546 -0.0137  0.1329
 7364W        W23625   6.824   0.836  14.939 -0.1875 -0.2380 -0.0329
 7365W        W23626   5.471  17.436  15.345 -0.0062 -0.0545  0.0827
 7366W        W23627   9.448  16.766   0.983  0.0988 -0.0193 -0.0783
 7367W        W23628  13.465   1.466   2.646 -0.1870 -0.1193  0.0348
 7368W        W23629   4.596   3.351   0.602  0.1900  0.0559  0.0312
 7369W        W23630   1.776   8.025   0.880  0.0996  0.1034  0.2991
 7370W        W23631  16.664  16.110  13.511 -0.0526 -0.0773 -0.2492
 7371W        W23632  16.623  13.408  12.339 -0.4431 -0.3561  0.0359
 7372W        W23633   1.886   0.661   2.538  0.1061  0.0680  0.2644
 7373W        W23634  12.234  14.940  11.008  0.1188  0.0336  0.0645
 7374W        W23635  16.723  15.380  12.742 -0.2609 -0.0848  0.0189
 7375W        W23636   6.880   2.820   3.500  0.1511  0.0788 -0.1001
 7376W        W23637  13.843   6.167   3.996 -0.0348 -0.0768  0.2289
 7377W        W23638   6.250   5.931   5.402 -0.2446  0.0586 -0.0702
 7378W        W23639   7.752   2.045   2.514  0.2770  0.1396 -0.3146
 7379W        W23640   2.101  17.273  14.849  0.0789  0.0434  0.0126
 7380W        W23641   0.038  11.796   4.945 -0.0003 -0.0498 -0.1123
 7381W        W23642   4.711  17.456   3.891 -0.2339 -0.2201  0.1707
 7382W        W23643  10.843   5.269  14.605  0.0678 -0.0205 -0.2492
 7383W        W23644  16.665   6.640  13.992 -0.3000  0.0709 -0.0549
 7384W        W23645   6.123  12.139   2.306  0.0063  0.2669 -0.2766
 7385W        W23646   0.590  10.223  11.414 -0.0319 -0.0380 -0.0868
 7386W        W23647  15.865  11.676  14.021  0.1237  0.1675 -0.0566
 7387W        W23648  10.211   5.700  13.350 -0.1505  0.0051 -0.0457
 7388W        W23649  11.354   1.806  12.320 -0.2463 -0.2079 -0.0430
 7389W        W23650  18.174   6.503   0.199 -0.0529 -0.4014  0.2275
 7390W        W23651   4.661  11.898   0.137  0.2425  0.0295 -0.0976
 7391W        W23652  17.126   3.080   2.930  0.1714  0.0628  0.2365
 7392W        W23653   0.086   3.298  12.647 -0.1442 -0.0751  0.0566
 7393W        W23654  16.038  14.943  12.639 -0.0390  0.0543 -0.0517
 7394W        W23655   7.705  16.450   4.934  0.1424  0.0776  0.2495
 7395W        W23656  16.696   1.796   4.435  0.0858 -0.1009  0.0312
 7396W        W23657  10.787   4.313  12.253 -0.1555 -0.0814 -0.1342
 7397W        W23658   2.007  18.471  12.845 -0.0868  0.1101  0.0151
 7398W        W23659  17.600  10.583  14.812  0.4373 -0.1355 -0.1086
 7399W        W23660   5.575  13.355  13.409  0.1190  0.4096  0.0958
 7400W        W23661  18.192   3.141   4.805 -0.2224  0.1466  0.0570
 7401W        W23662   7.129   5.286  13.676 -0.0313 -0.0696  0.1620
 7402W        W23663  15.199   9.201   4.978  0.3349  0.0951 -0.0463
 7403W        W23664  12.305   9.137  11.712 -0.3351  0.2478 -0.1528
 7404W        W23665   4.055   0.492   6.253 -0.0786 -0.0589  0.4551
 7405W        W23666   1.014  17.131   2.421 -0.2986  0.1603 -0.1255
 7406W        W23667   4.926  13.113   1.960  0.2236  0.2578 -0.0437
 7407W        W23668  15.489   0.159  12.905 -0.0362 -0.0605 -0.0726
 7408W        W23669  16.633  14.672  15.398 -0.2901 -0.3707  0.0294
 7409W        W23670   5.344  13.821  13.455 -0.1205  0.2187 -0.0154
 7410W        W23671  14.278  10.029  16.021  0.1033  0.2308 -0.0545
 7411W        W23672   9.588  18.476   0.415  0.1298  0.1305 -0.0724
 7412W        W23673   1.704   8.691   4.395  0.0302 -0.0115  0.0648
 7413W        W23674  16.633   0.515   1.393 -0.0418 -0.0371  0.0786
 7414W        W23675   9.858  10.452   1.740  0.0079 -0.0277 -0.0852
 7415W        W23676   9.046   1.044  10.996  0.1679 -0.2318 -0.1402
 7416W        W23677  16.349  10.843  13.273 -0.0020 -0.4094  0.2425
 7417W        W23678   0.659   1.642  12.906  0.0588 -0.2677 -0.2389
 7418W        W23679  12.530  18.122  14.510 -0.0077 -0.2258  0.4046
 7419W        W23680   0.213   5.117   4.767  0.1691 -0.0276 -0.0017
 7420W        W23681   3.610  12.854  13.019  0.1113 -0.2562 -0.0591
 7421W        W23682   8.775   4.933   2.562 -0.0284 -0.0232  0.1719
 7422W        W23683   9.967   6.075  15.060  0.1310  0.4237  0.1400
 7423W        W23684   1.642   7.826  15.300 -0.0549 -0.0119  0.1336
 7424W        W23685  16.644   7.686   1.082  0.0621  0.0513 -0.0402
 7425W        W23686   7.626  17.717   3.160 -0.1548 -0.3389  0.0178
 7426W        W23687   0.907   5.221   2.013 -0.3700 -0.4611 -0.2348
 7427W        W23688  15.842   9.857   0.418 -0.3526 -0.0347  0.0975
 7428W        W23689  11.663   8.760   0.973 -0.0775 -0.3368  0.2117
 7429W        W23690  18.385  14.274  11.177 -0.2278  0.1461 -0.5046
 7430W        W23691   2.275   8.867  13.287  0.1857 -0.1725 -0.2963
 7431W        W23692   4.107  17.586   4.611  0.0302  0.2443 -0.1970
 7432W        W23693   7.754  12.671  14.727  0.1407 -0.1823 -0.1582
 7433W        W23694  12.285   1.274  15.087 -0.1120 -0.2598  0.2669
 7434W        W23695  14.940  16.871   4.750 -0.1037  0.1390  0.0127
 7435W        W23696   0.593  10.139  13.858  0.3191 -0.2033  0.2636
 7436W        W23697  10.215   3.466   2.773 -0.1887  0.2079 -0.2527
 7437W        W23698   0.758  11.592  11.187 -0.0313 -0.1238 -0.1387
 7438W        W23699   6.992   7.522  11.730 -0.0685  0.0642  0.0843
 7439W        W23700  14.128  14.373   2.437  0.1134  0.1652  0.1839
 7440W        W23701  17.796   1.856  14.604  0.0729  0.1890  0.1402
 7441W        W23702  13.099   9.769  10.821 -0.0452  0.0396  0.1232
 7442W        W23703   6.549   5.984   2.309  0.2249  0.0277 -0.0788
 7443W        W23704   4.124  14.698  11.183  0.1290  0.0075  0.1260
 7444W        W23705  18.181  14.021  13.628 -0.0308  0.0532  0.1806
 7445W        W23706  13.749  15.442  11.776 -0.0147  0.0148  0.4167
 7446W        W23707   1.416   3.424   4.903 -0.0181 -0.0422  0.0015
 7447W        W23708   3.178   2.362   2.827  0.0485 -0.3182 -0.0805
 7448W        W23709   1.059   0.229   4.077 -0.3686  0.1641 -0.0592
 7449W        W23710  13.428   5.170  11.360  0.3782  0.4772  0.0133
 7450W        W23711  14.867   0.273  15.572 -0.0299  0.2641 -0.0687
 7451W        W23712   6.245  13.984   3.336 -0.0992  0.1660 -0.2066
 7452W        W23713   7.957  10.193  13.695 -0.1659 -0.0678  0.2660
 7453W        W23714   5.627  11.048   3.437 -0.0595 -0.2107  0.1173
 7454W        W23715  13.253  13.970   4.549 -0.3348  0.2160  0.1443
 7455W        W23716   9.240   7.818   5.251 -0.1972  0.1619  0.1369
 7456W        W23717   0.646   9.004   2.576 -0.2147 -0.2268  0.0216
 7457W        W23718   3.741   1.577  13.671  0.2142 -0.4529  0.2070
 7458W        W23719   9.473  15.871  13.460 -0.0159 -0.4825  0.2440
 7459W        W23720   9.108  12.518   2.091 -0.0716 -0.3195  0.1582
 7460W        W23721   8.694  11.498  15.490 -0.2563 -0.0089  0.0328
 7461W        W23722   2.861   3.471   1.600 -0.2089  0.0828 -0.3835
 7462W        W23723   9.012   1.254   3.307 -0.0673  0.1044 -0.1576
 7463W        W23724  16.183   4.091   4.072 -0.2713  0.1386 -0.2478
 7464W        W23725  15.062  11.772   1.655  0.4357 -0.3329 -0.2633
 7465W        W23726  14.354  16.608  11.465 -0.0310 -0.0768 -0.1282
 7466W        W23727   9.182   3.038  12.875 -0.1252  0.1580 -0.3961
 7467W        W23728   9.446   6.670   2.939 -0.1804  0.2813 -0.0391
 7468W        W23729   6.241  13.954   5.624  0.3514  0.1258  0.1041
 7469W        W23730  18.195   0.233  11.066 -0.0118  0.0434  0.0143
 7470W        W23731   0.078  11.749  16.053  0.0481 -0.0914 -0.1842
 7471W        W23732  16.421   6.853   0.960 -0.1170  0.1238 -0.0796
 7472W        W23733  12.086   8.257  13.025  0.2054  0.0197 -0.1311
 7473W        W23734  11.345   8.561   2.201  0.1318  0.0798 -0.0868
 7474W        W23735  17.897   7.803   3.718  0.1012  0.0200  0.1027
 7475W        W23736  12.764   9.951   0.494  0.1372 -0.1604 -0.3141
 7476W        W23737   9.719  17.158   0.728  0.0611  0.2658 -0.1311
 7477W        W23738   0.189  17.997   4.232  0.2790  0.0080 -0.1284
 7478W        W23739  17.438  16.957  15.007  0.1782 -0.3558 -0.1102
 7479W        W23740  11.418   5.488   1.623  0.2394  0.0804 -0.2456
 7480W        W23741  13.070   5.494   5.422 -0.0294 -0.0346 -0.0881
 7481W        W23742  14.645   4.009  13.644  0.0622 -0.2395 -0.1919
 7482W        W23743   6.498   3.990  15.421  0.0286  0.3173  0.2948
 7483W        W23744   0.114   9.371  13.178  0.2378  0.1175  0.0647
 7484W        W23745  14.400  15.085   3.057 -0.0624  0.3798  0.1072
 7485W        W23746  15.081   5.365  12.246 -0.0176 -0.3197  0.0255
 7486W        W23747   5.831  15.073  15.676 -0.0907  0.3644  0.1155
 7487W        W23748  13.863  10.747   3.496  0.0990 -0.1309  0.0477
 7488W        W23749  17.541   9.337  16.065  0.0134  0.1660  0.1437
 7489W        W23750   8.181  13.499  13.491  0.0596  0.2260 -0.3778
 7490W        W23751   9.809  12.083   0.352 -0.5492 -0.2808 -0.0409
 7491W        W23752   3.315  16.725  15.947 -0.0293 -0.3288 -0.2436
 7492W        W23753   7.885  14.476  12.597  0.1588  0.4409  0.0313
 7493W        W23754  10.680  17.927  14.967  0.0077  0.0500 -0.3585
 7494W        W23755  16.545   4.243  13.784  0.0867 -0.3091 -0.2114
 7495W        W23756  12.277   1.713  14.670  0.0186 -0.0584 -0.1646
 7496W        W23757  13.008  17.739   0.641  0.4439  0.2669 -0.3213
 7497W        W23758   8.176  17.718   0.837 -0.1441  0.0164 -0.0859
 7498W        W23759  15.637   9.680   2.455 -0.0205 -0.0415  0.1865
 7499W        W23760  11.001  14.239   3.580  0.1353 -0.0321 -0.0003
 7500W        W23761  10.064  17.599   0.084  0.4287 -0.1155 -0.0579
 7501W        W23762  14.332   8.596   5.561  0.1015  0.5301  0.3392
 7502W        W23763  12.521  10.240  13.178  0.4252 -0.3188 -0.1411
 7503W        W23764   4.799  16.566   2.065 -0.0460  0.1104  0.2709
 7504W        W23765  11.512   7.724   3.074  0.0693 -0.1649 -0.1068
 7505W        W23766  17.346  13.499  14.849  0.0244  0.0552  0.1353
 7506W        W23767  15.859   8.216  11.416  0.2145 -0.4025 -0.1745
 7507W        W23768   5.442  11.542   1.101 -0.2523 -0.2025 -0.3776
 7508W        W23769   6.576   7.292  13.603  0.2200 -0.2875  0.0354
 7509W        W23770   9.158   7.959   3.271 -0.3664 -0.1359 -0.1227
 7510W        W23771  12.093   4.354  14.554 -0.1200  0.0866 -0.1236
 7511W        W23772  17.082  14.954   3.423 -0.0655  0.2050 -0.0985
 7512W        W23773   3.224  14.403  14.802  0.0581  0.3081 -0.0637
 7513W        W23774  12.314   1.598  12.089  0.0276 -0.0736  0.2279
 7514W        W23775  13.081  12.269  14.203  0.2206 -0.4820 -0.0661
 7515W        W23776  16.441   0.179   0.402 -0.1216 -0.1097 -0.0841
 7516W        W23777  15.357   7.172  10.627 -0.2085  0.1700  0.1540
 7517W        W23778  18.090   2.001   2.147 -0.3619 -0.1017 -0.1209
 7518W        W23779   1.749   5.093   1.577 -0.2391  0.2747  0.0680
 7519W        W23780   4.049   0.040  12.084  0.0514  0.1031 -0.0638
 7520W        W23781  11.120  12.494   3.892 -0.0397 -0.1244 -0.4209
 7521W        W23782   4.775   3.883  14.347 -0.0628 -0.0514 -0.0355
 7522W        W23783  11.974  13.759   0.512  0.0219  0.0785  0.1936
 7523W        W23784  13.016  10.396   2.413  0.1604 -0.0255 -0.0774
 7524W        W23785   8.792  14.726   5.970  0.0251 -0.0130 -0.1167
 7525W        W23786   3.402   2.602  14.261 -0.0894 -0.0659  0.1778
 7526W        W23787  16.830  13.293  13.961  0.4663 -0.0665 -0.3169
 7527W        W23788  10.586   1.046   1.776 -0.0630 -0.0896 -0.2175
 7528W        W23789  10.365   5.665   5.158  0.0316 -0.2766  0.0597
 7529W        W23790  11.861   2.745  12.920  0.0150  0.0918 -0.1513
 7530W        W23791  13.013  11.670  15.014 -0.0320  0.1235  0.2630
 7531W        W23792  13.092  10.748  11.265  0.4102 -0.0458  0.0208
 7532W        W23793  13.339  10.005  13.142 -0.1157 -0.1112  0.0217
 7533W        W23794  13.488  14.478   0.918  0.0608  0.2205 -0.3540
 7534W        W23795   5.818   4.405   3.863 -0.0309 -0.0603  0.0792
 7535W        W23796  14.718  15.702   3.728 -0.1045 -0.0415  0.2389
 7536W        W23797  15.021   9.280   5.448  0.0519  0.0694  0.2365
 7537W        W23798   7.428  13.343   3.649  0.0412 -0.2289 -0.0841
 7538W        W23799  16.145   8.117  11.958 -0.0608  0.1302 -0.1299
 7539W        W23800  11.947   9.459   3.953  0.1638 -0.0412  0.2701
 7540W        W23801   6.209   2.151   2.851  0.1107 -0.0909  0.1922
 7541W        W23802   5.208   3.121   1.735  0.1047 -0.2869 -0.2843
 7542W        W23803  11.496   3.061  12.684  0.0294 -0.0581 -0.0420
 7543W        W23804   5.936  10.577  12.176 -0.3213 -0.0820  0.0291
 7544W        W23805  15.594   7.783  11.304 -0.2053 -0.1003 -0.4643
 7545W        W23806   0.880  17.703  12.857  0.0450  0.2770 -0.0176
 7546W        W23807   1.268   5.381   6.416  0.0287  0.3365 -0.2091
 7547W        W23808  13.420  10.479   3.470 -0.2035  0.2166  0.0395
 7548W        W23809   1.159   9.138   3.695  0.1965 -0.1103  0.1266
 7549W        W23810  11.011   6.859   2.994 -0.0597 -0.5024  0.1200
 7550W        W23811  13.165   0.164  12.344  0.0461  0.0817 -0.0291
 7551W        W23812   9.469  11.891  13.814  0.1408  0.2231  0.0581
 7552W        W23813   8.079   7.653  13.405  0.0717 -0.0408 -0.0394
 7553W        W23814  11.352  13.135  16.076 -0.0042 -0.0947 -0.0946
 7554W        W23815   4.101   2.172  14.669  0.4320  0.3387  0.1857
 7555W        W23816   8.266  10.352   0.593 -0.2472 -0.0682 -0.0118
 7556W        W23817   4.299   1.950   0.330 -0.1412 -0.1999 -0.0176
 7557W        W23818   9.975  13.349   5.063 -0.0501 -0.6571 -0.2959
 7558W        W23819   3.561  17.221   2.476 -0.0153 -0.0581  0.1345
 7559W        W23820  17.129   6.912   4.558 -0.1907  0.0067  0.2170
 7560W        W23821   6.382  14.695   3.058  0.2032  0.3051 -0.1172
 7561W        W23822  13.369  12.471  15.033  0.0541 -0.0709  0.0194
 7562W        W23823  16.278   4.787  14.134 -0.5262 -0.1163 -0.1389
 7563W        W23824  11.294  15.741   1.054 -0.0378  0.1854 -0.1556
 7564W        W23825  12.532  13.799   3.883  0.2703  0.0359  0.1891
 7565W        W23826  13.091  16.735  14.654 -0.3174  0.0079  0.2250
 7566W        W23827   9.729  15.244  14.278  0.0308 -0.0985 -0.2183
 7567W        W23828   6.420  14.969  15.331 -0.2569 -0.5141 -0.3344
 7568W        W23829  15.466   2.855   4.006  0.4441  0.1271  0.0717
 7569W        W23830   3.331  16.902  15.402  0.0586  0.2796  0.0228
 7570W        W23831  17.881  16.151   3.624  0.0469  0.0495 -0.1123
 7571W        W23832   1.663   9.003  11.460 -0.0475  0.1738 -0.3652
 7572W        W23833   4.017  11.265   1.809  0.0055 -0.3015 -0.1812
 7573W        W23834   7.138  13.346   3.217  0.2829  0.1074 -0.0358
 7574W        W23835   0.983  16.521   4.280 -0.1410 -0.1458 -0.3283
 7575W        W23836   6.880  10.941   3.886  0.0335 -0.0030  0.1795
 7576W        W23837   6.452  17.615   2.482  0.3384  0.1801  0.0197
 7577W        W23838  16.035  13.084   4.634 -0.3206  0.0065 -0.1386
 7578W        W23839   4.262   2.296   5.927 -0.0609  0.1188  0.1454
 7579W        W23840  15.786   9.016   3.088 -0.0038  0.0857 -0.0061
 7580W        W23841  18.021  13.130   0.426  0.0919 -0.3609  0.1860
 7581W        W23842  16.251   5.621  12.526  0.2130 -0.1380  0.2452
 7582W        W23843  13.827   2.243   4.625  0.0407 -0.3465  0.1317
 7583W        W23844  12.493  11.399   1.174  0.2232  0.1965  0.2420
 7584W        W23845  16.575  13.668   3.475 -0.1403  0.0692 -0.3146
 7585W        W23846  17.259  10.921  15.714 -0.0398  0.0844  0.1566
 7586W        W23847  17.081  10.649   4.698 -0.0957 -0.0061  0.0057
 7587W        W23848   0.634  13.725  12.168 -0.2906  0.2063  0.2928
 7588W        W23849   6.172   3.218   5.014  0.0278 -0.0514  0.1439
 7589W        W23850  13.029  12.556   3.085 -0.1456  0.2319  0.2970
 7590W        W23851   7.312  17.325   2.449  0.3101 -0.0099 -0.0209
 7591W        W23852  16.141   0.525   1.329  0.1383  0.2421 -0.2250
 7592W        W23853   0.872   8.900  15.512 -0.1563 -0.0738 -0.0554
 7593W        W23854  11.692   7.742  13.624 -0.1002  0.2902  0.1346
 7594W        W23855  16.012  15.242  10.676  0.0178  0.3519  0.0437
 7595W        W23856   6.647  10.910  11.858 -0.3776 -0.0526  0.0814
 7596W        W23857  14.892   1.291   4.135 -0.1314 -0.0523 -0.2795
 7597W        W23858   5.252   3.939  15.794 -0.0315  0.1144 -0.0888
 7598W        W23859  14.008   2.027  11.722  0.1203 -0.2689  0.3057
 7599W        W23860  15.599  12.371  10.653 -0.0067 -0.1011  0.1489
 7600W        W23861   6.643  17.365  14.846  0.0045  0.0373 -0.2231
 7601W        W23862   0.995  10.363   3.280  0.3379 -0.2013  0.1040
 7602W        W23863   3.875   0.587  16.044 -0.0876  0.0468  0.2052
 7603W        W23864   9.704   7.349   4.221 -0.0227  0.3156  0.0032
 7604W        W23865  13.367  10.074  12.042 -0.2623  0.0977 -0.1347
 7605W        W23866   8.935  16.715  14.945  0.0376 -0.1089  0.3922
 7606W        W23867  11.451   1.951   0.527 -0.3881 -0.0023 -0.2984
 7607W        W23868  10.922   7.516  15.476  0.3147 -0.2656 -0.0078
 7608W        W23869   5.391   8.793   3.248 -0.4361  0.1006 -0.1496
 7609W        W23870   3.795   4.414  13.206 -0.1317 -0.0966 -0.2209
 7610W        W23871   8.076   6.938   2.262 -0.3776  0.0843 -0.3441
 7611W        W23872   3.054   0.307   2.021 -0.1420  0.1866 -0.2403
 7612W        W23873   2.187  14.751  14.942  0.3511  0.1826 -0.1033
 7613W        W23874  14.869  14.903   3.354 -0.1616 -0.2596  0.0813
 7614W        W23875   5.208   9.747  15.752  0.0352 -0.2321 -0.2254
 7615W        W23876   1.461   0.804   0.142 -0.0400 -0.2459 -0.3894
 7616W        W23877   3.117   8.287  14.175  0.0522  0.2190 -0.1737
 7617W        W23878  15.105   0.408   4.154  0.1443  0.2034  0.1955
 7618W        W23879   0.069   4.253   1.059 -0.0268  0.2878  0.2732
 7619W        W23880  10.469  14.000  13.079 -0.1344  0.0461  0.0072
 7620W        W23881  14.335  17.924  12.741  0.1675 -0.1544  0.0599
 7621W        W23882  12.130   9.088  12.367 -0.3288  0.1740 -0.1643
 7622W        W23883  12.285   4.221   5.715 -0.1975  0.0110  0.0481
 7623W        W23884   7.059  10.226  12.844  0.1969  0.0279 -0.2692
 7624W        W23885  17.032   4.827   1.212  0.0313 -0.0778 -0.1572
 7625W        W23886  14.599   0.810  13.897  0.0744 -0.1729  0.2143
 7626W        W23887   9.269  11.916   5.354  0.0587 -0.0117 -0.0362
 7627W        W23888  10.503  13.419  11.957 -0.0791 -0.0075 -0.0055
 7628W        W23889   5.632   2.102  14.750  0.1098  0.2704 -0.3126
 7629W        W23890  17.911   9.116  14.760  0.0792  0.2188 -0.1927
 7630W        W23891  16.926   5.176  13.050 -0.1484 -0.0565 -0.2068
 7631W        W23892  10.419   9.182   1.296  0.0239 -0.0975  0.1101
 7632W        W23893   7.392   9.623  14.609  0.3013  0.4025 -0.0789
 7633W        W23894   2.497  14.245   3.656  0.0975 -0.3394 -0.4997
 7634W        W23895   8.165  14.925  12.449  0.0580 -0.0520 -0.2114
 7635W        W23896  10.558  16.767  16.084 -0.4206 -0.1176 -0.1303
 7636W        W23897  17.373   2.882  12.262  0.2274  0.0672  0.1267
 7637W        W23898  12.176   8.497  13.498 -0.0789  0.0200 -0.2576
 7638W        W23899   6.792   4.062  15.854  0.2302 -0.0037  0.2207
 7639W        W23900   7.555  11.932  12.008  0.0564  0.0549  0.1669
 7640W        W23901  14.856   0.237  14.995  0.0802  0.2091  0.1221
 7641W        W23902  12.843   7.532   0.293 -0.3070  0.1972 -0.1278
 7642W        W23903  11.941  13.280  12.139  0.1930  0.1459 -0.1564
 7643W        W23904   8.323   8.455  14.842  0.0082  0.2765  0.0779
 7644W        W23905  11.429  15.340   0.643 -0.1608 -0.1370 -0.0803
 7645W        W23906  13.822  13.240   3.125  0.3020  0.2651  0.3687
 7646W        W23907   6.035   9.671   1.020 -0.2974  0.0240 -0.1288
 7647W        W23908  13.249  16.561  13.216  0.2721  0.1418  0.2489
 7648W        W23909   9.100  15.562  14.663 -0.0547 -0.2773 -0.3311
 7649W        W23910   4.558   9.744  11.407 -0.0932  0.0645 -0.0106
 7650W        W23911  17.011  12.983   0.436  0.0654 -0.1319  0.1405
 7651W        W23912  14.927  13.145   2.717 -0.1992  0.0080  0.0096
 7652W        W23913  15.812   2.627   3.717  0.0743 -0.1004 -0.1981
 7653W        W23914   9.790  18.320   4.250  0.0402 -0.0423  0.0260
 7654W        W23915   0.866  14.895   1.144 -0.1776 -0.1530 -0.1867
 7655W        W23916   5.215   1.995   4.675  0.1008 -0.0708  0.0800
 7656W        W23917  16.804   8.397   2.953 -0.2508 -0.0831 -0.2561
 7657W        W23918   9.586   9.549  15.588  0.2709 -0.0882  0.0105
 7658W        W23919   0.674   6.087   4.608  0.0871  0.2299 -0.2558
 7659W        W23920  14.501  10.214   3.145  0.4227  0.0110  0.0408
 7660W        W23921   8.732   2.796   3.265 -0.0586 -0.3200 -0.0434
 7661W        W23922  11.919  17.633   3.307 -0.0378 -0.0484 -0.1292
 7662W        W23923  15.803   0.092  15.420 -0.0387 -0.1274  0.0057
 7663W        W23924   4.875  11.259  15.622 -0.1243  0.2518 -0.1602
 7664W        W23925   4.624   2.046   4.150  0.1063  0.0794  0.3881
 7665W        W23926  17.161  16.151  15.566 -0.1277 -0.1199 -0.2325
 7666W        W23927   0.383   3.196   0.412 -0.0779  0.0247  0.0769
 7667W        W23928   6.557   9.668   0.344 -0.0518  0.1666  0.3261
 7668W        W23929   5.388  10.996   5.262  0.1548  0.0761  0.1791
 7669W        W23930   4.117  12.708  13.044 -0.2421  0.0083 -0.0406
 7670W        W23931   2.709   0.526   2.382  0.4669  0.4691 -0.1163
 7671W        W23932  11.954  14.429  12.228 -0.0745 -0.2398  0.0836
 7672W        W23933  14.921   5.852   2.242 -0.0935  0.1183 -0.2793
 7673W        W23934   4.818  16.891  14.208 -0.0711 -0.0946 -0.0938
 7674W        W23935   1.397  18.427  12.852 -0.1548 -0.0727  0.1026
 7675W        W23936   3.802  14.487  13.230 -0.2019 -0.3318 -0.1712
 7676W        W23937  12.046   7.010   5.655  0.1754 -0.0595  0.0879
 7677W        W23938   3.156   4.830   3.229  0.3179 -0.0598 -0.0546
 7678W        W23939  16.269   4.708  13.670  0.2161 -0.0106 -0.0405
 7679W        W23940  11.680  16.814  10.985 -0.2445  0.0168 -0.0862
 7680W        W23941  15.204   2.343   0.630 -0.0018  0.2856  0.1354
 7681W        W23942   7.924  15.085  11.898 -0.0251  0.1053 -0.2198
 7682W        W23943   0.666  15.266   1.848 -0.4929  0.4387  0.4233
 7683W        W23944   9.488   3.451  13.046  0.0969  0.2458 -0.3597
 7684W        W23945  14.057   2.660  13.436 -0.3181 -0.0782  0.0240
 7685W        W23946   4.567   1.120   4.239  0.3780  0.1206  0.0827
 7686W        W23947   8.656  10.934   3.121  0.2761 -0.1767 -0.0975
 7687W        W23948  14.738  10.668   0.699  0.0110  0.0714 -0.1033
 7688W        W23949   9.962   9.127   1.038 -0.1565  0.2508 -0.2260
 7689W        W23950  11.677   8.604   1.467  0.1227  0.0957 -0.0953
 7690W        W23951   4.308   2.932   4.954  0.1884  0.1076  0.1058
 7691W        W23952   8.146  13.098  15.436  0.3916 -0.1097 -0.0021
 7692W        W23953  13.563   3.613  13.293  0.1858  0.0906  0.2355
 7693W        W23954   4.735  14.154   3.366  0.0491 -0.2257  0.0604
 7694W        W23955  11.558   0.277   1.182 -0.1120 -0.0007  0.0408
 7695W        W23956   1.794   6.120  14.171 -0.1090 -0.0227  0.1586
 7696W        W23957   5.839  12.551  13.776 -0.0741 -0.2865  0.0753
 7697W        W23958   6.086   4.078   4.918 -0.2274 -0.0132 -0.0616
 7698W        W23959   0.360   0.044   5.454  0.0976  0.0018  0.1492
 7699W        W23960   5.027  14.011  16.030 -0.0775  0.1780 -0.1078
 7700W        W23961   6.850   9.738   3.466 -0.0642  0.1531 -0.3427
 7701W        W23962   4.209   8.207  15.741 -0.2295 -0.3531  0.1700
 7702W        W23963   5.546   2.042  15.972  0.0051 -0.1101  0.0376
 7703W        W23964  16.494  10.905   3.186  0.0707  0.0999 -0.1554
 7704W        W23965   9.540  16.182  12.602 -0.0351 -0.2483 -0.1764
 7705W        W23966  11.690  13.561   3.393  0.0757  0.0882  0.0222
 7706W        W23967  13.805  12.790  16.062  0.3801 -0.2259  0.0422
 7707W        W23968   7.755   6.325   4.556 -0.1766 -0.1052 -0.4095
 7708W        W23969  12.351  12.758  14.671 -0.2118  0.0028 -0.2236
 7709W        W23970   1.656   9.287  13.123  0.0363 -0.1516  0.0938
 7710W        W23971   2.210  18.098  11.783 -0.2504  0.2651  0.3153
 7711W        W23972   7.935  15.090   4.212 -0.2790 -0.0324 -0.2376
 7712W        W23973   7.839   2.673  12.265 -0.1335 -0.0480  0.1277
 7713W        W23974  14.280   5.404   1.393  0.2045  0.0252 -0.1839
 7714W        W23975  13.792  11.452   2.753  0.0728  0.1032 -0.0236
 7715W        W23976   6.516  15.882  12.847  0.0931  0.3276 -0.0003
 7716W        W23977  11.551   5.160   2.241  0.0426 -0.1600 -0.0278
 7717W        W23978  18.047  18.429   2.755  0.2933 -0.1314 -0.2498
 7718W        W23979   3.916   0.957   1.087 -0.4232  0.0312  0.0930
 7719W        W23980  14.247   5.609   3.346  0.0957 -0.1015  0.1169
 7720W        W23981   0.362  17.675   3.833  0.1087 -0.0092  0.1463
 7721W        W23982   7.956   3.229  16.029 -0.0097 -0.2015 -0.1046
 7722W        W23983  11.255   5.457   1.104  0.0892 -0.1221 -0.1544
 7723W        W23984   9.964   6.875  11.958 -0.1225  0.0313 -0.0129
 7724W        W23985   1.827   1.742   4.711 -0.1031 -0.2001 -0.4783
 7725W        W23986  18.243  17.230   4.469  0.0258 -0.0742 -0.1722
 7726W        W23987  16.617  14.581   1.290  0.1655 -0.0896 -0.3022
 7727W        W23988   2.623   6.562  13.392  0.1169 -0.2214  0.1875
 7728W        W23989   0.263   4.435   3.541  0.0582  0.2065 -0.1458
 7729W        W23990   2.875   1.712  14.060 -0.1506  0.0805  0.0307
 7730W        W23991  10.931   7.668   3.389  0.1374  0.1665 -0.4067
 7731W        W23992  10.125  12.437  15.134  0.1055 -0.1090  0.0313
 7732W        W23993  17.250   5.322  14.449  0.3298 -0.0745 -0.1140
 7733W        W23994  16.900  10.231   4.388  0.0376 -0.2670 -0.3953
 7734W        W23995   7.423   0.187   3.501 -0.0512  0.1659 -0.1301
 7735W        W23996  15.944  15.785   0.019  0.1513 -0.2670  0.1536
 7736W        W23997   4.476  13.497  13.730 -0.2092  0.0084 -0.4526
 7737W        W23998   0.644  17.955  10.594  0.0097 -0.3090  0.1482
 7738W        W23999   9.324  14.336   4.096 -0.0908 -0.0962 -0.0867
 7739W        W24000   0.185  16.297   0.047  0.1632  0.1208 -0.0853
 7740W        W24001  12.674   9.088   4.999  0.0622  0.1493 -0.1280
 7741W        W24002   9.634   3.779   0.181 -0.0342  0.0557 -0.2032
 7742W        W24003   6.305  16.035   1.412  0.1095 -0.0326  0.0625
 7743W        W24004   7.772   3.389   4.879 -0.0738  0.0579  0.0739
 7744W        W24005   6.057   2.755   5.168 -0.2067 -0.0718  0.0708
 7745W        W24006  12.819  12.177   3.577  0.0830  0.1921  0.1927
 7746W        W24007  15.279   2.701   5.244  0.0467  0.2351 -0.2358
 7747W        W24008   4.079   1.288  14.481  0.0552 -0.1006 -0.2070
 7748W        W24009  13.160   7.017   1.058 -0.0848  0.1640  0.1662
 7749W        W24010   7.564   8.344  14.845  0.2096  0.2373  0.1446
 7750W        W24011  12.457   5.941   3.107 -0.0408  0.2331 -0.0555
 7751W        W24012  15.077   9.743  12.436 -0.0689 -0.1061 -0.0363
 7752W        W24013  14.825  14.132  11.375 -0.1668 -0.1501 -0.2980
 7753W        W24014  14.850  17.089   3.035 -0.2166  0.1939 -0.2453
 7754W        W24015   5.708  12.831  13.236  0.3188  0.1299 -0.0348
 7755W        W24016   3.937   2.373   0.404  0.0445  0.0507 -0.0876
 7756W        W24017   4.010   6.234   2.090  0.0649  0.0766  0.2739
 7757W        W24018   5.191   3.819  13.408  0.1292  0.1932  0.1944
 7758W        W24019   6.098  18.084  13.283 -0.2704  0.1367  0.4474
 7759W        W24020  15.538   0.683  14.841 -0.0495 -0.0104 -0.3060
 7760W        W24021   3.789  18.143   5.317  0.1210  0.3949 -0.2342
 7761W        W24022   8.143   9.812   4.607  0.3904  0.3674 -0.2435
 7762W        W24023  17.257   4.366  12.754 -0.1699 -0.0329 -0.0826
 7763W        W24024  18.070   3.089  14.166  0.3365  0.0565  0.2337
 7764W        W24025   7.904   3.719   0.570  0.1688 -0.2473 -0.0178
 7765W        W24026   9.150   1.259  12.284 -0.1541 -0.0549  0.0874
 7766W        W24027   6.010   8.449  11.918  0.1202 -0.0494 -0.1012
 7767W        W24028   3.904   1.768   3.541  0.1876  0.1057  0.0422
 7768W        W24029  18.336  14.951   2.307  0.0374  0.1269 -0.2103
 7769W        W24030   2.434  10.175  14.445  0.3332  0.1571 -0.0660
 7770W        W24031  14.542   8.412   0.832  0.2080 -0.2222 -0.0359
 7771W        W24032   1.094   1.674   4.244  0.0546  0.2273 -0.0225
 7772W        W24033   8.528  16.721  15.280  0.0392  0.0286  0.1523
 7773W        W24034  16.884  16.503  15.797 -0.1362  0.0136  0.0894
 7774W        W24035  17.966   9.351  15.756 -0.0543 -0.2017  0.0634
 7775W        W24036   5.148   5.000   3.738  0.3376 -0.1450  0.1786
 7776W        W24037  11.927  16.963   1.173  0.0893 -0.1096  0.3410
 7777W        W24038   5.753   1.586   0.652 -0.0085 -0.2446  0.0682
 7778W        W24039  10.604   4.286   3.532 -0.0489  0.4432  0.3890
 7779W        W24040  12.511   0.943   1.999  0.0511 -0.1385 -0.0183
 7780W        W24041   1.737  14.555  15.813 -0.1505  0.1408  0.4316
 7781W        W24042   9.744   6.982   1.355 -0.1934 -0.4955  0.4944
 7782W        W24043  17.965  10.884   2.428  0.2498  0.1006  0.0487
 7783W        W24044  10.438   3.048  13.099  0.0408  0.0906  0.0835
 7784W        W24045  11.348   0.043   2.532 -0.2394  0.1986 -0.1770
 7785W        W24046  11.331  16.425  11.142 -0.1605  0.0592  0.0584
 7786W        W24047  13.514   8.216  13.938 -0.0132 -0.2243  0.0248
 7787W        W24048  16.168   8.519  12.275 -0.0349  0.0917  0.1229
 7788W        W24049  17.792  10.706  11.385  0.0157  0.1822 -0.0687
 7789W        W24050   8.803  11.546   4.436  0.1193  0.0228  0.0791
 7790W        W24051  12.512   6.641  13.285 -0.1545 -0.1525 -0.2496
 7791W        W24052  16.642   3.357   2.250  0.0104 -0.0495 -0.1476
 7792W        W24053   6.614  18.219   7.941 -0.1950  0.1937 -0.1915
 7793W        W24054  17.424  13.920  12.773  0.3824  0.1809  0.1190
 7794W        W24055  16.426  18.177  10.889 -0.1043  0.0748 -0.0854
 7795W        W24056   5.756  11.824   2.512  0.0651  0.5123  0.0901
 7796W        W24057   0.132   4.484   0.005 -0.1833 -0.1241  0.0341
 7797W        W24058  10.727  11.871   5.308 -0.0431 -0.2327  0.2260
 7798W        W24059   0.918  15.330   1.437  0.0067  0.2375 -0.0980
 7799W        W24060   2.884   5.075   1.632  0.0473  0.0257 -0.1740
 7800W        W24061   9.307   2.860   2.191 -0.2406  0.0253 -0.2182
 7801W        W24062  10.318  11.459   1.090  0.1362  0.0178 -0.2232
 7802W        W24063  16.615   1.992  11.432  0.0710 -0.5276  0.1694
 7803W        W24064   7.955  14.185   4.841 -0.2424 -0.1089 -0.2603
 7804W        W24065   5.781   4.289   1.161 -0.3697 -0.0720  0.2216
 7805W        W24066  14.352   7.555   1.033 -0.3567 -0.2722  0.1158
 7806W        W24067   7.939  10.505  14.293 -0.1097  0.1527 -0.2173
 7807W        W24068  11.779  14.545   3.849 -0.1536  0.1742 -0.1745
 7808W        W24069   4.636   2.025   3.147  0.0128 -0.0146 -0.2039
 7809W        W24070   3.475   2.277   0.761 -0.5224 -0.1628 -0.3146
 7810W        W24071  10.323   2.136  11.409 -0.2116 -0.0486 -0.1782
 7811W        W24072  12.118  17.979  12.492  0.0890 -0.1328  0.2008
 7812W        W24073  16.701   4.495   4.876  0.2786  0.1754 -0.0608
 7813W        W24074  11.493   1.113  12.746  0.0815  0.0539 -0.2402
 7814W        W24075   2.720  14.668  14.216 -0.1959  0.3541  0.0101
 7815W        W24076   2.883  11.479   5.815 -0.0718 -0.0086  0.0758
 7816W        W24077  13.654   1.272   1.322  0.1429 -0.2954  0.2012
 7817W        W24078  12.170   7.102  13.080 -0.0637  0.2470  0.1809
 7818W        W24079   0.640  17.391  12.491 -0.0249 -0.0762 -0.2328
 7819W        W24080   5.828  14.080   0.394  0.0547  0.0095  0.0714
 7820W        W24081  15.875  10.551   3.665 -0.0485 -0.1388  0.0945
 7821W        W24082   9.686  14.984   3.634 -0.0807  0.0940  0.1377
 7822W        W24083  16.830  13.244  12.823 -0.0966  0.0842  0.0421
 7823W        W24084   0.665  11.235   2.847  0.0023 -0.0925 -0.1225
 7824W        W24085   4.666  13.792   0.780  0.0762  0.1738 -0.0778
 7825W        W24086  12.273  10.926  13.373  0.0517 -0.0650  0.4641
 7826W        W24087  12.327   5.843   2.579  0.2732  0.0877 -0.3077
 7827W        W24088  12.218   9.271  12.982 -0.0532  0.0829  0.0631
 7828W        W24089   4.652   7.267  12.072  0.1065 -0.3165  0.0186
 7829W        W24090  13.971   7.458   3.854 -0.1719  0.1484  0.1040
 7830W        W24091   2.211   9.944   3.474  0.1079 -0.1484  0.1906
 7831W        W24092   3.119  14.833  15.081 -0.0156 -0.0584 -0.0349
 7832W        W24093   4.655   3.220  13.741  0.1070 -0.0712  0.4698
 7833W        W24094  16.721   0.889  11.950 -0.1683  0.1297  0.0336
 7834W        W24095   3.630  16.538  15.596  0.0893 -0.1708 -0.3045
 7835W        W24096   1.175   3.302   3.002 -0.0828  0.0658  0.2188
 7836W        W24097   1.022   2.604   1.800  0.1456 -0.0638  0.1010
 7837W        W24098  16.276   6.010  13.457  0.1519  0.0859  0.0097
 7838W        W24099  14.225  15.051  11.244 -0.2700 -0.0135 -0.1797
 7839W        W24100  10.379   6.322  11.704 -0.0104 -0.0282  0.0541
 7840W        W24101   2.109   9.458  13.046 -0.0900  0.2501 -0.0406
 7841W        W24102  15.987  14.817  14.795 -0.1032  0.5688  0.2217
 7842W        W24103  16.945   7.677   0.358 -0.3307 -0.0825 -0.1209
 7843W        W24104   9.234   9.609   2.662 -0.0401 -0.1827  0.4333
 7844W        W24105   8.724  14.258   2.832  0.1568  0.2147 -0.2226
 7845W        W24106  13.236   2.672   0.273 -0.0215  0.2331  0.1501
 7846W        W24107   3.875   8.131   3.538  0.0608 -0.0762 -0.1421
 7847W        W24108   2.137  13.422   3.561 -0.1920  0.1094  0.2589
 7848W        W24109   6.489   9.427  12.768 -0.2942 -0.2506  0.2312
 7849W        W24110   7.083   1.617   5.462  0.1800  0.1716 -0.1260
 7850W        W24111  14.431  11.196  15.576  0.0665  0.2549 -0.3352
 7851W        W24112   8.103  16.881   4.121  0.2595 -0.0239 -0.0840
 7852W        W24113   4.505  14.782  14.495 -0.0399  0.0323  0.0225
 7853W        W24114   1.507  13.773   0.598  0.0241  0.0861 -0.0607
 7854W        W24115  16.620   0.702  10.959  0.1383  0.0526 -0.3639
 7855W        W24116   3.758  11.335  15.797 -0.1765 -0.0784  0.0456
 7856W        W24117   4.519   4.127   0.303 -0.2837 -0.2246 -0.0779
 7857W        W24118   8.572  12.654   1.218  0.0556  0.0992  0.2491
 7858W        W24119   2.678  11.989   1.747 -0.0020 -0.1501 -0.0269
 7859W        W24120   2.056   2.480  14.143  0.0800  0.2176 -0.1730
 7860W        W24121  11.742   6.632  11.631 -0.0684  0.1665 -0.0671
 7861W        W24122  16.607   9.595  16.089 -0.0527 -0.0912 -0.0711
 7862W        W24123   0.398  14.799  12.789  0.2020 -0.2696 -0.2297
 7863W        W24124   3.096   3.034   5.735 -0.0305  0.0184  0.1683
 7864W        W24125  15.674  12.714   4.861  0.0973  0.4762  0.0902
 7865W        W24126   8.673  14.213  12.846 -0.0986  0.0142 -0.0660
 7866W        W24127   4.189  12.026   2.489  0.0284 -0.0615  0.0353
 7867W        W24128  12.365   5.169  11.620 -0.2978 -0.0272 -0.3344
 7868W        W24129  14.871  17.272   4.471  0.2820 -0.0264  0.2775
 7869W        W24130   6.827  17.160  12.542 -0.0262 -0.0486 -0.0434
 7870W        W24131  12.316   3.381  13.183  0.0022  0.0594  0.3692
 7871W        W24132  17.671   0.406   0.577 -0.1096 -0.2867  0.1171
 7872W        W24133   9.624  10.011   0.630  0.0846 -0.1829 -0.0722
 7873W        W24134  15.179  11.372  11.073 -0.2014  0.0435 -0.1339
 7874W        W24135   1.054  15.310  13.899 -0.1977  0.2270 -0.0105
 7875W        W24136   6.374   2.178   5.705 -0.0205 -0.0304  0.1091
 7876W        W24137  17.723   7.186  14.726 -0.3793 -0.0133  0.1699
 7877W        W24138   6.585  11.670   3.532  0.2103 -0.0890 -0.0414
 7878W        W24139   8.459  11.628   3.642 -0.2076  0.0841 -0.1044
 7879W        W24140   8.579   0.872   5.185  0.1683  0.3932 -0.0336
 7880W        W24141   7.842  11.027   3.909 -0.0921 -0.0348 -0.0331
 7881W        W24142   6.778   3.969   3.501  0.0466 -0.0750  0.0692
 7882W        W24143  13.532  11.110  16.179  0.0735  0.1434 -0.0902
 7883W        W24144  11.277  10.179  13.785  0.0117 -0.3020  0.0441
 7884W        W24145  10.495  12.743   1.648  0.1556 -0.0142  0.1595
 7885W        W24146  14.035   8.644   2.927 -0.1750 -0.2015 -0.1855
 7886W        W24147   8.765   4.967   5.082 -0.0953  0.0564  0.3127
 7887W        W24148   0.259  13.333  13.264  0.1495  0.0304 -0.1888
 7888W        W24149  11.808  12.411  14.496  0.0698 -0.0467  0.3614
 7889W        W24150   3.839   1.131   0.613  0.0548  0.2061  0.3297
 7890W        W24151  13.446   8.121   0.198  0.0481  0.0549 -0.1169
 7891W        W24152   5.717  11.081  13.515 -0.0185 -0.0489  0.0036
 7892W        W24153  17.162  11.467  11.288  0.2068 -0.2609  0.0410
 7893W        W24154  12.622   1.269   2.438 -0.4089  0.1531 -0.1263
 7894W        W24155   7.762  17.874   4.253 -0.1818 -0.4386  0.1683
 7895W        W24156   0.429  11.988   2.137 -0.0772 -0.0855  0.2072
 7896W        W24157  10.107  10.985   0.422 -0.0850  0.0238 -0.1878
 7897W        W24158  15.905  14.134  13.971 -0.0913  0.0912 -0.2629
 7898W        W24159  16.693  13.580   4.023  0.1729  0.0498  0.1955
 7899W        W24160  11.742   4.654   0.966  0.0285  0.6342 -0.0671
 7900W        W24161   7.144  15.872  13.938 -0.0565  0.0138 -0.2058
 7901W        W24162  13.802  12.433   5.706 -0.3237  0.0064 -0.0151
 7902W        W24163   7.637  17.504  15.050  0.0481  0.1000 -0.0121
 7903W        W24164   2.824  12.206  13.449  0.0263  0.1795  0.0797
 7904W        W24165   8.240   6.440  12.745  0.0719 -0.2332 -0.0580
 7905W        W24166  16.012  18.024  12.642 -0.0823 -0.1626  0.1725
 7906W        W24167  12.469   0.281   0.837 -0.1709  0.3125  0.1608
 7907W        W24168   5.751   8.240   0.803 -0.0008 -0.0290  0.3388
 7908W        W24169  16.147  16.816   2.458  0.3765 -0.1892  0.0325
 7909W        W24170  17.217  16.972   4.406 -0.0249  0.1975 -0.2990
 7910W        W24171  12.785  17.045  16.152  0.1835  0.3268  0.1106
 7911W        W24172   7.993   3.309   5.318 -0.1140  0.1276  0.0543
 7912W        W24173   7.522   6.436   2.871 -0.0906  0.1382 -0.0319
 7913W        W24174   1.207   0.780  15.659 -0.1765  0.0085 -0.0098
 7914W        W24175  12.855  11.586  13.041  0.0770  0.0247 -0.0732
 7915W        W24176  10.291  11.492  13.131 -0.0598 -0.1016 -0.1349
 7916W        W24177   5.475   8.459   2.115  0.2993  0.0027 -0.3589
 7917W        W24178   1.688   8.395   1.314  0.0035 -0.0857  0.1237
 7918W        W24179  12.689  11.714   4.482 -0.0106 -0.1263 -0.2394
 7919W        W24180  17.074  15.242  13.534 -0.0313 -0.0099 -0.2897
 7920W        W24181   8.949   0.139   2.884  0.1114 -0.0556 -0.0536
 7921W        W24182   3.929  15.038   5.312  0.1179 -0.0714  0.0900
 7922W        W24183   5.722   4.276   1.714 -0.1182  0.1200  0.0567
 7923W        W24184  13.912   6.927   2.391  0.1742  0.0503  0.1497
 7924W        W24185  11.461  10.127   1.312  0.3153 -0.1237  0.0975
 7925W        W24186  11.149  11.653   0.056 -0.0008  0.2513  0.0284
 7926W        W24187   3.615   6.243   0.451  0.0262  0.1081 -0.0580
 7927W        W24188   8.023  11.676  13.198  0.2190 -0.3162 -0.1538
 7928W        W24189   3.783  13.304  13.167 -0.2126  0.1942 -0.0056
 7929W        W24190  13.752  13.725  11.653  0.0733  0.0794  0.0638
 7930W        W24191  12.162  13.550   1.263  0.3700 -0.1924  0.3530
 7931W        W24192   8.094   7.207  13.757 -0.2116  0.1641 -0.2351
 7932W        W24193  11.796  18.351   0.447 -0.3712 -0.0232 -0.0473
 7933W        W24194  16.568  11.737   1.073  0.2672 -0.2072  0.0124
 7934W        W24195  11.995   2.542  12.004 -0.0519  0.0417 -0.4199
 7935W        W24196  14.387   1.575  13.714  0.2190  0.0181  0.1130
 7936W        W24197   5.456   7.294   4.375  0.1979 -0.0043  0.0249
 7937W        W24198  12.231   2.909   2.289  0.3555  0.0443  0.0342
 7938W        W24199  12.263  12.979   3.391  0.0597  0.2423  0.1640
 7939W        W24200   3.276   6.474  12.951 -0.2302  0.0789  0.1028
 7940W        W24201   6.523  15.039   1.509 -0.0660 -0.2342 -0.0546
 7941W        W24202  16.862  17.878  16.102  0.0136 -0.1951  0.1563
 7942W        W24203   1.783  17.205   2.051 -0.4098  0.1857  0.0244
 7943W        W24204  17.839   4.400   3.325 -0.0121 -0.1198 -0.0474
 7944W        W24205  11.787   2.713   6.320 -0.0026  0.0329  0.0839
 7945W        W24206  16.967  18.188  10.717 -0.1610  0.0896  0.0055
 7946W        W24207   3.029   0.950   1.406  0.1277 -0.0475 -0.0054
 7947W        W24208   5.690   6.139   1.907  0.2752 -0.1992 -0.0319
 7948W        W24209   8.065   0.577   2.742  0.0236  0.1592  0.0207
 7949W        W24210   2.914   5.043   4.754 -0.2449 -0.0743  0.1413
 7950W        W24211   5.902   2.717   0.241  0.2428 -0.0959  0.1235
 7951W        W24212  16.185  10.409  14.058 -0.1244  0.1714 -0.2461
 7952W        W24213  14.079   2.016   3.898 -0.1233  0.1340  0.1323
 7953W        W24214   0.008   6.196   5.409 -0.3483  0.2519 -0.0852
 7954W        W24215   4.356  18.460   1.142 -0.0926 -0.1861 -0.2052
 7955W        W24216  10.482  13.320  15.611  0.2079 -0.2869  0.0340
 7956W        W24217  13.667  17.537   2.951  0.0099  0.4088 -0.1444
 7957W        W24218  18.386   1.614   0.018  0.2825  0.2763  0.1733
 7958W        W24219   9.430  15.762  14.389 -0.1892  0.0857  0.2409
 7959W        W24220  14.352   7.215   2.062  0.1379  0.0905 -0.0004
 7960W        W24221  13.669   4.674   3.970 -0.0293 -0.2265 -0.2127
 7961W        W24222  10.472   9.109   4.933 -0.0429  0.1205 -0.0506
 7962W        W24223   3.748   9.778   1.147 -0.1400  0.2800  0.1603
 7963W        W24224  11.307  14.030   3.150  0.3471  0.1384 -0.0084
 7964W        W24225   4.760   7.888  14.244 -0.4902 -0.0326  0.2124
 7965W        W24226   4.633   0.705  14.086  0.3339 -0.2257 -0.2981
 7966W        W24227  15.615   7.195   0.800 -0.1332 -0.2127  0.0113
 7967W        W24228  16.283  18.351   1.451 -0.1944  0.0636  0.2982
 7968W        W24229   1.681  12.949   0.717  0.0453  0.0447 -0.1444
 7969W        W24230  17.950   5.882  12.035 -0.2580 -0.1174 -0.2296
 7970W        W24231   5.653   7.451  14.060 -0.4422 -0.0427  0.0752
 7971W        W24232  13.291  16.260   0.444  0.2823  0.0410  0.2550
 7972W        W24233   3.033   2.231  11.656  0.0049  0.0686 -0.4496
 7973W        W24234  16.590   5.776  13.813  0.1531 -0.3459 -0.0446
 7974W        W24235   4.220  18.341   3.867  0.1109  0.1094 -0.2006
 7975W        W24236   9.334  17.063   3.017  0.1203  0.1714 -0.2554
 7976W        W24237   6.385   9.191   1.178  0.0611  0.1128 -0.0298
 7977W        W24238   5.284  10.759  13.702 -0.0293  0.0179 -0.0011
 7978W        W24239   3.000  15.817   2.820 -0.2099  0.1438 -0.0391
 7979W        W24240   1.800   5.382   5.036  0.1642 -0.3881  0.0666
 7980W        W24241  15.207   2.685   1.533 -0.0153  0.2873  0.1079
 7981W        W24242   9.168   0.690  15.951  0.0909 -0.2073  0.4344
 7982W        W24243   7.732  15.576   5.556 -0.1522 -0.1623 -0.2347
 7983W        W24244   2.275   5.528   4.959 -0.0931  0.1544  0.0658
 7984W        W24245   9.116   6.296   1.477 -0.0077 -0.0630 -0.0340
 7985W        W24246   8.392   7.036   4.046 -0.2127 -0.1494 -0.1204
 7986W        W24247  18.272  16.445   1.700 -0.2579  0.1026 -0.0576
 7987W        W24248  18.393   7.173   1.998  0.1379  0.0634 -0.1715
 7988W        W24249  10.472   8.662  12.928 -0.1058 -0.2450  0.2221
 7989W        W24250   1.100   7.111  12.881 -0.2987 -0.2265 -0.1076
 7990W        W24251  14.318   6.153   5.397  0.0228  0.1011  0.0828
 7991W        W24252   1.652  16.108  15.028  0.0466 -0.3526 -0.2321
 7992W        W24253  15.791  13.409   0.497 -0.0598 -0.2599 -0.2413
 7993W        W24254   8.790  12.314  11.394 -0.1038 -0.0014 -0.2171
 7994W        W24255   1.825   2.358   2.822 -0.1476  0.0240 -0.1309
 7995W        W24256  16.752  14.961  11.749 -0.1979 -0.0669 -0.0281
 7996W        W24257   8.873   1.944   1.901  0.1991  0.1695  0.2462
 7997W        W24258  18.236   2.116  11.094 -0.0948  0.0364 -0.0100
 7998W        W24259  10.285  17.650   2.738  0.2399  0.3753 -0.1270
 7999W        W24260   0.692  16.634  14.470  0.2751 -0.0041  0.1037
 8000W        W24261  12.503  13.708   1.669 -0.0925 -0.1899  0.1382
 8001W        W24262  10.688   8.396  15.890  0.1065  0.4021  0.2359
 8002W        W24263  10.196  18.267   3.471 -0.1544 -0.1307 -0.1274
 8003W        W24264  16.529  16.138   5.123 -0.0215 -0.0656  0.0844
 8004W        W24265   3.696  13.162   5.260 -0.1373  0.0775  0.1600
 8005W        W24266  15.530   1.881  15.348  0.1098  0.2436  0.0540
 8006W        W24267  16.190   4.180  12.621  0.0461 -0.3712 -0.0860
 8007W        W24268  11.924  16.938   2.536  0.0766  0.0714  0.0701
 8008W        W24269   3.542  11.505  15.223 -0.1074 -0.2507  0.2031
 8009W        W24270  10.708   2.831  15.584  0.0024 -0.1217  0.1583
 8010W        W24271  10.617  17.155   0.334 -0.4153  0.0256 -0.0646
 8011W        W24272  12.976   6.005  15.144  0.1316  0.1411 -0.0657
 8012W        W24273  14.578  10.445  15.849 -0.0893  0.0315 -0.2343
 8013W        W24274  11.621  10.530  11.266  0.0271 -0.1856 -0.1925
 8014W        W24275   0.499  10.147   5.912  0.0150 -0.1125 -0.3599
 8015W        W24276  12.086  11.854  15.854 -0.3548 -0.1927  0.1624
 8016W        W24277   9.984  18.378   2.578  0.1612  0.3010 -0.0338
 8017W        W24278  15.893   4.314   5.224  0.1701 -0.2674 -0.1865
 8018W        W24279  14.934   1.575  13.289  0.2504  0.3086 -0.0225
 8019W        W24280   1.774  10.679  15.590  0.0084  0.2683 -0.0304
 8020W        W24281   4.791   1.658   2.684 -0.0644 -0.4604 -0.0818
 8021W        W24282   7.063  11.134  14.499 -0.2743 -0.0896 -0.0855
 8022W        W24283   2.543  16.018   3.088  0.1914  0.0055 -0.0086
 8023W        W24284   9.354   0.210   5.675  0.0571  0.1304 -0.2024
 8024W        W24285   9.033  14.676  10.949  0.1044 -0.2322 -0.1005
 8025W        W24286  10.235  16.602   0.281  0.0651 -0.0924 -0.5071
 8026W        W24287  18.138   5.803  12.489 -0.3441  0.0723  0.2820
 8027W        W24288   1.388  14.062   3.130  0.1470  0.3030  0.0570
 8028W        W24289   9.776  16.213  11.394 -0.1917 -0.2380  0.2534
 8029W        W24290   3.510   7.233   2.561 -0.0405  0.1880  0.0886
 8030W        W24291   8.056   2.171  13.191  0.4974  0.2645 -0.1065
 8031W        W24292  14.693  10.725  14.632 -0.2989  0.1020  0.2175
 8032W        W24293   1.867   5.047  11.646  0.0161  0.0252  0.0899
 8033W        W24294   1.608   3.119  15.312 -0.5029  0.1747 -0.3291
 8034W        W24295   7.148  12.832   1.615  0.0533 -0.1560  0.1279
 8035W        W24296  17.720  12.398   0.947 -0.2935 -0.1244  0.2430
 8036W        W24297  10.197   8.839  15.402 -0.1408 -0.1277 -0.1314
 8037W        W24298   9.760   9.508   0.788 -0.1533 -0.0627 -0.3526
 8038W        W24299   0.522  16.709   4.293 -0.1609 -0.0597  0.0201
 8039W        W24300   4.381  17.762   3.024  0.1103 -0.1748  0.0895
 8040W        W24301  18.476  14.824   0.021  0.2017  0.2272 -0.2682
 8041W        W24302  18.219   3.434   0.582 -0.2467  0.2055  0.4033
 8042W        W24303  18.297  10.325  15.209 -0.3848 -0.0687 -0.1176
 8043W        W24304   5.993   7.203  14.399  0.3300  0.0621  0.1225
 8044W        W24305   6.999  10.126  11.302 -0.2132 -0.2556 -0.1204
 8045W        W24306  15.612   0.920  11.601 -0.1390  0.4138 -0.3155
 8046W        W24307  14.680   9.247   4.718  0.0261  0.2707 -0.0769
 8047W        W24308  12.198   3.293   1.887 -0.0526  0.0638 -0.0404
 8048W        W24309   2.431   2.795  13.632 -0.0468 -0.2406 -0.0607
 8049W        W24310  13.737   0.263  12.984 -0.0984 -0.4594 -0.0789
 8050W        W24311   8.989  11.378   0.175  0.2019 -0.4179  0.0955
 8051W        W24312   6.195   5.761  12.291 -0.0409 -0.3001  0.3430
 8052W        W24313   2.913  10.046  14.244  0.2432  0.1161  0.1289
 8053W        W24314  13.902  15.628  10.652  0.2365  0.0418  0.1698
 8054W        W24315   9.920  14.769   1.673 -0.2835 -0.0191  0.4353
 8055W        W24316  13.127   4.771  11.603 -0.0704  0.0602 -0.2236
 8056W        W24317  10.976   2.199  14.127 -0.1718  0.0852  0.0279
 8057W        W24318  14.864   7.749   1.146  0.0856  0.2177  0.3114
 8058W        W24319  15.313   2.802  14.073  0.3773 -0.0297  0.0950
 8059W        W24320  12.540   9.208  14.636 -0.0962  0.0579 -0.3634
 8060W        W24321   7.962  15.045  13.873 -0.2543 -0.1100 -0.1050
 8061W        W24322  17.819   9.798   2.770  0.0283  0.2394 -0.0643
 8062W        W24323   7.690   3.410  12.968 -0.2229  0.1010  0.0559
 8063W        W24324  14.525  13.030  15.308 -0.2210 -0.2097  0.1129
 8064W        W24325   6.368   3.655   2.030 -0.2596  0.0945 -0.0283
 8065W        W24326   4.322   2.088   4.598  0.1970 -0.2195 -0.1338
 8066W        W24327   9.774  10.332  13.321  0.0086  0.3271  0.0282
 8067W        W24328   7.092  14.342   5.764 -0.0965  0.0074 -0.4203
 8068W        W24329   5.440   6.884   3.479  0.4165  0.1103 -0.0978
 8069W        W24330  10.738   2.925   2.243  0.2738 -0.0062  0.4276
 8070W        W24331   3.545  16.331   3.884 -0.0128  0.0578 -0.0094
 8071W        W24332  13.232   8.385  15.359 -0.0744  0.2089 -0.1919
 8072W        W24333   6.802  10.904   2.463  0.1468  0.1351 -0.0218
 8073W        W24334  17.444  10.889  14.433 -0.1816 -0.3024 -0.0209
 8074W        W24335   9.910  18.350   1.925 -0.1268  0.0232  0.0799
 8075W        W24336  12.272   6.726   0.066  0.0383 -0.0085  0.0492
 8076W        W24337  11.655   5.535   3.215  0.1900 -0.1318  0.2242
 8077W        W24338  16.282  13.751   1.102 -0.2156 -0.1705  0.1851
 8078W        W24339  17.136   9.784   4.784 -0.2793 -0.1483  0.2940
 8079W        W24340   9.567   1.330  14.764  0.3566  0.0923 -0.0021
 8080W        W24341  13.549  13.914   5.364  0.1558  0.1804 -0.0344
 8081W        W24342  14.995  17.417  13.270  0.3056  0.2593 -0.0061
 8082W        W24343  15.421  17.715   3.454  0.0334 -0.5175  0.1073
 8083W        W24344   2.703   2.688  11.774  0.0071  0.0249 -0.0011
 8084W        W24345   7.750  17.456  14.140  0.0215 -0.3857  0.4247
 8085W        W24346  15.268   3.382  12.716 -0.1669 -0.2273  0.2609
 8086W        W24347  10.877   9.710  16.119  0.0747  0.1527 -0.4182
 8087W        W24348   2.696  12.703  14.531  0.1272  0.0145  0.0042
 8088W        W24349  14.689  17.854  15.345  0.0900 -0.1510  0.0436
 8089W        W24350   9.140   2.162   4.958 -0.2566 -0.0116  0.1991
 8090W        W24351   9.678   9.339  12.742 -0.1534 -0.1046  0.0531
 8091W        W24352  14.747  10.289   4.298  0.0778  0.1798  0.0059
 8092W        W24353  15.378   2.757   3.029  0.0356  0.0296  0.0496
 8093W        W24354  16.091  10.913  12.821 -0.2104 -0.2301  0.1021
 8094W        W24355  11.229   3.468   1.504  0.0139 -0.0843 -0.2241
 8095W        W24356   2.074   5.181   2.913  0.1394  0.2845  0.1858
 8096W        W24357  17.195   1.876   0.317 -0.4175  0.0084  0.0160
 8097W        W24358   8.363   6.746   3.201 -0.0303  0.2275 -0.1508
 8098W        W24359   8.902  12.632   0.806 -0.0581  0.2614 -0.2547
 8099W        W24360   6.919  17.648  14.585  0.0724  0.3224  0.0186
 8100W        W24361  10.813   5.842   1.154 -0.4504  0.0580  0.1051
 8101W        W24362   4.594   4.144  13.392 -0.0226  0.0009 -0.2772
 8102W        W24363  17.742  17.316  15.267  0.1547 -0.0790  0.0569
 8103W        W24364   8.374   5.072   6.227  0.2296  0.2462 -0.1068
 8104W        W24365   2.036   8.106  13.447 -0.0173  0.0997 -0.1769
 8105W        W24366   9.631   7.413  14.228 -0.1520 -0.0759  0.2761
 8106W        W24367  15.950   6.531   3.089 -0.4406 -0.1531  0.0332
 8107W        W24368   5.628  13.034  14.166 -0.3234 -0.0344 -0.0407
 8108W        W24369   7.627   3.216   4.397  0.3351 -0.1537 -0.1744
 8109W        W24370  12.901  14.432   0.858 -0.1944  0.1098 -0.3198
 8110W        W24371  12.591  15.956   0.637 -0.0334 -0.2701  0.1315
 8111W        W24372  12.950   0.166   3.054 -0.0606 -0.1595  0.1513
 8112W        W24373   6.322   0.855   3.153 -0.4330  0.1879  0.0390
 8113W        W24374  10.064   3.174  15.225 -0.5775  0.1482 -0.0393
 8114W        W24375   7.697  18.462  13.359  0.1713  0.0517  0.2019
 8115W        W24376  13.482  11.998   1.422  0.1278 -0.0213 -0.0639
 8116W        W24377   5.595   4.770   6.413 -0.1298 -0.1113 -0.0159
 8117W        W24378  14.064   2.879   4.229 -0.1688 -0.0144 -0.1125
 8118W        W24379   6.603  18.092  12.237  0.2064 -0.1380  0.0030
 8119W        W24380   1.158   4.873   2.203 -0.0763 -0.0328 -0.0620
 8120W        W24381  14.151   5.667   0.973  0.1223 -0.2101  0.2898
 8121W        W24382   2.251   4.109   3.886 -0.2068  0.0158 -0.0014
 8122W        W24383   6.469   2.406   5.192  0.1893 -0.1417 -0.0861
 8123W        W24384   6.772  11.252   3.284  0.1441 -0.2613 -0.0095
 8124W        W24385   1.469  13.522  11.329 -0.0531  0.0283  0.3225
 8125W        W24386  12.475  11.942   2.568  0.1009 -0.2488 -0.1075
 8126W        W24387   1.167   7.606   3.716 -0.2447  0.4162  0.0627
 8127W        W24388  15.706  12.120  11.352  0.1867 -0.2760 -0.1108
 8128W        W24389   5.485  17.675  14.162  0.0094  0.0221  0.0741
 8129W        W24390   7.200  16.684  12.413  0.0958  0.1372  0.1562
 8130W        W24391  13.019   3.387  15.874  0.1432 -0.0808  0.0832
 8131W        W24392   9.918  10.084   2.935 -0.1462 -0.1888  0.0565
 8132W        W24393   4.345  17.842   2.480 -0.3373  0.2234 -0.0973
 8133W        W24394   7.977  12.703  15.745 -0.2736  0.0600 -0.0005
 8134W        W24395   6.543  15.426  14.425 -0.2254  0.1110 -0.0972
 8135W        W24396  11.934  17.383  15.703  0.2653 -0.2414 -0.2430
 8136W        W24397  17.114  16.945   0.951 -0.1684  0.1093 -0.0062
 8137W        W24398  16.915  10.728  11.941  0.2428 -0.1224  0.2642
 8138W        W24399   2.968  14.837   1.499 -0.0045  0.0376 -0.4285
 8139W        W24400   4.582  11.214  13.030 -0.0396  0.1072 -0.4687
 8140W        W24401  17.390   8.983   1.868 -0.2471  0.0342  0.2283
 8141W        W24402   1.576  12.337   3.496  0.1960  0.0008 -0.0016
 8142W        W24403   6.268   7.270  15.780 -0.0160 -0.1910  0.1606
 8143W        W24404   9.134   9.244  15.418 -0.1451  0.0786 -0.0109
 8144W        W24405   6.039  13.789  14.065  0.3211 -0.0641  0.0065
 8145W        W24406  16.672   1.148   2.699 -0.1926 -0.0587 -0.0484
 8146W        W24407   9.166   9.720   5.842 -0.2904 -0.2312 -0.0378
 8147W        W24408  17.768   7.199   2.887  0.2378  0.0816 -0.0070
 8148W        W24409  14.845  17.648  12.828  0.1895 -0.0302 -0.1746
 8149W        W24410  11.677   9.603   3.553 -0.0968 -0.1429  0.0807
 8150W        W24411  18.222  16.431  14.902  0.1820 -0.4247 -0.1350
 8151W        W24412   3.111  13.882  14.083  0.0788  0.0644  0.0860
 8152W        W24413   1.930  14.277   1.532  0.2110 -0.0990 -0.0968
 8153W        W24414   7.147  14.228   3.186  0.2270  0.1518  0.1303
 8154W        W24415  14.729   5.910   5.667  0.1791 -0.0059  0.0878
 8155W        W24416  14.748   3.397  15.404  0.0999 -0.0279  0.3358
 8156W        W24417   4.196  15.971  15.690 -0.1207 -0.2434 -0.1408
 8157W        W24418  12.363   7.394  15.193  0.1770 -0.0371  0.1245
 8158W        W24419   2.572  17.586   2.797  0.0741  0.0317  0.1656
 8159W        W24420  14.378  14.772   3.460  0.0579  0.2348  0.2548
 8160W        W24421  16.613   2.396  14.125  0.1688 -0.1187 -0.1183
 8161W        W24422   7.110   2.064   0.768  0.0326 -0.0567 -0.2606
 8162W        W24423   5.819   6.961   0.842  0.1075 -0.1470  0.1216
 8163W        W24424   7.401  15.938  12.595  0.0568  0.3230  0.3758
 8164W        W24425   6.898  14.403  13.125 -0.4400  0.3321  0.1016
 8165W        W24426  14.865  12.882  10.508 -0.1599 -0.0760 -0.1759
 8166W        W24427  13.115   4.898   4.833  0.0157  0.0532  0.2594
 8167W        W24428   5.243   7.277   3.184 -0.1629  0.1604  0.1189
 8168W        W24429   8.173   3.356  13.603  0.0402  0.0972  0.1327
 8169W        W24430  17.116   0.350  15.369  0.1068 -0.1001  0.1257
 8170W        W24431   4.929  10.808   5.251  0.0562 -0.1588  0.1800
 8171W        W24432  16.576   0.843  13.780 -0.1532  0.1470  0.1394
 8172W        W24433  16.882   3.540   2.830 -0.2326 -0.2197  0.3036
 8173W        W24434  14.680   2.658   4.432  0.2007  0.1196 -0.0854
 8174W        W24435   2.826   2.161  14.325 -0.0631 -0.4425  0.2120
 8175W        W24436  17.695  14.198  14.544 -0.1902  0.2499 -0.2495
 8176W        W24437   6.993   7.759   4.906 -0.2029 -0.0615  0.1983
 8177W        W24438   4.323  13.072   2.329  0.2585  0.0298 -0.3613
 8178W        W24439  15.541  15.271  13.351 -0.3865  0.0662 -0.0311
 8179W        W24440   3.708   0.848   0.220 -0.0418 -0.0165 -0.1513
 8180W        W24441   5.355   0.590  15.608 -0.1155 -0.0654  0.0057
 8181W        W24442   7.377   5.110   2.758  0.2180  0.1350 -0.0164
 8182W        W24443   0.513   2.265  11.197 -0.0207 -0.2790 -0.2243
 8183W        W24444   9.399  15.560   2.767  0.0081 -0.2102  0.4189
 8184W        W24445  17.821  12.899   3.100  0.1177 -0.4116 -0.2491
 8185W        W24446  14.577  14.470   0.189 -0.1743 -0.0515 -0.3519
 8186W        W24447   2.205   6.556   5.628  0.1693  0.0850  0.2453
 8187W        W24448   8.781   2.327  11.362  0.0743  0.4781  0.2874
 8188W        W24449  16.808   8.606  11.418 -0.2466  0.2864 -0.0762
 8189W        W24450   7.979   2.620  14.409  0.0412  0.0148 -0.0567
 8190W        W24451   3.672  14.566   4.994  0.1925  0.4285 -0.3476
 8191W        W24452   1.063   8.397   4.899 -0.1261 -0.2478  0.1085
 8192W        W24453  11.428  17.686   3.599  0.0216  0.2923  0.0716
 8193W        W24454   3.831   8.899   1.076 -0.0699  0.0661  0.1573
 8194W        W24455  17.699   4.930  14.000 -0.0857 -0.2192 -0.0670
 8195W        W24456   8.773  16.385  16.118  0.0518 -0.0329 -0.3462
 8196W        W24457  14.756  13.949   2.211  0.1235 -0.1260  0.1994
 8197W        W24458   0.975  11.826  10.767  0.1474  0.0328 -0.0811
 8198W        W24459   2.858   3.162   6.578 -0.2391 -0.1458 -0.0163
 8199W        W24460  14.016  18.284  12.879  0.1528  0.1779  0.0719
 8200W        W24461   0.816   4.121  13.408 -0.5130 -0.2321  0.1145
 8201W        W24462  17.076   3.633   5.031  0.1977  0.1037  0.1523
 8202W        W24463   8.432   0.330   3.648  0.0862 -0.3952  0.2429
 8203W        W24464   9.055   5.255  12.845 -0.1158 -0.0054 -0.0413
 8204W        W24465  10.347   4.837   4.212  0.2747  0.1567  0.6029
 8205W        W24466   6.240  13.586   2.422  0.0908  0.0608 -0.1959
 8206W        W24467   8.749   7.733   4.323 -0.0664 -0.2767  0.0282
 8207W        W24468   6.199   3.865   1.015 -0.0616 -0.1283  0.3040
 8208W        W24469   4.315   7.358  13.401 -0.0079  0.1229  0.0162
 8209W        W24470  10.748  13.839  14.786  0.3040 -0.1957  0.1533
 8210W        W24471   9.200   9.457   1.687 -0.0178 -0.0652  0.1400
 8211W        W24472   6.518   8.602  16.039 -0.0525  0.3876  0.0302
 8212W        W24473  10.287   0.360  11.037  0.2913 -0.1503 -0.0035
 8213W        W24474   0.596  12.758  10.686 -0.2045 -0.4074  0.3260
 8214W        W24475   5.201  13.616  11.055 -0.1621  0.3977 -0.3134
 8215W        W24476   5.936   9.301  14.170 -0.0077 -0.1321 -0.1115
 8216W        W24477   1.749   1.940   4.258 -0.0026 -0.1002  0.0132
 8217W        W24478   7.922  12.033  15.400  0.0327  0.1658  0.2124
 8218W        W24479  12.636  14.475   2.199 -0.1683  0.0746 -0.1090
 8219W        W24480   6.858  10.229   1.429 -0.0008  0.1387  0.1826
 8220W        W24481  11.764  12.477   5.185  0.2874 -0.0454  0.0431
 8221W        W24482  14.744  10.812   2.512  0.0467 -0.1225  0.3617
 8222W        W24483   1.258   4.964   1.212 -0.1412 -0.1427  0.0845
 8223W        W24484   0.563  14.055  15.179  0.0483 -0.1204  0.1468
 8224W        W24485  16.872  17.855  15.611  0.0407  0.0479 -0.1170
 8225W        W24486   8.386   0.016   3.219 -0.0115  0.0252  0.2989
 8226W        W24487   1.964   2.477  12.472 -0.4788  0.2474  0.0041
 8227W        W24488   1.396   5.958  12.496 -0.2742 -0.0131 -0.2656
 8228W        W24489   1.245   0.032  14.398  0.0911 -0.1659 -0.1130
 8229W        W24490   3.179   6.724   5.687 -0.1240  0.0059 -0.2121
 8230W        W24491   6.435   5.973   6.327  0.0414 -0.1951  0.3269
 8231W        W24492   4.264  17.965   1.315 -0.1659 -0.0952  0.0965
 8232W        W24493  10.285   2.781   0.737 -0.0101 -0.3211  0.0065
 8233W        W24494  11.916   3.065   5.118 -0.1907  0.1629 -0.0630
 8234W        W24495  18.045   8.517  13.249  0.2617  0.1566 -0.1723
 8235W        W24496   2.367   2.712  14.714 -0.0245  0.1943  0.0276
 8236W        W24497  17.492   9.147  15.078 -0.0323  0.1599  0.0726
 8237W        W24498   9.792   3.969   1.116 -0.2653 -0.2362 -0.1871
 8238W        W24499   5.055  11.819   5.912  0.2147  0.1101 -0.2113
 8239W        W24500   0.625   7.099  13.652  0.0674  0.2221 -0.1280
 8240W        W24501  12.546   8.084  13.885  0.0805  0.0598  0.0994
 8241W        W24502  11.562   9.997   1.765 -0.1748  0.1079 -0.1406
 8242W        W24503   1.408   1.350  10.832 -0.3449  0.0772 -0.2246
 8243W        W24504  10.573   8.025  13.402  0.1937  0.1699 -0.1156
 8244W        W24505   5.400  11.463   3.407 -0.2405  0.2308  0.0795
 8245W        W24506   4.508   0.153   0.400 -0.1900 -0.1860 -0.2054
 8246W        W24507   2.770   2.245   3.197 -0.2075 -0.2115  0.0765
 8247W        W24508  16.106   3.332   1.054  0.0691  0.3678  0.0411
 8248W        W24509   3.748   3.646   0.035 -0.1041  0.0437 -0.2628
 8249W        W24510   0.630   7.014  11.675 -0.1273  0.2271  0.3172
 8250W        W24511   2.189   1.590  14.311 -0.3172 -0.4182  0.2855
 8251W        W24512   3.806   3.649   2.042 -0.0726  0.0274  0.1946
 8252W        W24513   2.251  12.064   1.531  0.0301 -0.0531  0.4576
 8253W        W24514  12.509   1.916  10.930 -0.3181 -0.1834 -0.0501
 8254W        W24515   1.482   5.451  12.193 -0.2537  0.1249 -0.2764
 8255W        W24516   9.645   0.637   3.480  0.1299  0.3764 -0.1232
 8256W        W24517  18.304   6.442  11.744  0.0594  0.1299  0.2392
 8257W        W24518  10.612   5.964   3.721 -0.0624  0.1065  0.0155
 8258W        W24519   9.518  17.667  12.471  0.0074 -0.0005 -0.2891
 8259W        W24520   8.494  15.513   2.305 -0.1334  0.1008 -0.3605
 8260W        W24521   7.086  13.734  15.957 -0.0792  0.1731 -0.0485
 8261W        W24522   2.657  14.797  15.210  0.0523  0.3922 -0.0503
 8262W        W24523  14.189   2.826   2.851  0.0611 -0.0489  0.2798
 8263W        W24524   9.463  16.016  15.400  0.4167  0.2054  0.1956
 8264W        W24525   9.245  15.885   4.590 -0.0613  0.1614 -0.2412
 8265W        W24526   2.057  17.761  15.632 -0.4205 -0.0404 -0.2752
 8266W        W24527   1.355  11.383  12.753 -0.0597  0.2007  0.0580
 8267W        W24528  18.371  12.475  11.490  0.1285  0.0464  0.0964
 8268W        W24529  15.132  18.232   0.512 -0.1661  0.0288 -0.1942
 8269W        W24530   7.487   7.232  15.446 -0.0254  0.0329 -0.1935
 8270W        W24531   4.734   9.028   5.513 -0.0120  0.0206 -0.4600
 8271W        W24532  12.510  16.225  14.235  0.0010 -0.1549  0.2232
 8272W        W24533   3.235  16.550  13.120  0.3148  0.2959  0.1116
 8273W        W24534  16.717   3.157   0.279 -0.2097 -0.0653  0.1518
 8274W        W24535  13.403   7.760   2.873 -0.2742  0.0585  0.1516
 8275W        W24536   8.366   9.840  15.635  0.1831  0.0241 -0.0511
 8276W        W24537  16.254  10.996  10.738 -0.2499 -0.3956  0.0519
 8277W        W24538   6.162  12.957  11.053  0.1409  0.1702  0.0166
 8278W        W24539  17.811   8.608   2.597  0.0814  0.1410  0.0629
 8279W        W24540   9.716   7.984   1.248  0.0336  0.0698  0.2030
 8280W        W24541   6.784  15.901   3.995  0.1563 -0.0053  0.2277
 8281W        W24542   8.945  13.567  13.861  0.0726 -0.1016 -0.3026
 8282W        W24543  17.734  13.613   0.343 -0.1242  0.0700  0.0908
 8283W        W24544  10.290  12.802   0.208  0.3782  0.1770  0.1193
 8284W        W24545   5.910  14.307  12.169  0.3393 -0.2277  0.1536
 8285W        W24546   8.020  13.957   1.171  0.0202  0.2043  0.0919
 8286W        W24547  15.859   0.464  12.741  0.0950  0.0411 -0.1387
 8287W        W24548   0.702   6.466   1.129  0.0985  0.1120  0.1737
 8288W        W24549   0.641  12.240  11.795 -0.1499  0.1571 -0.0556
 8289W        W24550  18.225   9.553   1.442  0.0316  0.2783 -0.0357
 8290W        W24551  18.279   6.522   4.957 -0.1575  0.1058  0.3708
 8291W        W24552   5.723  13.489  15.729  0.1593 -0.0960  0.1790
 8292W        W24553  17.108   9.988  14.096  0.1169  0.0852 -0.1058
 8293W        W24554  17.719  15.616   1.547 -0.0771 -0.0759 -0.1919
 8294W        W24555   4.148  14.381   0.804  0.0649 -0.1085  0.1972
 8295W        W24556   7.907   5.652  13.156 -0.2336  0.0210  0.1010
 8296W        W24557   9.531  11.203  14.136 -0.0144 -0.1610  0.0784
 8297W        W24558   1.745   5.197  13.492 -0.1314  0.2843  0.2824
 8298W        W24559  11.096  15.115  11.177  0.0911  0.2180  0.0021
 8299W        W24560   8.166  13.068   2.518 -0.1405  0.0444  0.0213
 8300W        W24561  15.469   7.411   0.340  0.1723  0.0172 -0.1434
 8301W        W24562   0.534  11.188  11.072  0.0627 -0.3519  0.0247
 8302W        W24563  12.589  18.299   3.463 -0.2218  0.1880  0.0456
 8303W        W24564   5.049   0.630   2.906 -0.2145  0.0349 -0.1163
 8304W        W24565  16.374  15.078  10.986  0.0985  0.0054  0.0488
 8305W        W24566   7.569  17.361   3.970  0.0235 -0.2831 -0.0488
 8306W        W24567  11.015   7.441   1.634 -0.2817  0.0902  0.1828
 8307W        W24568   2.253  14.086   5.967  0.1569  0.1895  0.1104
 8308W        W24569   2.271   3.984  14.235  0.0540 -0.0688  0.2241
 8309W        W24570   3.098  16.074   2.337  0.1940  0.0493  0.0300
 8310W        W24571   3.739   7.972   0.815  0.2106 -0.0313  0.0237
 8311W        W24572  10.206   1.872   0.386  0.1765 -0.2452 -0.0228
 8312W        W24573   9.467   8.341   3.030  0.2413 -0.1097 -0.1109
 8313W        W24574   5.746  16.360   3.660 -0.0671  0.0072  0.0517
 8314W        W24575  17.768   2.316  14.750 -0.1234  0.0589  0.0858
 8315W        W24576   4.451  14.031   4.523 -0.1090  0.0379  0.1953
 8316W        W24577  16.158  12.215  14.933  0.0737  0.1253  0.0329
 8317W        W24578  18.270   7.990  14.412  0.1197 -0.1826 -0.0035
 8318W        W24579   5.877  15.145  11.560  0.0894  0.3192  0.2411
 8319W        W24580  17.642   0.404   4.208 -0.1045 -0.1965  0.0583
 8320W        W24581   1.448   3.268  12.581  0.1675 -0.1858 -0.2115
 8321W        W24582   2.724   6.838   4.847  0.0298 -0.3623 -0.0156
 8322W        W24583  13.231   3.463  14.351 -0.0365 -0.0780 -0.2039
 8323W        W24584   7.214  17.457   4.380 -0.0994 -0.4962  0.1427
 8324W        W24585  16.869   9.759   4.224  0.2439  0.2232  0.0546
 8325W        W24586   4.178   2.252  12.339  0.3423  0.2327  0.3072
 8326W        W24587   0.214   0.273  10.817 -0.0836  0.0343  0.2209
 8327W        W24588   4.199   2.589  14.364 -0.0670 -0.0353 -0.1413
 8328W        W24589  12.588   7.844  13.431 -0.1398  0.1408 -0.0926
 8329W        W24590   7.025  15.298  14.588  0.2025 -0.1358 -0.1779
 8330W        W24591   7.259   0.966  13.906  0.0637 -0.0349 -0.1187
 8331W        W24592   2.368   1.087   1.089 -0.2562  0.0910 -0.4528
 8332W        W24593  14.594   1.394  14.690  0.0501  0.1133  0.1354
 8333W        W24594   2.221  10.330  12.813 -0.2170 -0.1967  0.1247
 8334W        W24595   7.125   3.301   4.438  0.1652 -0.1088 -0.0401
 8335W        W24596   9.151   8.863  12.702  0.3687 -0.2755 -0.0303
 8336W        W24597   8.921  10.661  14.241  0.1533  0.1027  0.0344
 8337W        W24598   8.315  17.129   4.529  0.2851  0.0880  0.3392
 8338W        W24599  10.455  13.366   4.827  0.0264 -0.2033 -0.1881
 8339W        W24600  14.015   9.301   0.200 -0.0576  0.0043  0.2118
 8340W        W24601  16.517   9.046   4.326 -0.0550  0.2888  0.1172
 8341W        W24602   2.408  11.387  16.018 -0.0273 -0.0959 -0.0910
 8342W        W24603  17.511   4.353   2.957 -0.1581 -0.3008  0.2420
 8343W        W24604   4.338   3.485  14.229  0.0027  0.1241  0.3840
 8344W        W24605   9.526  10.399   2.170 -0.0331  0.1969  0.5515
 8345W        W24606  13.746   3.367   1.139  0.0462 -0.1837  0.0035
 8346W        W24607  11.324  10.400   4.890 -0.1597  0.1114 -0.0559
 8347W        W24608   5.294  10.474  12.644  0.3778 -0.2640 -0.0047
 8348W        W24609   3.126  12.964  13.118  0.1983  0.1376  0.2336
 8349W        W24610   2.169  12.929  12.231 -0.0768 -0.1682 -0.1473
 8350W        W24611  14.019  13.578  16.053  0.3474 -0.0184 -0.1507
 8351W        W24612   8.703  12.784   2.046  0.2408 -0.2528 -0.3147
 8352W        W24613   6.503   6.145   1.476  0.0861 -0.0634 -0.1523
 8353W        W24614   2.119  14.406   4.304 -0.0690 -0.3002  0.1364
 8354W        W24615   5.988  10.400  15.408 -0.2031 -0.0450  0.1097
 8355W        W24616   4.726  12.545  10.700 -0.0370  0.0653  0.1551
 8356W        W24617   1.797   1.117   2.737 -0.0869  0.0342  0.1613
 8357W        W24618  13.525  11.937  14.928 -0.1216  0.1990  0.0880
 8358W        W24619   4.888   1.533  12.476  0.2324 -0.1371  0.1190
 8359W        W24620   3.446   4.516  13.939 -0.0426  0.4867  0.1052
 8360W        W24621  13.013   3.567   4.422  0.1762  0.1654  0.0199
 8361W        W24622   5.510  14.453  14.621  0.0309  0.2126  0.0225
 8362W        W24623   8.684   9.511   4.224 -0.0407  0.3612  0.2150
 8363W        W24624  16.029   9.229  13.899 -0.0660 -0.0938  0.1057
 8364W        W24625   3.193   7.676   3.768 -0.0554 -0.1876 -0.4459
 8365W        W24626   3.084  12.481   4.248  0.4211  0.0870  0.2832
 8366W        W24627   6.000   4.957   4.608 -0.5112  0.1905 -0.0538
 8367W        W24628  10.178   9.816   2.536 -0.1526 -0.0491 -0.0980
 8368W        W24629   0.317   2.778   5.351  0.1816 -0.1238 -0.1059
 8369W        W24630  15.009  14.861  10.564  0.2414 -0.0593  0.2064
 8370W        W24631  10.757   0.111  11.003  0.2023 -0.1075  0.2362
 8371W        W24632  14.700  11.633   4.462  0.0516 -0.0926 -0.0349
 8372W        W24633  12.813   0.287   2.569  0.1637 -0.1103  0.2164
 8373W        W24634   9.911  14.202   3.030 -0.3962  0.1002 -0.0845
 8374W        W24635   1.874  11.587  11.856 -0.2889  0.3111  0.4536
 8375W        W24636   2.229   9.414   5.719  0.2468 -0.0341 -0.0360
 8376W        W24637  13.397   5.411   3.152  0.0153  0.0369 -0.0499
 8377W        W24638   1.406   9.129  11.964  0.2161  0.1053 -0.1919
 8378W        W24639  17.853  16.848  14.464 -0.1068 -0.0741 -0.2535
 8379W        W24640  12.666   9.334   3.295 -0.1602 -0.1310  0.0264
 8380W        W24641   9.658  13.105  13.211  0.0043 -0.0448 -0.1741
 8381W        W24642   6.348  15.818   2.939  0.3244  0.3371 -0.1213
 8382W        W24643   2.329   2.312   0.062 -0.1321 -0.3895 -0.0434
 8383W        W24644  12.667  12.075   1.968  0.0860 -0.2221  0.2512
 8384W        W24645  15.376  17.354   5.238  0.0253 -0.1597 -0.0040
 8385W        W24646  14.478   4.144  11.352  0.0995  0.0450 -0.0792
 8386W        W24647  11.927   5.169  13.998  0.1690 -0.0720  0.0877
 8387W        W24648   1.272   2.636   3.849 -0.2565  0.1392 -0.3207
 8388W        W24649   2.235  15.671  15.442  0.1021 -0.3117  0.0699
 8389W        W24650   3.811  16.721  12.139 -0.1595  0.0912  0.2468
 8390W        W24651  12.843   8.771  15.856  0.0761 -0.2856  0.0759
 8391W        W24652  11.806  10.510   3.497  0.0756  0.1765 -0.1926
 8392W        W24653  11.755   5.250   5.236 -0.0371  0.0397  0.0692
 8393W        W24654   5.768   8.347   4.613 -0.1234  0.2343  0.0231
 8394W        W24655   3.274   6.226   3.389 -0.1928 -0.0205 -0.0145
 8395W        W24656  10.026  16.821   2.349  0.0761  0.1955  0.2952
 8396W        W24657   0.527   2.024  15.099 -0.2115 -0.3024  0.0873
 8397W        W24658   5.211  17.229  14.190 -0.0857 -0.1232 -0.2533
 8398W        W24659   5.673  14.957  16.164 -0.1175 -0.1766  0.1944
 8399W        W24660  11.610  14.255  13.787 -0.0544 -0.0006  0.2758
 8400W        W24661  16.553   8.503   1.648 -0.3431  0.2763 -0.1325
 8401W        W24662   4.557  11.215   2.688 -0.0205  0.0639 -0.2614
 8402W        W24663   3.377   1.625   3.581  0.0222 -0.2447  0.0477
 8403W        W24664  11.065  11.353   2.565 -0.1049 -0.1152  0.0443
 8404W        W24665  12.005   2.022  14.920  0.0627  0.0775  0.1059
 8405W        W24666   6.618   7.282   5.317 -0.1609  0.3592  0.3727
 8406W        W24667   2.840   5.576   2.259 -0.2460 -0.2482  0.2336
 8407W        W24668  16.509   5.197   0.968  0.3964 -0.0054  0.1268
 8408W        W24669  14.014  11.996  15.754  0.0902  0.2277  0.3193
 8409W        W24670   4.081  13.089  12.151 -0.0205 -0.0382  0.2239
 8410W        W24671   3.130   6.743   3.895 -0.0440 -0.0225  0.0044
 8411W        W24672   2.931   9.859  14.693 -0.1205 -0.2336 -0.0890
 8412W        W24673   7.877  16.407   2.903 -0.0184  0.1041 -0.3444
 8413W        W24674   3.319   9.060   3.617 -0.0394  0.4536  0.0710
 8414W        W24675  15.097  14.358  14.891 -0.2852 -0.1634  0.2835
 8415W        W24676  12.199  13.246  11.149 -0.2177 -0.1859 -0.0243
 8416W        W24677   4.775  13.580  15.380 -0.2908 -0.2577  0.2597
 8417W        W24678   5.906   9.070   1.164  0.1211 -0.3103 -0.1433
 8418W        W24679   0.381   6.532  14.517  0.4972  0.0922 -0.0505
 8419W        W24680   8.003  10.410  11.788  0.0777 -0.3968  0.0019
 8420W        W24681   2.347   6.877  11.418 -0.2012 -0.2756 -0.1709
 8421W        W24682  14.722  11.899  13.291 -0.1147  0.2041 -0.1664
 8422W        W24683  10.971  13.590  12.220 -0.1316  0.1501 -0.0160
 8423W        W24684  14.263   8.193   4.601 -0.0732 -0.0431  0.0764
 8424W        W24685   5.153   4.686   2.869  0.0028 -0.0469  0.0013
 8425W        W24686  17.269   6.539   4.841 -0.0408  0.0529  0.0400
 8426W        W24687   9.653  15.179   1.761 -0.0500 -0.0207  0.1480
 8427W        W24688   4.072   0.763   3.550 -0.0286 -0.1396 -0.1216
 8428W        W24689  17.307  15.523  12.080 -0.0786 -0.0425  0.2487
 8429W        W24690   0.224   2.614   4.208 -0.0762 -0.2141 -0.2716
 8430W        W24691   4.384   6.114   3.556 -0.1869  0.2610  0.0162
 8431W        W24692   1.766  16.319  14.607 -0.1965  0.1792  0.1130
 8432W        W24693  14.525   5.550  15.342 -0.1263 -0.0735  0.4125
 8433W        W24694   4.342   2.429   4.965  0.0746 -0.0234 -0.1683
 8434W        W24695  15.186   7.221   3.233 -0.0619  0.1542  0.1450
 8435W        W24696  16.588  17.628   3.935  0.1678  0.0418  0.0274
 8436W        W24697   2.449  18.342   0.674  0.1966  0.1063  0.0697
 8437W        W24698  16.191   4.950   5.088  0.1438 -0.1487  0.1880
 8438W        W24699  14.314   8.441   3.620  0.1257  0.0310 -0.2106
 8439W        W24700  12.102   6.056  14.886  0.0473 -0.1159  0.1123
 8440W        W24701  10.436  17.377  14.846  0.3743  0.4742 -0.2005
 8441W        W24702  14.084  14.876  12.798  0.2325 -0.1679 -0.2814
 8442W        W24703   3.020   9.477   5.297  0.1267  0.1311  0.1029
 8443W        W24704   1.918   9.591   6.117  0.2244 -0.0487  0.0259
 8444W        W24705  17.981  16.305   9.598  0.0112  0.3128 -0.2827
 8445W        W24706   3.026  15.899   5.349  0.2434  0.2639 -0.0705
 8446W        W24707  14.424   1.057  15.459  0.0846  0.0099  0.1246
 8447W        W24708  16.609  17.369   4.700 -0.4370 -0.0821 -0.4861
 8448W        W24709   4.249   5.289  13.789 -0.2079  0.0917  0.1899
 8449W        W24710   3.484  17.434  14.833  0.0354 -0.2952 -0.0272
 8450W        W24711   9.710  10.987   3.349 -0.2122 -0.3257 -0.2659
 8451W        W24712  16.128  15.460   3.385 -0.0042 -0.2039 -0.1535
 8452W        W24713  14.159   6.123   6.415  0.2625  0.0795 -0.2851
 8453W        W24714   7.934   3.975   1.517  0.0130 -0.3424  0.2151
 8454W        W24715  17.633  11.270   0.936 -0.2904 -0.0695 -0.1956
 8455W        W24716   5.840  16.840   3.566 -0.1376 -0.0495 -0.1385
 8456W        W24717   4.443   6.994   1.791  0.2103  0.0007 -0.1490
 8457W        W24718   9.380  10.029  15.940 -0.4146  0.1287 -0.3158
 8458W        W24719  13.007  16.489   2.428 -0.0650  0.0735 -0.2345
 8459W        W24720  17.596  13.382   3.053 -0.1322 -0.0976  0.0845
 8460W        W24721   9.110  10.809  11.228  0.0381 -0.3851  0.2572
 8461W        W24722   5.890  17.034   5.106  0.0061  0.0455 -0.1924
 8462W        W24723   2.358  10.726   5.224  0.0827 -0.2650  0.0408
 8463W        W24724  13.722  17.297  10.933  0.0744 -0.0881  0.0416
 8464W        W24725   9.135  13.200   4.591 -0.0225 -0.0182 -0.0018
 8465W        W24726   5.218  16.844  13.783  0.1397 -0.2147 -0.2277
 8466W        W24727  11.414  14.831  13.117  0.0455 -0.0889  0.2905
 8467W        W24728  13.887  18.423   2.690 -0.0663 -0.2503 -0.2082
 8468W        W24729   0.639   3.520  12.631 -0.0023  0.2009 -0.2406
 8469W        W24730   9.991   7.719   3.301 -0.2098  0.1207  0.1492
 8470W        W24731  11.138   8.155  11.181  0.0724 -0.0312 -0.1517
 8471W        W24732   6.657  17.226   0.937 -0.0613 -0.0868  0.4650
 8472W        W24733  13.575  14.645  12.867 -0.2898  0.0024 -0.2809
 8473W        W24734  16.311   4.438   0.186 -0.2835  0.0278 -0.0360
 8474W        W24735  15.002   6.959   2.836 -0.0048  0.2130 -0.1818
 8475W        W24736   9.667  15.604   4.606  0.0429 -0.2668 -0.2881
 8476W        W24737  12.975   5.865   1.021 -0.1796  0.1172 -0.9497
 8477W        W24738   0.488  17.980  11.586 -0.0389 -0.0150  0.1069
 8478W        W24739   9.534   6.287  14.205  0.1663 -0.0157 -0.1848
 8479W        W24740  16.185  12.212   4.407  0.0639 -0.0246  0.4646
 8480W        W24741  16.386  11.090  12.385  0.0295 -0.3740 -0.2832
 8481W        W24742   6.642   3.147   3.926 -0.0416  0.1211  0.1929
 8482W        W24743   9.351   0.522   3.005 -0.0570 -0.1311  0.0351
 8483W        W24744   5.630   0.407  15.268  0.0794 -0.2094  0.1072
 8484W        W24745   8.728   3.668   2.684  0.1842 -0.3785 -0.4402
 8485W        W24746   0.701   1.172   4.730  0.0344  0.1688  0.1899
 8486W        W24747   9.503  12.248  16.157 -0.1130 -0.2072  0.0377
 8487W        W24748   1.640  13.131  12.640 -0.2110 -0.3223  0.0957
 8488W        W24749  16.340   1.653  14.236 -0.2005  0.2500 -0.3609
 8489W        W24750   7.137   5.547   5.569  0.1412  0.2135  0.0594
 8490W        W24751   3.806  11.631   1.148  0.1381  0.2603  0.1436
 8491W        W24752   6.280   2.796  10.653  0.0534  0.0038  0.2383
 8492W        W24753   6.047  10.201  15.853 -0.1196 -0.2173  0.1462
 8493W        W24754   3.454  14.015  14.402  0.3703  0.1141 -0.1647
 8494W        W24755   9.778   9.328  16.057  0.2710 -0.0115 -0.0307
 8495W        W24756  13.992   8.252   1.076 -0.1843  0.3521  0.1155
 8496W        W24757   1.907  18.280   5.265  0.2971 -0.2122 -0.0698
 8497W        W24758   2.900   8.954   4.355  0.0282  0.0919  0.0376
 8498W        W24759  12.267   9.506   5.156 -0.2530  0.0558  0.0482
 8499W        W24760   1.750  11.257  12.362 -0.2081 -0.0194  0.1963
 8500W        W24761  10.222  10.514  14.782 -0.2287  0.3167  0.3460
 8501W        W24762   8.631   6.904  15.553 -0.1557  0.0379  0.2209
 8502W        W24763  16.664  14.347  13.582 -0.5463  0.0146 -0.2530
 8503W        W24764   6.582  16.606   5.380 -0.0966  0.1827  0.3515
 8504W        W24765   9.057  16.160  12.895  0.0146 -0.1214  0.0606
 8505W        W24766  15.765  14.897  12.145 -0.0584 -0.0300  0.2351
 8506W        W24767  16.360  16.000  10.700  0.2852  0.3024  0.2274
 8507W        W24768  15.073   4.171   0.154  0.1086 -0.3233 -0.1746
 8508W        W24769  13.951   5.978   2.663  0.1130 -0.0765 -0.1651
 8509W        W24770  14.813  15.829   4.770 -0.1819  0.2455  0.0530
 8510W        W24771  10.462   1.769   3.460  0.0723 -0.3153  0.0699
 8511W        W24772   6.866   2.564   4.243  0.1267 -0.1605 -0.2152
 8512W        W24773   2.064  12.363  11.282 -0.1083 -0.0696 -0.0783
 8513W        W24774  17.521   9.891   5.228 -0.2431 -0.2477  0.1361
 8514W        W24775   9.095  15.101   0.256  0.1283  0.1894  0.0917
 8515W        W24776  15.837   3.928   4.912 -0.2376  0.4497 -0.1572
 8516W        W24777  17.629  13.452   1.678 -0.0102  0.1133  0.1191
 8517W        W24778   8.003   1.544   3.644 -0.0677  0.1109  0.0396
 8518W        W24779  15.909   3.238   4.732 -0.2126  0.1357 -0.1259
 8519W        W24780  12.583  16.744   1.710 -0.2212  0.1622 -0.0782
 8520W        W24781  18.083  10.069  14.200 -0.0977 -0.2541  0.1035
 8521W        W24782  16.672  11.886  11.617 -0.5757 -0.0140  0.0896
 8522W        W24783  13.554  18.061  13.281  0.0952 -0.1150 -0.1222
 8523W        W24784  11.733  15.692   0.839  0.3517 -0.1430  0.0618
 8524W        W24785   4.832  15.266   4.495  0.2537 -0.0286 -0.1863
 8525W        W24786   9.330   5.406  11.386 -0.1267  0.0364 -0.0176
 8526W        W24787   4.724   0.251   5.532 -0.2404 -0.0303  0.1172
 8527W        W24788   3.592   6.340   2.419 -0.3524 -0.1301 -0.1396
 8528W        W24789  17.536   4.475  12.271 -0.0760 -0.2072  0.2308
 8529W        W24790  17.235  14.495  15.403  0.0257 -0.1740  0.0113
 8530W        W24791   4.577   9.086   4.674  0.1461 -0.1209  0.1885
 8531W        W24792  14.982   3.246  14.426  0.1624 -0.1127  0.3125
 8532W        W24793   4.110  12.536  15.817 -0.1515 -0.0591 -0.0651
 8533W        W24794  15.083  14.541  11.412  0.1399 -0.2853 -0.0130
 8534W        W24795   0.005   8.715  11.691 -0.0583  0.1625  0.0146
 8535W        W24796  11.554  15.478   3.041 -0.0159 -0.0887 -0.0376
 8536W        W24797  13.563  17.821   5.365  0.1719 -0.1506 -0.1594
 8537W        W24798   9.969   5.472   5.420  0.1201 -0.0634 -0.1091
 8538W        W24799   3.266   3.875   2.838 -0.4257 -0.0130 -0.0346
 8539W        W24800   7.103  12.035  12.152  0.1112  0.0937  0.3014
 8540W        W24801   0.197  17.640  12.477  0.3082  0.0253 -0.4753
 8541W        W24802  12.906   4.416  15.341  0.1132 -0.2137 -0.1746
 8542W        W24803   2.612   9.606  12.783 -0.0430 -0.1500 -0.2887
 8543W        W24804  13.579  18.019   2.423  0.2287 -0.3065 -0.4957
 8544W        W24805  12.543  11.863  14.903  0.3399  0.1589 -0.1964
 8545W        W24806   7.136  12.127   4.992  0.1796  0.1510  0.1473
 8546W        W24807   3.622  10.589  11.079  0.1695  0.2999 -0.2771
 8547W        W24808   0.120   8.317  15.502 -0.2513 -0.3974  0.4533
 8548W        W24809  13.928   3.550  12.363 -0.0229  0.3911  0.2588
 8549W        W24810  17.086   4.831  15.334  0.1821  0.2005  0.3365
 8550W        W24811  11.245   2.729   3.359  0.1127  0.2207  0.0110
 8551W        W24812   9.995  12.654   2.040 -0.4236  0.0298  0.0411
 8552W        W24813  16.517   2.188  10.863 -0.0135 -0.0718  0.4568
 8553W        W24814  13.495  10.887  12.274 -0.0490  0.1155  0.0257
 8554W        W24815  12.240   8.484  12.621 -0.0802 -0.1077 -0.1446
 8555W        W24816   7.176   0.084   2.152 -0.0550  0.1913 -0.1987
 8556W        W24817   5.587   6.598   1.080  0.0750  0.0139  0.2378
 8557W        W24818  13.629   5.784  12.868 -0.1636 -0.0893  0.2843
 8558W        W24819  13.997   1.410  11.187  0.0044  0.0739 -0.4118
 8559W        W24820  10.057  14.774   5.314  0.0431  0.0400  0.3815
 8560W        W24821   8.035  10.719   1.564  0.0208  0.1021  0.4116
 8561W        W24822   3.351  17.641  12.496 -0.0196 -0.1158 -0.0346
 8562W        W24823  14.544  16.221  15.441  0.1882  0.0663 -0.1478
 8563W        W24824   5.553   4.573  13.338 -0.0133  0.0083 -0.2046
 8564W        W24825  14.909   6.295  15.260 -0.0121  0.0789 -0.1075
 8565W        W24826  18.291  10.971   2.021 -0.1366  0.0888 -0.0397
 8566W        W24827   5.420  10.109   2.261  0.0669  0.0178  0.0402
 8567W        W24828  13.817   0.316   0.561  0.2381 -0.0478  0.0454
 8568W        W24829  12.368   5.137   3.430 -0.1309 -0.3069 -0.1681
 8569W        W24830  15.059  17.739  10.612 -0.1488 -0.2602  0.0982
 8570W        W24831  18.041  13.038  12.116  0.0048  0.1636 -0.2200
 8571W        W24832   5.221   7.855   4.463 -0.0950 -0.2633  0.0915
 8572W        W24833   6.666   2.338   6.091 -0.0578 -0.0122 -0.2532
 8573W        W24834   9.484   9.843   3.049 -0.1077  0.0893  0.0405
 8574W        W24835   2.207  10.247  15.003  0.1788 -0.2278 -0.3064
 8575W        W24836  14.513   2.011   4.191  0.2018 -0.0926 -0.0096
 8576W        W24837   6.445   7.051   0.917  0.1122 -0.0440 -0.1534
 8577W        W24838  17.850  17.162   2.311  0.0495 -0.1304 -0.0285
 8578W        W24839  12.029  10.582   0.763 -0.0644 -0.0090  0.0262
 8579W        W24840  12.974  10.021   0.949  0.3478 -0.1673  0.0097
 8580W        W24841   0.775   2.899   0.439 -0.0367 -0.0644 -0.3853
 8581W        W24842   9.923  16.430  12.883 -0.0654  0.2080  0.2300
 8582W        W24843   3.915   9.033  11.604  0.0026  0.1247  0.2993
 8583W        W24844   9.805   4.796   1.543  0.0056  0.0277 -0.0159
 8584W        W24845   6.188   9.299  14.754 -0.0860  0.3273  0.3572
 8585W        W24846   6.976  16.642  11.958  0.2484  0.0901  0.0282
 8586W        W24847   2.162  17.164  13.529 -0.1319 -0.2951  0.1528
 8587W        W24848  11.893   7.269  12.245  0.3376  0.0254  0.1417
 8588W        W24849   7.216  10.558  11.443  0.0975  0.0686 -0.1368
 8589W        W24850   2.203   5.900  13.112 -0.0271  0.0025 -0.4003
 8590W        W24851  14.296  17.971   4.948 -0.0753  0.3977  0.0889
 8591W        W24852   4.913  12.265  12.754 -0.1588 -0.1801 -0.0470
 8592W        W24853  10.530   8.648  13.822  0.2074 -0.0222  0.3261
 8593W        W24854   9.566   5.262   4.727 -0.0584 -0.3052 -0.2602
 8594W        W24855  11.793  17.723   4.366  0.2327 -0.1195 -0.0162
 8595W        W24856  17.554  16.995  14.076  0.1774 -0.0472 -0.0233
 8596W        W24857  16.130  11.828   4.830 -0.0563 -0.0947  0.4048
 8597W        W24858   7.224  10.808   5.014  0.3109 -0.2286 -0.0879
 8598W        W24859   0.514   7.425  14.035 -0.3016 -0.0566  0.0835
 8599W        W24860   3.850   7.297   0.891 -0.1498  0.0716 -0.0578
 8600W        W24861  13.541   3.978   4.771 -0.0677 -0.0012 -0.1126
 8601W        W24862   4.980   2.352   0.564  0.0795 -0.0262  0.0982
 8602W        W24863  18.120  15.224  11.208 -0.0305  0.1616 -0.1585
 8603W        W24864  10.435  14.403  11.584 -0.2157 -0.1307  0.0030
 8604W        W24865   4.141  11.637   5.228 -0.0475 -0.1638 -0.0224
 8605W        W24866  14.085   3.893  15.993  0.1969 -0.2107  0.0408
 8606W        W24867   3.974  16.108  14.168 -0.0800 -0.0095 -0.1412
 8607W        W24868   2.128  14.685  12.671  0.1028 -0.1946 -0.1160
 8608W        W24869  14.671   4.097   4.314  0.0910 -0.1090  0.1147
 8609W        W24870  16.796   9.859   0.410 -0.0141 -0.2191  0.2704
 8610W        W24871   6.721   8.389   5.778  0.2559  0.0105 -0.1003
 8611W        W24872   1.879   3.502  15.482 -0.2105  0.1697  0.3153
 8612W        W24873   5.243   3.420  12.298  0.1024  0.2485 -0.1965
 8613W        W24874   7.002  17.827  13.537 -0.0853 -0.0846  0.0040
 8614W        W24875  12.927   1.085   0.491 -0.0801 -0.1532  0.1473
 8615W        W24876  15.565  13.077   0.098 -0.1025  0.0454  0.2843
 8616W        W24877   4.192  14.875  14.981 -0.0633 -0.3066  0.1393
 8617W        W24878  12.797   7.586   2.742  0.2028 -0.1551  0.3012
 8618W        W24879  15.462   0.462   2.644 -0.0186 -0.1635  0.0265
 8619W        W24880   4.802   2.253  13.827  0.0717  0.0186 -0.0750
 8620W        W24881   0.464   5.977   5.134 -0.1361 -0.0568  0.0788
 8621W        W24882   0.173   6.778  11.518 -0.0928 -0.0343 -0.1405
 8622W        W24883   8.896  12.069   3.316  0.0965  0.3140  0.3837
 8623W        W24884  13.495  18.109  11.402 -0.1974  0.2938 -0.3975
 8624W        W24885   7.023  10.231   1.946  0.0511 -0.2306 -0.0734
 8625W        W24886  17.119  15.714   4.258 -0.0505 -0.2852  0.0314
 8626W        W24887   1.167   6.798  14.325 -0.0450 -0.3434  0.0394
 8627W        W24888  15.112  16.535  16.100  0.0884  0.2932  0.1955
 8628W        W24889  16.802  18.191  14.752  0.1536  0.2003  0.2106
 8629W        W24890  17.310   8.858  16.043  0.0676  0.1048 -0.1167
 8630W        W24891   3.319   3.771  14.324  0.1323 -0.3131  0.4176
 8631W        W24892   7.995  18.467  15.815 -0.0157 -0.2436  0.1531
 8632W        W24893  15.950   8.233  10.805  0.0056  0.0813 -0.3911
 8633W        W24894   7.271  14.537  13.472  0.1196  0.0816  0.0894
 8634W        W24895  16.766  18.381   1.610  0.2276  0.1648  0.1963
 8635W        W24896  15.808   3.895  12.927 -0.0604 -0.1992  0.1179
 8636W        W24897   1.732   4.069   3.791 -0.2265  0.0885 -0.1941
 8637W        W24898  12.756   5.544  14.097  0.0361  0.0328 -0.3774
 8638W        W24899   4.877  12.603  15.684  0.1455  0.1653 -0.0473
 8639W        W24900  12.573  11.959   4.056 -0.1312 -0.1575 -0.2764
 8640W        W24901  14.387   8.928   0.411  0.0802 -0.0252  0.3322
 8641W        W24902  14.020  17.629   3.691  0.1123 -0.2577  0.2801
 8642W        W24903  15.477  13.361  10.441  0.0375 -0.0967 -0.1496
 8643W        W24904  13.693  12.821  15.090 -0.1288  0.1930 -0.2889
 8644W        W24905  17.575   3.518   1.951 -0.0305  0.0947 -0.0303
 8645W        W24906   4.662   4.707   0.271 -0.2014 -0.0241 -0.2387
 8646W        W24907   0.652   5.866   4.091 -0.0396 -0.1300  0.1403
 8647W        W24908   3.995  15.063  15.346  0.0440  0.2889 -0.4266
 8648W        W24909  12.274   6.684   2.667 -0.0902 -0.1207 -0.1634
 8649W        W24910  16.001  17.306  14.825 -0.1134  0.3913 -0.1514
 8650W        W24911  10.328   7.266   5.507 -0.0585 -0.2921 -0.1875
 8651W        W24912  17.030  10.959  16.118 -0.0701 -0.0151 -0.1753
 8652W        W24913   3.532  18.454   2.203 -0.1890  0.2201  0.0705
 8653W        W24914  14.790  13.480  14.457  0.0335  0.1833 -0.1004
 8654W        W24915   4.081   6.121   5.826  0.0883 -0.1565 -0.2913
 8655W        W24916   4.451   9.305  11.550  0.4848  0.1294 -0.0510
 8656W        W24917   3.050   9.097  10.899  0.2884 -0.0282  0.0846
 8657W        W24918  17.470  16.931  11.584  0.0244  0.1663 -0.1109
 8658W        W24919   4.544   0.136  13.720  0.2138  0.1937 -0.0654
 8659W        W24920  15.572  17.351  12.239  0.1088  0.3088 -0.0999
 8660W        W24921   9.452   1.126  14.334 -0.1945 -0.1962  0.1826
 8661W        W24922   9.188  17.317   0.623  0.1037 -0.0348 -0.0380
 8662W        W24923  17.322  10.025  15.368 -0.0235  0.1877 -0.2155
 8663W        W24924  16.236   6.124  12.644 -0.0734  0.0643 -0.1455
 8664W        W24925  10.995   6.180  14.368 -0.1469  0.0935 -0.1972
 8665W        W24926  17.556   8.309  13.907  0.0926  0.0265 -0.0798
 8666W        W24927  12.615  13.531  16.073 -0.2030 -0.1531 -0.2799
 8667W        W24928  10.690   0.907  13.429 -0.3050 -0.0356  0.3715
 8668W        W24929   5.418   9.261   3.213 -0.1000  0.3645  0.2468
 8669W        W24930  15.375  13.374   2.780 -0.0188  0.0212  0.1354
 8670W        W24931  12.100   4.072   2.131  0.2921  0.1206  0.2337
 8671W        W24932  13.471  17.641   0.455 -0.1528 -0.0754  0.0860
 8672W        W24933  10.172   0.721   1.631  0.1406  0.2486  0.1701
 8673W        W24934  16.899   2.886  12.020  0.0926 -0.0405 -0.0539
 8674W        W24935  13.916   1.765  13.068 -0.4022 -0.1182  0.1277
 8675W        W24936   7.962   5.928  12.715 -0.0487  0.4541  0.0444
 8676W        W24937   5.191   8.214  15.608 -0.1045 -0.2588  0.2144
 8677W        W24938   5.436   8.970  12.385  0.3156 -0.4266  0.0951
 8678W        W24939   0.559   9.700   5.177  0.1679  0.3889 -0.0121
 8679W        W24940   8.467  18.000   1.218 -0.0638  0.0361 -0.0478
 8680W        W24941  12.268   7.380  12.511  0.4404 -0.4538  0.1094
 8681W        W24942   6.779  16.017   2.834 -0.1756 -0.1700 -0.2896
 8682W        W24943   0.748   1.891   5.381  0.0781  0.0018 -0.4627
 8683W        W24944   3.944  16.205   3.219  0.2202  0.0495 -0.1919
 8684W        W24945  17.106   1.945   3.559  0.1973  0.2351 -0.0089
 8685W        W24946   6.416  18.361  12.992  0.0681  0.3920 -0.0222
 8686W        W24947  11.526   7.645   1.710 -0.4174  0.0494  0.1253
 8687W        W24948  14.356  17.541  11.685 -0.1824  0.1882  0.4047
 8688W        W24949   6.610  17.254  14.315 -0.3141 -0.1996  0.1160
 8689W        W24950   3.059   5.763  15.733 -0.1197 -0.2565 -0.1603
 8690W        W24951   1.005   9.580   4.564  0.1884  0.0018  0.0007
 8691W        W24952  10.093  18.466   0.513  0.2784  0.2112 -0.2006
 8692W        W24953   7.898  12.256  11.771 -0.3212  0.2012  0.1005
 8693W        W24954  10.548   3.493   2.401  0.0927  0.0349  0.0668
 8694W        W24955   0.794   4.809   2.992  0.1460  0.0066  0.1183
 8695W        W24956   4.303   9.911  14.197 -0.0445 -0.0739 -0.1741
 8696W        W24957  15.490   3.109  14.435  0.0118 -0.1734 -0.1663
 8697W        W24958   0.339  16.205   4.462 -0.0173 -0.2603 -0.1225
 8698W        W24959  16.242   6.511   1.268  0.0598  0.0507 -0.3521
 8699W        W24960   6.387   2.892   3.477  0.1420  0.0939 -0.0845
 8700W        W24961  16.274  14.042   2.965  0.0169 -0.2619  0.0320
 8701W        W24962  13.509   2.486   4.979 -0.1736 -0.0252 -0.2260
 8702W        W24963   3.577   1.891   1.153 -0.0123 -0.1027 -0.1489
 8703W        W24964  17.422  11.792  15.214  0.0383 -0.0288 -0.0569
 8704W        W24965   0.821  16.021   2.419 -0.1808 -0.4121  0.1051
 8705W        W24966  17.197  12.997  13.743  0.2875  0.0229 -0.0102
 8706W        W24967  13.332   8.769   2.052  0.1094  0.0990 -0.0025
 8707W        W24968  11.242   8.542  15.876 -0.0890  0.2185  0.2062
 8708W        W24969  14.040   5.430   2.422  0.0095 -0.1485 -0.1083
 8709W        W24970  13.051  13.323  14.887 -0.3223  0.3777  0.4383
 8710W        W24971  12.783  14.020   1.941  0.0468  0.0763 -0.0393
 8711W        W24972  12.245  18.442  14.217  0.1055 -0.0689  0.0796
 8712W        W24973   0.585  13.149  11.677  0.2014 -0.0310 -0.1558
 8713W        W24974   5.828   1.300   4.775 -0.2792  0.2747 -0.0153
 8714W        W24975  10.286  12.570   4.623  0.1165 -0.1051 -0.1271
 8715W        W24976  15.471  17.478  11.449  0.1172 -0.0777 -0.0596
 8716W        W24977   9.870   0.405   0.337  0.1278 -0.0163 -0.0662
 8717W        W24978   6.320  10.056  10.524  0.1079  0.2273  0.0554
 8718W        W24979   9.717  18.131  11.264 -0.3336 -0.1263  0.1598
 8719W        W24980  17.352   2.129   3.912 -0.0986 -0.0607  0.4304
 8720W        W24981   9.989  16.053   1.701  0.2512 -0.0161 -0.0419
 8721W        W24982   0.406  14.419   1.304  0.0166 -0.1025 -0.0815
 8722W        W24983  15.692   4.886  16.118 -0.1355 -0.2537 -0.0661
 8723W        W24984   4.849  11.665  11.643 -0.0215  0.2482  0.0345
 8724W        W24985   5.741   7.356  12.413  0.2196 -0.2353  0.1179
 8725W        W24986   0.329   6.253  13.567 -0.2216  0.0008 -0.0335
 8726W        W24987  11.326  16.104   2.439  0.0289  0.1314 -0.2799
 8727W        W24988   5.557  15.144  13.080 -0.4175 -0.1028  0.1113
 8728W        W24989   1.115   9.349   1.039 -0.0677  0.3133  0.2344
 8729W        W24990  14.305   2.475   1.830  0.1316  0.0162 -0.1143
 8730W        W24991   9.228   1.572  13.314  0.0433  0.1118 -0.2022
 8731W        W24992  18.285  13.997   0.324  0.0328  0.0325  0.1184
 8732W        W24993  17.167   2.431  12.168  0.2324  0.1536 -0.1807
 8733W        W24994  15.051   7.477   4.094 -0.0304 -0.2998 -0.0203
 8734W        W24995   6.352   6.682  12.795  0.1999  0.0995  0.2215
 8735W        W24996  16.746   7.858  14.814 -0.0418 -0.2172 -0.0879
 8736W        W24997  15.044  15.383   3.882  0.2015  0.0099 -0.1364
 8737W        W24998   2.411   7.485   0.849  0.0385  0.6149  0.0164
 8738W        W24999  10.578  15.735   5.214  0.0859 -0.0274 -0.0953
 8739W        W25000   8.614   3.621  15.594  0.3576  0.1058 -0.0138
 8740W        W25001   3.632   9.442  14.634  0.0269  0.2901  0.0698
 8741W        W25002   0.615   9.863  15.219 -0.0138 -0.0615  0.2382
 8742W        W25003   1.118  12.573  12.202 -0.1266  0.0182 -0.1182
 8743W        W25004  13.508   5.821  15.326 -0.2067 -0.0610  0.0665
 8744W        W25005  13.557  11.070  13.531 -0.2433 -0.0415  0.0390
 8745W        W25006   4.706   4.136   5.553  0.2548  0.0027  0.1574
 8746W        W25007   7.020  17.742   4.770 -0.1678  0.1068  0.1993
 8747W        W25008   6.332  17.808   0.643  0.1784  0.1700 -0.2226
 8748W        W25009  15.644   0.761   5.553  0.2438 -0.1084  0.1182
 8749W        W25010  12.615  18.334   1.170  0.1986 -0.0672  0.0511
 8750W        W25011  17.641   3.822  15.258 -0.2065  0.1831 -0.1810
 8751W        W25012   8.033   9.546  11.607  0.0526  0.2278  0.0488
 8752W        W25013   4.247  17.964  13.397  0.1845  0.0028  0.0009
 8753W        W25014   6.762   6.473  13.057 -0.0989 -0.0365 -0.1009
 8754W        W25015  10.253   5.325  13.725 -0.4710 -0.0172  0.1487
 8755W        W25016   4.285   5.714   4.444  0.1170  0.2799 -0.0849
 8756W        W25017  11.850   9.582  15.716  0.1391  0.0916 -0.1373
 8757W        W25018   5.980  12.466   5.757 -0.1898  0.0448  0.3154
 8758W        W25019  14.383  15.471  10.447 -0.0760 -0.2293 -0.0813
 8759W        W25020  11.850  10.591   1.274 -0.0058 -0.2193 -0.2693
 8760W        W25021   8.600   8.667  13.495  0.1137  0.1623  0.0772
 8761W        W25022   1.300  11.067  12.021 -0.2384  0.0673 -0.2818
 8762W        W25023   4.794   9.402  13.524 -0.0838  0.0500  0.0768
 8763W        W25024  16.493   3.104  12.421 -0.1552 -0.0367 -0.1102
 8764W        W25025   7.715  12.616  11.471 -0.1789 -0.0232 -0.0516
 8765W        W25026   7.797  14.459   1.658 -0.0137  0.1631  0.4429
 8766W        W25027  16.577  14.690  14.131  0.1488 -0.0484 -0.0500
 8767W        W25028   0.296   2.144   5.309 -0.1876 -0.1593  0.4426
 8768W        W25029  14.854   3.302   2.913 -0.3399 -0.2492 -0.1599
 8769W        W25030  12.015  15.598  12.995  0.0910  0.1227  0.2224
 8770W        W25031   6.760   1.859   1.050  0.0043  0.0120 -0.3527
 8771W        W25032   5.081  17.559   2.464  0.0035  0.0189 -0.1978
 8772W        W25033  11.618  10.920   2.087  0.0590  0.0553 -0.0310
 8773W        W25034  18.183   4.689  14.134  0.3279 -0.3884  0.1222
 8774W        W25035   1.847  17.211  15.705  0.1112  0.0590 -0.1573
 8775W        W25036   9.938   9.825  12.241  0.0771 -0.0978  0.1951
 8776W        W25037  10.154   7.006   0.070  0.1173 -0.1782 -0.0053
 8777W        W25038   3.732   6.150  14.925 -0.1776  0.0242 -0.0363
 8778W        W25039   9.000   5.621   6.043 -0.2483  0.2012  0.1633
 8779W        W25040   1.152   4.107  13.026 -0.0366 -0.1050 -0.1006
 8780W        W25041  14.642  14.085   0.640 -0.0618 -0.1393  0.1246
 8781W        W25042  10.019   4.100  13.032  0.1600 -0.1353  0.2508
 8782W        W25043  11.929  15.004   2.964 -0.3055  0.0852  0.1101
 8783W        W25044   8.441   4.433   3.785 -0.0284 -0.0249  0.3345
 8784W        W25045  13.344  15.003   4.028 -0.1535 -0.0660  0.2132
 8785W        W25046   1.256  13.654  15.729  0.0609  0.0059 -0.1144
 8786W        W25047   2.928   2.800  14.945  0.1489 -0.0123  0.0215
 8787W        W25048  12.609   4.949   4.710 -0.0065 -0.1610 -0.0179
 8788W        W25049  13.951   3.314  11.577 -0.1400 -0.1104 -0.1803
 8789W        W25050   3.365   8.650   0.868  0.0312  0.2543  0.2744
 8790W        W25051  10.635   2.164   0.174 -0.1167 -0.0322 -0.2620
 8791W        W25052  10.687   9.662  11.192  0.0172 -0.0312  0.3381
 8792W        W25053   5.324  10.863   4.282 -0.0028 -0.0198 -0.1722
 8793W        W25054  13.880   0.919   3.906  0.6406  0.1929  0.1223
 8794W        W25055   5.597   4.949   2.826 -0.0353  0.1715 -0.0262
 8795W        W25056  18.111   2.780  14.606 -0.0367  0.1394 -0.3274
 8796W        W25057   1.524  13.774   2.699  0.0723  0.4528 -0.1536
 8797W        W25058   4.734   0.774  12.885 -0.0279 -0.1464  0.0805
 8798W        W25059   4.730  12.642   2.492  0.0275  0.0356  0.1454
 8799W        W25060  14.687  10.228  12.821 -0.1363  0.2050  0.2527
 8800W        W25061  17.364  12.983   4.710 -0.0589 -0.0859 -0.0794
 8801W        W25062   7.402  12.275   0.844  0.3628  0.0908  0.1580
 8802W        W25063  16.190   3.425  12.936 -0.1124 -0.1598  0.0140
 8803W        W25064  15.568   2.148  16.071 -0.0163  0.3769  0.2179
 8804W        W25065  13.633   3.143  14.345 -0.0112 -0.2262 -0.3011
 8805W        W25066   1.113   5.129  12.791  0.2634  0.0302 -0.2013
 8806W        W25067  14.820   1.708   1.468  0.2515 -0.1277 -0.3076
 8807W        W25068  11.840  10.855  14.763 -0.0566 -0.0209  0.0189
 8808W        W25069   7.752  10.346   2.545 -0.0484 -0.1034  0.2293
 8809W        W25070  15.825   9.209  11.039 -0.1671 -0.1546 -0.1724
 8810W        W25071   8.532   6.106   3.772  0.4312  0.3674 -0.3427
 8811W        W25072  13.452   2.159  11.232  0.3386 -0.4216 -0.1245
 8812W        W25073   2.456  16.531   2.511 -0.0116 -0.2441  0.2715
 8813W        W25074   3.776  11.628   3.102  0.2979 -0.0484 -0.1049
 8814W        W25075   1.628   4.279  14.480 -0.3662  0.1551  0.1228
 8815W        W25076  11.023   7.473  11.625 -0.0869 -0.1728 -0.1389
 8816W        W25077  12.963  14.339   4.223  0.0709 -0.0710  0.1699
 8817W        W25078   5.099   1.884   3.176 -0.1677  0.1314 -0.0047
 8818W        W25079   2.613   7.453   5.567 -0.2012 -0.0687  0.0137
 8819W        W25080   2.973   4.512   1.669 -0.2672  0.2296 -0.2100
 8820W        W25081   6.622  12.167  15.176  0.3302 -0.0245 -0.0003
 8821W        W25082   3.303   0.335   3.339  0.0323  0.0579  0.0666
 8822W        W25083  12.283  14.231   2.418  0.2570 -0.2610  0.1908
 8823W        W25084  15.500  11.563   1.462 -0.1987  0.1915  0.1137
 8824W        W25085   3.333  17.985   3.167 -0.0224  0.1443  0.2518
 8825W        W25086  18.236  11.273  12.006  0.0551  0.2050  0.2360
 8826W        W25087   7.442  14.197  14.662 -0.1680 -0.0244 -0.4443
 8827W        W25088   7.259   5.961   3.068  0.3554 -0.0276  0.0087
 8828W        W25089  15.782  15.176   2.900 -0.2087  0.1494  0.0261
 8829W        W25090  14.221  12.750   2.346  0.1098  0.3505 -0.2426
 8830W        W25091   9.112  15.371  12.251  0.0513 -0.2046 -0.0671
 8831W        W25092   4.271  11.890   2.030 -0.1817  0.0959 -0.2456
 8832W        W25093  13.859   5.684  14.467 -0.0802  0.4734 -0.0180
 8833W        W25094   5.853  11.547   5.388  0.1412  0.0384  0.1090
 8834W        W25095   0.543  10.418   5.072 -0.2043 -0.0841  0.2274
 8835W        W25096   3.019   8.031  14.942 -0.0263  0.1707 -0.0711
 8836W        W25097   7.683   8.576   1.284  0.0060 -0.2430 -0.1015
 8837W        W25098   3.521   0.821   1.453 -0.1759  0.2313  0.0171
 8838W        W25099  12.156   0.112   1.276 -0.1315  0.0842  0.3243
 8839W        W25100   9.756   2.100   1.155  0.2748  0.0182  0.0653
 8840W        W25101   0.931   4.015   0.413  0.0658  0.0333 -0.2006
 8841W        W25102  14.676  18.293  11.752  0.1188  0.1222  0.1324
 8842W        W25103  17.776   9.995  14.679  0.1111 -0.3034 -0.2444
 8843W        W25104   9.576  14.779   4.053  0.1964 -0.0225 -0.0167
 8844W        W25105  11.311  10.048  11.707  0.3081  0.2913  0.0312
 8845W        W25106   9.879   7.819  12.102 -0.1344 -0.0194  0.1078
 8846W        W25107   9.719   1.310   1.721  0.1510  0.2101  0.1722
 8847W        W25108   5.441   7.841  14.631  0.1263 -0.0385  0.1096
 8848W        W25109  18.166   9.284  13.859 -0.4717 -0.1074  0.0968
 8849W        W25110  15.195   1.993   3.775  0.1110  0.0472  0.2683
 8850W        W25111  16.481   9.846   6.143 -0.1679  0.2650 -0.1385
 8851W        W25112  11.917   1.263   0.103 -0.0265 -0.0065 -0.2098
 8852W        W25113   6.699   9.469  16.054 -0.4089  0.2862 -0.2032
 8853W        W25114   4.021   3.779   1.627  0.1328  0.1781 -0.3434
 8854W        W25115  13.545   1.687   2.207 -0.2955 -0.0898 -0.0752
 8855W        W25116  16.795   5.670   2.194  0.2803  0.0399 -0.1069
 8856W        W25117  17.565  14.319  12.040  0.1292  0.1234 -0.3523
 8857W        W25118  17.988  17.989  13.717  0.2093 -0.1104 -0.1255
 8858W        W25119  17.621  17.363   0.124  0.2188 -0.0318 -0.0431
 8859W        W25120   5.689   1.014  14.290 -0.1395 -0.1143 -0.1236
 8860W        W25121  16.253   8.319  13.595  0.1563 -0.0177  0.0490
 8861W        W25122   0.280   0.471   1.682 -0.4244  0.1875 -0.0207
 8862W        W25123  13.530   9.531   2.634  0.1955 -0.0101 -0.1039
 8863W        W25124  11.022  11.674  13.642 -0.3852  0.3446  0.4276
 8864W        W25125  13.599  12.764  15.586 -0.3865 -0.0342  0.3136
 8865W        W25126   6.215   8.705   2.911 -0.0978  0.5729 -0.2215
 8866W        W25127  15.047   8.658   1.664 -0.0531 -0.1694 -0.2082
 8867W        W25128  17.433   1.790  14.933  0.0387  0.0335 -0.0720
 8868W        W25129   9.416  16.230  14.069 -0.0108 -0.3101 -0.3192
 8869W        W25130   3.338  16.631   1.115 -0.1786 -0.1144  0.2657
 8870W        W25131  10.598   0.679   2.616  0.1666  0.1086  0.0411
 8871W        W25132  12.134   3.178   3.146  0.1163 -0.2892 -0.1662
 8872W        W25133   1.655   9.065   3.550  0.1679  0.4620  0.0301
 8873W        W25134   0.560   4.525  13.220 -0.0424 -0.0821 -0.1086
 8874W        W25135   2.310  11.544   6.418  0.0314  0.1579 -0.0109
 8875W        W25136  13.630   6.433   0.983  0.0685 -0.0168  0.0473
 8876W        W25137  18.360  12.781   4.362  0.0885 -0.0755  0.1312
 8877W        W25138   7.612   0.326  13.037  0.1565  0.0341 -0.1696
 8878W        W25139   2.617   6.660  14.616  0.2870  0.1111  0.0060
 8879W        W25140  18.480  12.524   5.381 -0.5000 -0.1377 -0.3041
 8880W        W25141  13.703   8.722  12.188  0.0952 -0.0308 -0.1691
 8881W        W25142  10.275  14.936  15.765 -0.0542 -0.1372  0.0072
 8882W        W25143  13.858  14.048  11.072  0.2056 -0.1960  0.0684
 8883W        W25144  16.562   5.699  14.285  0.3482  0.1425  0.0053
 8884W        W25145   3.026  10.830   2.910 -0.1806 -0.0657 -0.2121
 8885W        W25146   1.092   7.252   5.698  0.0272  0.2016  0.3246
 8886W        W25147   1.548  10.401   5.784 -0.1242 -0.2303  0.1207
 8887W        W25148   5.554   7.704   5.313  0.4119 -0.2170  0.0051
 8888W        W25149  13.317   1.984   4.685  0.0504  0.2259 -0.1752
 8889W        W25150   1.960  13.854  14.823  0.0940  0.2717 -0.0793
 8890W        W25151  10.048  11.107  12.784  0.1641 -0.1126 -0.2392
 8891W        W25152  13.994  15.668   5.504 -0.1541 -0.1905  0.0772
 8892W        W25153   4.002   3.252   3.469 -0.1547 -0.4100  0.2417
 8893W        W25154  14.773  11.842  11.540 -0.2134 -0.4793 -0.0826
 8894W        W25155   4.252  15.304  13.691 -0.2752 -0.0368 -0.3880
 8895W        W25156  13.325   5.492   3.739 -0.2690  0.2289  0.0272
 8896W        W25157   0.521   5.712  12.531 -0.1546  0.1107 -0.1418
 8897W        W25158   4.782  11.248  12.502  0.0901  0.0713 -0.2041
 8898W        W25159   0.125   8.311  14.157 -0.0730  0.0301  0.4137
 8899W        W25160  10.316  18.057   0.326 -0.0120  0.0116 -0.1867
 8900W        W25161   2.567   5.553  12.255 -0.2045  0.0457  0.0933
 8901W        W25162   0.509  11.640   1.699 -0.0161 -0.1469 -0.0403
 8902W        W25163   6.133  15.758  13.303 -0.0201 -0.0600  0.0921
 8903W        W25164  17.788  12.558   2.251 -0.3351 -0.0595  0.0542
 8904W        W25165  17.396   4.186   3.372 -0.0918  0.0499 -0.0832
 8905W        W25166   9.830  17.089   1.945  0.2246  0.1979 -0.1339
 8906W        W25167  16.691  17.353  13.529  0.1726 -0.1115  0.1143
 8907W        W25168   0.424   6.607  15.933  0.1639 -0.0773  0.1841
 8908W        W25169  14.733  13.451   2.278  0.0743  0.0772  0.4673
 8909W        W25170   1.003   3.106   4.760 -0.1964 -0.0347  0.1653
 8910W        W25171  14.693   8.294   2.901  0.0774 -0.4288  0.1404
 8911W        W25172  15.585  11.125  12.909 -0.0664  0.2413 -0.0235
 8912W        W25173  10.596  11.404   0.131  0.0684  0.0800  0.3807
 8913W        W25174  16.887   1.398   5.785 -0.2712 -0.0027  0.0340
 8914W        W25175  17.789   2.458  13.834 -0.2095  0.2085 -0.1930
 8915W        W25176   5.415   0.910   5.944 -0.2111  0.3353 -0.0426
 8916W        W25177   8.678  15.562  15.494 -0.1777  0.1286  0.3228
 8917W        W25178   9.947  15.233  15.486  0.0128  0.1864  0.0009
 8918W        W25179  15.124   0.607  15.219  0.0676  0.0959 -0.0579
 8919W        W25180   6.327   4.918  14.753  0.0104  0.0698  0.0481
 8920W        W25181  10.882   8.478   5.645 -0.2249  0.1495  0.1813
 8921W        W25182   8.192   9.737   6.309 -0.1946  0.1024  0.1901
 8922W        W25183   6.207  18.025  15.327 -0.0169 -0.2044  0.2061
 8923W        W25184   7.108   1.788   1.730 -0.0321 -0.0517  0.2376
 8924W        W25185   6.008   7.294   1.231  0.1980 -0.1226 -0.0582
 8925W        W25186   4.383   9.582  12.347  0.0420 -0.0903 -0.3755
 8926W        W25187  14.577   2.858   4.918 -0.0555  0.0534 -0.2082
 8927W        W25188   2.486  16.396  13.772  0.2383  0.1466 -0.0679
 8928W        W25189   9.904  17.877   1.713 -0.0678 -0.2197 -0.1159
 8929W        W25190  13.551  13.594  11.246 -0.3345  0.2731 -0.4598
 8930W        W25191  12.695   8.604  15.396  0.0816 -0.0951 -0.1387
 8931W        W25192   6.337  14.974   4.044  0.1540 -0.2020 -0.0492
 8932W        W25193  12.300   0.497   2.726 -0.1795 -0.2924  0.0960
 8933W        W25194  12.380   2.115   0.115 -0.1843  0.2226  0.2880
 8934W        W25195  18.000   7.748  11.971  0.1023  0.0980 -0.0849
 8935W        W25196  13.901   6.106   5.069 -0.0133 -0.0479  0.1876
 8936W        W25197  12.977  18.269  11.320  0.1608 -0.3506  0.0030
 8937W        W25198  17.476  15.968   1.900 -0.2255  0.3404 -0.3387
 8938W        W25199  16.748  16.819  14.594 -0.1185 -0.2589 -0.0367
 8939W        W25200   1.977  14.915   4.388  0.0627 -0.0988 -0.1184
 8940W        W25201   9.392   1.587   3.462  0.0482  0.3158  0.1221
 8941W        W25202   3.962   6.443   3.975  0.1343  0.4085  0.0166
 8942W        W25203   3.212  15.249  14.771 -0.2017 -0.2146  0.4452
 8943W        W25204  15.388  12.505  11.543  0.1313  0.2263 -0.0142
 8944W        W25205  16.158  13.355   2.104  0.0700  0.0276 -0.0806
 8945W        W25206  13.946   4.093   3.126 -0.1874 -0.1262 -0.0045
 8946W        W25207   9.095  14.434  13.549  0.0145  0.1901 -0.0805
 8947W        W25208  13.423  15.893  14.335 -0.1116 -0.0108  0.0479
 8948W        W25209   2.342   3.751   0.900 -0.1168  0.3439  0.3776
 8949W        W25210  13.164   4.456   0.507 -0.1799  0.0651 -0.1742
 8950W        W25211   4.804  16.740   2.988 -0.2507  0.0152  0.0003
 8951W        W25212   7.342   9.218  14.199  0.0390  0.2819  0.3607
 8952W        W25213  10.023   2.772  12.034 -0.1471 -0.1203 -0.0156
 8953W        W25214   7.801   6.411  13.468 -0.3881  0.0864  0.3302
 8954W        W25215   6.471   6.030  13.894 -0.0714  0.2461  0.2072
 8955W        W25216  10.464  12.950   3.439 -0.0195 -0.1397  0.1128
 8956W        W25217  14.908   7.305  15.369  0.2208 -0.1292  0.1297
 8957W        W25218   3.740  11.986   2.727  0.0872  0.3727  0.1590
 8958W        W25219  15.907   1.741  13.870  0.1858 -0.1086 -0.1427
 8959W        W25220   1.053   3.040   4.081 -0.1433 -0.2498  0.3308
 8960W        W25221  10.774  13.688   5.353  0.2919  0.0443  0.1846
 8961W        W25222   8.619   9.839   5.724  0.1527 -0.1888  0.0486
 8962W        W25223  11.002   0.465   4.786  0.0077  0.2328 -0.1541
 8963W        W25224   4.196  16.641  16.149 -0.1066  0.2531 -0.1391
 8964W        W25225  14.338  16.530   0.500 -0.1473  0.0843  0.0686
 8965W        W25226  17.318  12.009  16.145 -0.1199 -0.2606 -0.2632
 8966W        W25227   0.954  17.426   5.269 -0.3251  0.1738 -0.0640
 8967W        W25228  11.569  10.884   3.082  0.3289  0.0166 -0.1234
 8968W        W25229   1.012  13.439  14.566  0.1434  0.2436  0.2307
 8969W        W25230  16.958  15.271   4.381  0.0429  0.1559 -0.3830
 8970W        W25231   8.046  12.705   1.250 -0.0681  0.1485  0.1089
 8971W        W25232  15.117  11.048   2.772 -0.0883 -0.1129 -0.1151
 8972W        W25233   4.662   2.649  14.159  0.4118 -0.1603 -0.2343
 8973W        W25234  17.534  17.839  13.586 -0.1337  0.2226  0.2255
 8974W        W25235   8.089   0.981   5.150 -0.1798 -0.1233  0.1613
 8975W        W25236   4.236   7.469   1.862 -0.2980  0.1450  0.0998
 8976W        W25237   1.811   6.684   2.765  0.0324  0.0038  0.1756
 8977W        W25238  15.197   4.792   5.979  0.3380 -0.1498 -0.0102
 8978W        W25239  13.019  11.728   1.163  0.3709 -0.1097  0.1785
 8979W        W25240   9.645   8.081  15.807 -0.0019  0.2475 -0.1513
 8980W        W25241  17.881   2.834  16.005  0.0260 -0.1634 -0.0171
 8981W        W25242  10.224  14.504  15.936  0.1224  0.0405  0.2168
 8982W        W25243   3.404   9.046   3.164  0.0311 -0.0777  0.1150
 8983W        W25244  13.301  10.214   1.508  0.1063 -0.1030  0.0350
 8984W        W25245  15.731   4.762   0.965  0.0543  0.1524 -0.2211
 8985W        W25246  15.639  13.213  14.662  0.1689  0.2000 -0.1469
 8986W        W25247  10.562   1.466  10.835  0.2638  0.1696  0.2914
 8987W        W25248   0.434   9.872  11.811  0.2300  0.0075  0.2025
 8988W        W25249   7.674   3.140  13.499  0.1051 -0.0917 -0.2389
 8989W        W25250   5.530   2.349  14.266  0.1432  0.1626 -0.0315
 8990W        W25251   6.202  13.435   3.351 -0.3262 -0.0477 -0.0275
 8991W        W25252   3.849   4.518   1.104 -0.1020  0.0323  0.5409
 8992W        W25253   9.183   7.242  11.767  0.0628  0.1537 -0.2163
 8993W        W25254   4.580   5.970  12.610 -0.0911 -0.1080  0.3200
 8994W        W25255   2.528  13.103   3.635  0.0160 -0.1405 -0.0221
 8995W        W25256   3.489   8.198   3.199 -0.1074  0.2428  0.0182
 8996W        W25257  15.098   2.269  14.601  0.0510  0.1328 -0.1635
 8997W        W25258   3.821   6.711   0.591  0.1417  0.0243  0.0315
 8998W        W25259   4.383  15.404  13.223  0.1439 -0.0483  0.0769
 8999W        W25260   6.468   8.394   4.054  0.0421 -0.2693 -0.1339
 9000W        W25261  13.151   9.177   3.539  0.3789  0.0577  0.0234
 9001W        W25262   8.405   3.895   1.527  0.1298  0.2796  0.0546
 9002W        W25263   0.520   3.323   1.997  0.4461  0.0796 -0.3850
 9003W        W25264  16.096  16.823  11.774  0.1792  0.0030 -0.1829
 9004W        W25265   8.645  10.972   0.715 -0.2226  0.1364 -0.2380
 9005W        W25266   6.199  16.980   0.883 -0.0425 -0.4367  0.0490
 9006W        W25267   9.432   7.608   6.033  0.1040  0.0515 -0.3020
 9007W        W25268  10.409  14.240  14.641  0.0721 -0.0874  0.0155
 9008W        W25269  11.301   5.707  14.626  0.1707  0.2048  0.2085
 9009W        W25270   2.804  13.695  15.945 -0.2214  0.1090 -0.1694
 9010W        W25271  16.771   6.321  12.600 -0.2195  0.1567  0.0734
 9011W        W25272  16.719  10.041  16.011  0.0580 -0.0885 -0.2090
 9012W        W25273   4.626   1.516   3.789 -0.0246  0.0629 -0.0339
 9013W        W25274  14.814   0.768   4.256  0.1683  0.2587 -0.1050
 9014W        W25275  11.425  14.966  14.512  0.0937  0.2554 -0.1818
 9015W        W25276  15.420   8.052   5.669  0.1887 -0.0602  0.2231
 9016W        W25277   0.256   6.969  15.584  0.0768 -0.0554  0.1160
 9017W        W25278   7.068  12.221  15.516 -0.2359 -0.1794 -0.0388
 9018W        W25279  15.210   0.812  15.692 -0.0855  0.4801  0.2932
 9019W        W25280   2.066   3.292   1.156 -0.2088 -0.1298 -0.2836
 9020W        W25281  16.070  10.031   0.912  0.1804  0.2802 -0.0556
 9021W        W25282   7.088  11.765   4.537  0.0735 -0.0313 -0.1890
 9022W        W25283  17.524  15.418   0.040  0.1650  0.2639 -0.3377
 9023W        W25284   4.536  14.320   5.019  0.1603 -0.1196  0.0733
 9024W        W25285  11.758   1.036  15.115 -0.3250  0.2390 -0.0497
 9025W        W25286   4.024   5.434  15.444  0.0517 -0.1374 -0.3097
 9026W        W25287   2.926  16.515  10.520  0.1584  0.1947 -0.0188
 9027W        W25288  15.637  14.529  14.990 -0.0155  0.2298 -0.2229
 9028W        W25289   3.794  10.048  11.434 -0.3014  0.1607 -0.1786
 9029W        W25290  10.166   6.991   5.906  0.0266 -0.1245  0.1294
 9030W        W25291   1.843  10.465   2.620  0.0471 -0.2537 -0.0488
 9031W        W25292   5.568  13.595   6.317  0.2860  0.2883 -0.0686
 9032W        W25293  10.604   7.200  11.771 -0.3720 -0.1642  0.0428
 9033W        W25294  13.516  16.552   2.552  0.0059 -0.2522 -0.0590
 9034W        W25295   7.716  10.577  11.381 -0.0241  0.1504  0.3194
 9035W        W25296   7.819   7.574  12.922  0.1187 -0.0550 -0.1915
 9036W        W25297  12.521   4.393  12.203  0.0386 -0.1312 -0.0461
 9037W        W25298   4.864  12.190  13.215  0.0893 -0.0736 -0.1941
 9038W        W25299   7.925   1.748  12.987  0.1328 -0.4033  0.1536
 9039W        W25300   6.058  15.297  16.151 -0.2258 -0.0436  0.1807
 9040W        W25301   9.511  14.564  11.140 -0.3015  0.1111 -0.0231
 9041W        W25302  11.527   7.183   0.047  0.3930 -0.3350  0.0787
 9042W        W25303   5.079  16.668   2.473 -0.0575 -0.0575 -0.5557
 9043W        W25304  12.975   8.569   4.493 -0.1904 -0.0367  0.2547
 9044W        W25305   0.540  15.005  10.864  0.3675 -0.1258  0.1271
 9045W        W25306  16.885   7.543  16.031 -0.1350 -0.0061 -0.1264
 9046W        W25307  18.000   9.847  11.579 -0.2722 -0.2104 -0.3545
 9047W        W25308  15.505  10.031   3.019 -0.2311 -0.0206  0.2526
 9048W        W25309  10.615  14.471  13.640  0.0834  0.0536 -0.0788
 9049W        W25310   0.730   7.951   3.578  0.0168 -0.2761  0.1736
 9050W        W25311   5.436   4.866   1.977  0.0106  0.0058 -0.0902
 9051W        W25312  11.130  14.214  15.031 -0.1296  0.1177  0.0456
 9052W        W25313   5.278   9.393   0.545  0.0379 -0.2246 -0.3115
 9053W        W25314  12.536   3.210   3.450  0.1033 -0.1814 -0.1884
 9054W        W25315  15.674  13.704  14.618  0.2655 -0.2317  0.2078
 9055W        W25316  12.826   3.664   2.666  0.1813  0.1336 -0.1909
 9056W        W25317   8.800   4.922  15.010  0.1569 -0.0819  0.4564
 9057W        W25318  13.273  17.377  14.235  0.4349  0.1173 -0.2694
 9058W        W25319  13.197   4.650   1.459 -0.5116 -0.4499 -0.1408
 9059W        W25320  14.939  17.356  10.160  0.3531 -0.1172 -0.0733
 9060W        W25321   5.022  13.195   3.115 -0.0536  0.0660 -0.1831
 9061W        W25322   3.796   0.384   0.313  0.1960  0.0751  0.0991
 9062W        W25323  10.436  10.830   4.011  0.0761 -0.0556  0.1649
 9063W        W25324  14.939  16.188  13.891  0.0516  0.1209 -0.2167
 9064W        W25325  17.309  12.814  15.325  0.1729 -0.1279  0.3294
 9065W        W25326  13.302  17.960   1.517 -0.0069  0.3541  0.1449
 9066W        W25327  10.962   5.546  13.322 -0.2456 -0.0832 -0.2279
 9067W        W25328  13.743  11.759   4.461 -0.2323  0.1477 -0.0925
 9068W        W25329   0.859  15.435  11.533  0.2341  0.1607  0.2544
 9069W        W25330  12.063  12.960   2.935  0.4005 -0.1277 -0.1954
 9070W        W25331  14.285  10.583   2.455  0.1674  0.1360  0.1072
 9071W        W25332   0.369   1.973   2.030 -0.1532  0.1345 -0.0513
 9072W        W25333   4.195   2.972  11.776 -0.0047 -0.0619  0.0144
 9073W        W25334  12.203  12.378  11.737 -0.1680 -0.1236 -0.2633
 9074W        W25335   5.569  11.710   4.525  0.2661  0.1946 -0.1664
 9075W        W25336  15.584  13.838  10.031 -0.1382 -0.0518  0.2226
 9076W        W25337  10.707  14.417   1.969  0.3592  0.1242  0.0203
 9077W        W25338  12.639   0.530  12.021 -0.2334 -0.1628  0.0473
 9078W        W25339  11.319  16.950  11.412  0.1140  0.0941  0.0278
 9079W        W25340  15.419   3.578  15.598 -0.1034 -0.0560 -0.2948
 9080W        W25341   8.081  12.165  13.293  0.2934  0.0042  0.0609
 9081W        W25342   2.584  10.975  13.853  0.0001  0.1085 -0.0814
 9082W        W25343   3.210   7.560   5.163  0.3300 -0.0138  0.2813
 9083W        W25344   4.138   0.474  13.904 -0.1395  0.1079  0.0745
 9084W        W25345  12.827   0.429  15.855  0.1680 -0.1213 -0.2856
 9085W        W25346   5.441  18.026   0.100  0.3033 -0.2636  0.0552
 9086W        W25347  14.840   9.263  12.557  0.0793  0.2476 -0.1912
 9087W        W25348   4.797  11.989   3.711  0.1985 -0.0428 -0.0953
 9088W        W25349  13.112   2.857   3.173  0.0551 -0.0668  0.1331
 9089W        W25350   7.487  10.060  13.726 -0.2574 -0.0299 -0.1876
 9090W        W25351  16.696  12.181  14.771  0.1592 -0.1709 -0.0274
 9091W        W25352  15.282  18.336  12.497  0.0120  0.0916 -0.2306
 9092W        W25353  13.128  17.844   0.190  0.0704  0.3065 -0.1088
 9093W        W25354  17.044   5.509   3.234 -0.0234  0.4818  0.2382
 9094W        W25355  17.036   7.786   3.164 -0.2507 -0.3963  0.0060
 9095W        W25356   1.794   1.140   3.232 -0.1102 -0.2817  0.1177
 9096W        W25357   2.975   8.182   0.114 -0.1345  0.2196  0.1594
 9097W        W25358   1.419   8.778  12.897  0.0631 -0.4082  0.2470
 9098W        W25359   4.599  18.342   2.462 -0.2524 -0.2577 -0.0295
 9099W        W25360   3.090  14.624   0.925 -0.0442  0.1540  0.0328
 9100W        W25361  11.313   4.438   4.655 -0.1764 -0.1369  0.1167
 9101W        W25362   8.803   4.164   3.949  0.0874  0.2861 -0.0638
 9102W        W25363   0.544  10.817  14.872 -0.0619  0.0132  0.3167
 9103W        W25364   9.781  13.607  13.138 -0.0704 -0.1229  0.0320
 9104W        W25365   8.145   3.326  15.581  0.1254 -0.4574  0.0706
 9105W        W25366   3.300   3.209   0.629 -0.3605  0.2389 -0.2244
 9106W        W25367  16.156   5.321  15.987  0.0917  0.0839 -0.1873
 9107W        W25368  17.770   8.351   0.481 -0.0401 -0.2823  0.4963
 9108W        W25369   5.329   7.975  12.200  0.3319  0.3040 -0.1692
 9109W        W25370   8.301   2.445  12.273 -0.4293 -0.0606 -0.1098
 9110W        W25371   7.610  15.433  11.766 -0.0613 -0.0437  0.1877
 9111W        W25372   8.752  11.068   4.249 -0.0544 -0.3634 -0.2270
 9112W        W25373  14.350  18.157   1.066 -0.0886  0.2399 -0.0562
 9113W        W25374   5.494  15.145   2.027 -0.0495  0.2571 -0.1772
 9114W        W25375  13.385  11.438   1.391  0.1436  0.1629  0.3828
 9115W        W25376  15.687  11.928   2.530  0.2285  0.2188 -0.0504
 9116W        W25377   7.394   3.849  14.194  0.1417  0.0074  0.1446
 9117W        W25378   8.349   0.928   4.673  0.0769 -0.3629  0.1321
 9118W        W25379   8.945   2.186  12.575 -0.1390  0.1116  0.2517
 9119W        W25380   2.459   9.791  14.859  0.0313 -0.0343 -0.1962
 9120W        W25381  12.598   7.237   4.560 -0.1991  0.2037  0.0132
 9121W        W25382  17.766  13.657   2.178  0.0210  0.3756 -0.1747
 9122W        W25383   8.683  11.508   1.487 -0.3103 -0.3267  0.0757
 9123W        W25384   8.696  13.716  16.151  0.4894  0.2023  0.0277
 9124W        W25385  10.273   6.982   5.000  0.2691 -0.2099  0.0754
 9125W        W25386  13.014  14.369  10.853 -0.2814 -0.0081  0.1780
 9126W        W25387  18.390   5.848   4.468  0.1676  0.1203  0.1412
 9127W        W25388  16.560   9.752   3.028 -0.0953 -0.0974  0.2462
 9128W        W25389  11.614   5.920  15.508 -0.3039 -0.0760  0.3322
 9129W        W25390   3.354   9.076  12.787 -0.2441 -0.1869 -0.0911
 9130W        W25391  17.255  11.237   1.836  0.0175 -0.1754  0.0328
 9131W        W25392  10.006   8.910  12.683  0.1145 -0.1994  0.1672
 9132W        W25393   6.703   7.942   4.559  0.0691  0.0498  0.0065
 9133W        W25394   8.577   4.386   4.356 -0.2197  0.2786  0.3210
 9134W        W25395   4.859   4.215  12.105  0.2131  0.3669 -0.0863
 9135W        W25396   2.799   6.713  12.923  0.2150 -0.1207 -0.0060
 9136W        W25397  18.112   0.266   1.157  0.0536  0.1176  0.0021
 9137W        W25398   0.539   5.474  16.019 -0.3444 -0.1178 -0.0274
 9138W        W25399  14.661   4.177  14.138 -0.1866 -0.0179  0.0403
 9139W        W25400  13.669   0.953   2.708  0.4366  0.0200 -0.3532
 9140W        W25401  17.584   3.917   1.580 -0.5064 -0.0772  0.0909
 9141W        W25402   1.566   5.137   2.974  0.1657 -0.2894 -0.1238
 9142W        W25403  17.839  13.185  13.814  0.0118  0.1390 -0.1690
 9143W        W25404   0.703  11.785   0.940 -0.1608 -0.0128  0.2851
 9144W        W25405  13.565   0.499  14.944  0.2736 -0.1559  0.1605
 9145W        W25406  18.099   9.043   1.311  0.1092  0.0039 -0.0182
 9146W        W25407   9.281   9.835  11.457  0.1230 -0.0957  0.2225
 9147W        W25408   2.077  11.494  13.516  0.2537  0.0125 -0.1425
 9148W        W25409  17.519  11.657   3.425 -0.3739 -0.1816 -0.1240
 9149W        W25410  11.071   9.718   1.517 -0.1477 -0.2533  0.2106
 9150W        W25411   5.508  11.923   5.701  0.1118 -0.0139  0.2842
 9151W        W25412  15.998  17.618   3.893  0.0382 -0.1082 -0.3228
 9152W        W25413   8.559   5.041  12.946  0.1091 -0.1444  0.1428
 9153W        W25414   4.830   3.674  12.222 -0.1150  0.1444 -0.0659
 9154W        W25415  15.653   7.118   5.183  0.2104  0.4020 -0.0948
 9155W        W25416  10.536   1.556  12.177  0.3519  0.0147  0.0310
 9156W        W25417   5.675  14.891  14.291  0.1230 -0.2544 -0.0946
 9157W        W25418   1.134   9.042   1.812  0.1538 -0.1721  0.0727
 9158W        W25419  10.486  14.603   4.225  0.2845  0.0600 -0.1950
 9159W        W25420   3.989  13.840   4.763  0.3448  0.0280 -0.2121
 9160W        W25421   6.892   2.415   4.916 -0.0818  0.2626  0.0742
 9161W        W25422  16.424  13.711   4.490  0.1984 -0.0779  0.0585
 9162W        W25423   7.427  11.428   0.803 -0.0810 -0.0815  0.1893
 9163W        W25424  10.929  17.889   3.770 -0.1396  0.2670 -0.0608
 9164W        W25425  17.619  13.849   5.184 -0.0015  0.0481 -0.2080
 9165W        W25426   9.150   0.747  11.408 -0.1235  0.0720  0.0653
 9166W        W25427   8.673  15.547   0.562  0.2326  0.2342  0.0010
 9167W        W25428  10.082  18.465  15.643  0.0729  0.3958  0.0371
 9168W        W25429   4.360   3.967   4.418  0.4404 -0.0917 -0.0075
 9169W        W25430  16.026   8.085  15.820  0.0182  0.0407 -0.0139
 9170W        W25431   2.972  14.011   3.358 -0.0032  0.0355 -0.2261
 9171W        W25432   7.365   8.570   4.527 -0.1760  0.0218  0.1482
 9172W        W25433  10.961  16.516   1.501 -0.1620  0.0979 -0.1061
 9173W        W25434  12.623   5.318  12.082  0.5444 -0.1537 -0.1961
 9174W        W25435   8.670   0.503   3.212  0.2447  0.2021 -0.1185
 9175W        W25436  17.498   5.497   6.283  0.2331 -0.1908 -0.0183
 9176W        W25437   5.075  17.706   1.419 -0.1698 -0.2966 -0.0349
 9177W        W25438   7.303   8.842  11.597  0.0223  0.0595  0.1622
 9178W        W25439  18.087   3.600  14.122 -0.0702  0.0003 -0.0571
 9179W        W25440   2.485   3.865   3.268 -0.0228 -0.2257 -0.0088
 9180W        W25441  12.440  15.231  14.778  0.2737 -0.1485 -0.1810
 9181W        W25442  13.445   4.350  12.414 -0.1588  0.1539 -0.2728
 9182W        W25443   9.556  15.520  12.125 -0.2857 -0.0553  0.1889
 9183W        W25444   3.020   8.963   1.423 -0.1056 -0.1904 -0.1979
 9184W        W25445   4.748   1.349   0.352  0.1629  0.3903 -0.2510
 9185W        W25446   4.172  14.309  11.587  0.0884  0.1341  0.1278
 9186W        W25447  17.715   9.505  12.621 -0.2973  0.1348  0.0445
 9187W        W25448   8.222  14.349  13.092  0.1467  0.4249  0.0366
 9188W        W25449  12.962   3.357  12.987  0.1092  0.0444  0.2566
 9189W        W25450  10.105  17.640  11.533  0.1221 -0.2704 -0.1021
 9190W        W25451  14.018  13.156   3.954  0.4599 -0.2508  0.0806
 9191W        W25452   9.802  15.694   3.197  0.1092  0.1993  0.4052
 9192W        W25453   8.441   0.788  13.358  0.0044  0.0959 -0.1212
 9193W        W25454   5.046   4.006  13.907 -0.0855  0.0808  0.0095
 9194W        W25455  12.151   8.470  14.001 -0.0642 -0.0280  0.1152
 9195W        W25456  12.194  11.980  11.469  0.3365 -0.0908 -0.0172
 9196W        W25457  17.662   3.403  13.070 -0.3187 -0.2578 -0.5019
 9197W        W25458   8.252   5.923   4.909  0.0454 -0.2049 -0.2928
 9198W        W25459   6.985  10.901   2.922  0.1713  0.1804 -0.0651
 9199W        W25460   0.661   2.727  11.877  0.1442  0.1534  0.0907
 9200W        W25461   1.752  18.163  15.327  0.0412  0.1474 -0.2667
 9201W        W25462   1.893   2.021  15.277  0.0357 -0.1036  0.3478
 9202W        W25463  11.290   7.816  12.250 -0.1508 -0.0882 -0.3572
 9203W        W25464   3.393   1.832   0.512  0.1049  0.2937  0.4777
 9204W        W25465   2.722  17.329   4.149  0.3392  0.0013  0.0753
 9205W        W25466   8.642  15.616  12.939 -0.0574 -0.4035  0.2562
 9206W        W25467   0.909  16.987   4.527  0.0310  0.1026  0.0853
 9207W        W25468   2.098  17.805   4.387  0.1254  0.1992  0.2393
 9208W        W25469  11.471  13.270   1.413 -0.0616 -0.0088  0.1337
 9209W        W25470   9.455   2.237   1.654 -0.2791 -0.7033 -0.0335
 9210W        W25471  18.074   7.019   3.306  0.1065 -0.0260  0.1035
 9211W        W25472  16.475  15.420  14.177  0.0030  0.2039 -0.1002
 9212W        W25473   1.927   2.912  11.522 -0.2682 -0.1877 -0.2955
 9213W        W25474  13.100   5.274  12.306  0.2386 -0.2570  0.1435
 9214W        W25475   9.008   6.695   0.169  0.3847 -0.0644  0.1650
 9215W        W25476  15.674  10.457   3.172  0.0247 -0.0728 -0.0738
 9216W        W25477   6.196   0.968   1.939  0.2871  0.1941 -0.1767
 9217W        W25478   4.199   6.700   4.864 -0.1735 -0.2872  0.0766
 9218W        W25479  14.763   6.566   2.464  0.1946 -0.1422  0.0324
 9219W        W25480   4.368  11.711   0.986 -0.0315  0.2093  0.2697
 9220W        W25481   2.598   9.230   0.809 -0.2802 -0.2108  0.1761
 9221W        W25482  11.710  11.759   3.163 -0.2527 -0.0737  0.0908
 9222W        W25483  17.884   8.564   0.959 -0.0343  0.1932 -0.2965
 9223W        W25484   5.840   1.740  11.841  0.1599  0.0217  0.0285
 9224W        W25485  17.833  12.162  16.087  0.1496 -0.0265 -0.0434
 9225W        W25486   2.772   6.885   3.460 -0.1550 -0.0128  0.1211
 9226W        W25487  12.734   9.885  14.520  0.1540  0.0553 -0.0063
 9227W        W25488   7.572  16.955   2.699 -0.1030 -0.0241 -0.0495
 9228W        W25489  15.675  12.710  15.826  0.0884 -0.2446 -0.1248
 9229W        W25490   8.569   0.040   4.964 -0.0192 -0.3915 -0.1365
 9230W        W25491   0.914  10.714  11.217  0.3579  0.1531  0.0409
 9231W        W25492   5.735   3.418   4.988  0.3297 -0.0721  0.2011
 9232W        W25493   7.114   2.178  16.045 -0.1301 -0.3779  0.1548
 9233W        W25494  16.257  16.523   3.503  0.0576 -0.0376  0.0464
 9234W        W25495   0.446  16.864  15.134  0.2105 -0.2175 -0.2545
 9235W        W25496   1.691  14.698   1.356  0.3744  0.1842  0.3225
 9236W        W25497   0.295  17.467  11.455  0.1149 -0.1288  0.1498
 9237W        W25498  13.147   2.632  15.044  0.0870  0.4743 -0.1932
 9238W        W25499   3.516  15.212   2.200  0.0121  0.0588  0.0681
 9239W        W25500   1.207  16.175   5.618  0.4171 -0.1168 -0.0412
 9240W        W25501  14.740   3.636   1.261 -0.1159  0.1891  0.0186
 9241W        W25502   0.433  15.856  12.978 -0.2587 -0.0833 -0.1146
 9242W        W25503   9.058  12.403  12.202  0.1401 -0.0480  0.1948
 9243W        W25504  14.758   2.693  10.291  0.1525  0.3296  0.2542
 9244W        W25505  12.149   0.134  16.113  0.1698  0.1556 -0.1913
 9245W        W25506   6.348   9.320  13.532  0.2159  0.0551  0.1424
 9246W        W25507   3.620   2.419   1.371  0.0312 -0.0065 -0.0707
 9247W        W25508   9.106  12.420  14.936  0.0539 -0.1211  0.2697
 9248W        W25509   9.900   8.827  12.057  0.2283  0.5329 -0.0522
 9249W        W25510   9.086   8.570  11.851 -0.1756  0.2345  0.6020
 9250W        W25511   1.393   4.211   2.752 -0.0783 -0.3102 -0.0651
 9251W        W25512   6.345  11.538   2.037  0.0476  0.3981  0.3283
 9252W        W25513  11.051  10.907   2.281  0.1461 -0.0518  0.2526
 9253W        W25514   5.630  12.691   4.527 -0.3125 -0.3166  0.2875
 9254W        W25515   5.257  11.260  14.572 -0.0359  0.2299 -0.0653
 9255W        W25516   6.580   1.653   4.213 -0.3799 -0.0893 -0.1862
 9256W        W25517   7.498   0.987  11.964 -0.0257 -0.0713  0.2795
 9257W        W25518  15.818   2.311  11.378 -0.2389 -0.2201 -0.0196
 9258W        W25519  16.904   4.431  13.490 -0.1886  0.0858 -0.4181
 9259W        W25520   1.498   7.694  15.766 -0.0715 -0.1511 -0.2646
 9260W        W25521   7.481  18.366  14.984  0.1529 -0.0815  0.3317
 9261W        W25522  17.774  13.022   2.622  0.1290  0.0950  0.1598
 9262W        W25523  17.920  10.297  16.087 -0.3576 -0.2702  0.1522
 9263W        W25524   1.866  17.390  10.882 -0.4276  0.3012  0.0795
 9264W        W25525   6.275   7.398   0.076 -0.2475 -0.0488 -0.0089
 9265W        W25526   8.574  11.538  16.104 -0.1297 -0.2108 -0.0498
 9266W        W25527   2.209   0.010  15.114 -0.2476 -0.0135 -0.0059
 9267W        W25528  13.569   9.244  12.622  0.1916  0.3210  0.2242
 9268W        W25529   4.428   0.899  12.040 -0.0215  0.1214 -0.4124
 9269W        W25530  13.727  11.695   1.764 -0.0157 -0.3385  0.1579
 9270W        W25531  16.029  14.038   3.405  0.0785 -0.1537  0.5341
 9271W        W25532  13.177  12.018  12.375  0.1236  0.1442  0.0761
 9272W        W25533   3.294  11.983   3.058 -0.2012 -0.0603 -0.0136
 9273W        W25534  12.792  17.658   4.857  0.0521 -0.0869 -0.1134
 9274W        W25535  10.406   1.807  11.793  0.0088 -0.0536 -0.0838
 9275W        W25536  11.036  16.309  13.999  0.0462 -0.0474  0.0386
 9276W        W25537  14.805  11.460   5.466 -0.4247 -0.3130  0.1946
 9277W        W25538   2.915   4.408  13.634 -0.0759  0.2679 -0.1847
 9278W        W25539   2.311   0.680  13.552  0.1444  0.0282  0.0655
 9279W        W25540  11.700  10.915  11.772  0.1073  0.0890 -0.1308
 9280W        W25541  11.698  17.551  16.163  0.2432  0.2280 -0.1787
 9281W        W25542   2.474  16.695  10.245  0.3232 -0.1987  0.1831
 9282W        W25543  13.937   7.039  13.713 -0.3743 -0.1380  0.0588
 9283W        W25544   4.955   1.121   5.080 -0.0251 -0.0582 -0.0454
 9284W        W25545   2.292  10.134   0.166 -0.2082 -0.0769  0.0251
 9285W        W25546  11.351   3.805   5.697 -0.1643  0.1309  0.0126
 9286W        W25547  11.220   7.715   5.386 -0.0145 -0.1279  0.1531
 9287W        W25548  15.037  10.361  10.796 -0.0218 -0.2148  0.0689
 9288W        W25549   1.793  10.383  12.508  0.2422  0.0854 -0.1701
 9289W        W25550  11.609   3.051   5.519  0.0833 -0.1450 -0.1158
 9290W        W25551  16.977  17.592  11.233  0.1494 -0.1245 -0.1991
 9291W        W25552   2.452  11.532  11.788  0.0152 -0.2426 -0.0724
 9292W        W25553  15.680   9.626  14.161  0.3950  0.0692 -0.2670
 9293W        W25554  13.353   7.411  11.219  0.1316  0.0912  0.0733
 9294W        W25555  10.655  13.265  12.498  0.2336  0.1061 -0.1492
 9295W        W25556  16.980  15.038   3.897 -0.3049 -0.4356 -0.2117
 9296W        W25557   0.386   2.492   1.290  0.3976  0.1662  0.0105
 9297W        W25558   7.846   1.246  12.627  0.1840  0.2115 -0.0398
 9298W        W25559   5.296  15.337   0.097 -0.2776  0.1516 -0.0712
 9299W        W25560   5.735   1.918  15.488  0.0610  0.0522  0.0159
 9300W        W25561  14.674  18.024  10.974  0.1499  0.2115  0.2976
 9301W        W25562   5.360   3.326   2.560  0.2765 -0.0880 -0.0155
 9302W        W25563   7.109   3.288  11.991 -0.1096 -0.0824 -0.1395
 9303W        W25564   2.130   0.963  12.380  0.2383  0.0840 -0.0742
 9304W        W25565   4.147   8.404  10.980  0.2301  0.1171  0.2585
 9305W        W25566  17.313   3.943  12.429 -0.1807 -0.1152  0.0094
 9306W        W25567   1.093   1.706   3.572 -0.2497 -0.3365 -0.0855
 9307W        W25568  16.698   7.205   1.270 -0.3955  0.0552  0.1046
 9308W        W25569   3.668  13.423  12.375  0.1353  0.0194 -0.2111
 9309W        W25570   0.175   4.903   0.380  0.0736  0.0545 -0.2678
 9310W        W25571   9.532   3.920   5.268 -0.3978  0.0929 -0.0054
 9311W        W25572  17.689   6.135   3.593  0.4169 -0.1949  0.0256
 9312W        W25573   3.684   2.725   1.862  0.0571  0.1616  0.1654
 9313W        W25574   4.328  11.554  12.507  0.0005  0.2334  0.4594
 9314W        W25575   0.287  10.890   1.912 -0.2750  0.0041 -0.0192
 9315W        W25576  10.090   9.303  15.664  0.2681 -0.0602  0.0562
 9316W        W25577  12.893   2.128   2.175  0.0267  0.1211 -0.0788
 9317W        W25578   8.821   7.132  14.270 -0.2806  0.0113 -0.1054
 9318W        W25579   0.324   7.591   4.542 -0.0791  0.0023 -0.0354
 9319W        W25580  15.499   2.506  12.429  0.0245 -0.0378  0.1562
 9320W        W25581   7.757   6.980  14.676  0.0407 -0.0883  0.0370
 9321W        W25582   7.772   4.489  15.700 -0.2482  0.0328  0.0805
 9322W        W25583  13.887  12.926   3.526  0.1081  0.3270 -0.0529
 9323W        W25584   5.608   9.267   4.777  0.0450 -0.3585  0.1788
 9324W        W25585  11.089  18.212   0.732  0.2375  0.0302  0.5662
 9325W        W25586   6.214   9.144   3.120  0.1770  0.0703  0.0613
 9326W        W25587   6.916   9.609  15.593 -0.1070  0.0423 -0.2432
 9327W        W25588   6.024   2.255   5.357  0.0526 -0.1120 -0.1071
 9328W        W25589   0.001   9.030  15.356  0.2170  0.2582  0.1111
 9329W        W25590  12.504  14.417  13.158 -0.0858 -0.1714 -0.0225
 9330W        W25591  12.809  11.353   0.784  0.1298  0.0129 -0.1955
 9331W        W25592   8.988  16.335  11.300  0.0467 -0.2463 -0.0913
 9332W        W25593   2.357   8.770   0.677  0.2195 -0.0493  0.4604
 9333W        W25594  16.458  12.330  12.751 -0.0794 -0.1185 -0.3121
 9334W        W25595   7.045  14.903  13.705 -0.0201  0.0569 -0.4005
 9335W        W25596  11.667   1.558  12.647  0.2520 -0.0275 -0.1120
 9336W        W25597   4.661  17.387  14.966 -0.3361  0.0809  0.1703
 9337W        W25598   5.162  12.480   1.131  0.1745  0.1031  0.0539
 9338W        W25599  13.436   3.333  13.927  0.0618 -0.4003  0.1513
 9339W        W25600   6.580   9.807  13.244 -0.0081 -0.0674  0.0338
 9340W        W25601  17.714  15.499   2.084  0.2324 -0.0171 -0.1126
 9341W        W25602  10.778  14.264   1.143 -0.0576 -0.0971 -0.1382
 9342W        W25603  10.145   3.638   0.821 -0.0666 -0.0191  0.3567
 9343W        W25604  11.119   2.181  12.811 -0.1795  0.3813 -0.0134
 9344W        W25605   4.906   2.125  14.314 -0.0327  0.0496 -0.3167
 9345W        W25606   9.245   4.449   3.968  0.1795  0.1650 -0.2988
 9346W        W25607  15.536   9.374  13.736  0.2060 -0.3972  0.1474
 9347W        W25608   0.405   8.545  11.442 -0.0268 -0.1643  0.4476
 9348W        W25609   1.686  17.231   3.767 -0.2831 -0.3484 -0.3174
 9349W        W25610  13.796  17.760  10.792  0.0768 -0.1348  0.0196
 9350W        W25611   6.234  14.628   1.643  0.2531  0.0835  0.0898
 9351W        W25612   2.945  16.055  13.212 -0.0256  0.2212  0.1056
 9352W        W25613  16.939  14.889   4.922  0.0535 -0.0976 -0.1716
 9353W        W25614  11.146   3.972  13.189  0.1813  0.0863  0.0494
 9354W        W25615  14.865   7.266   1.321  0.1918  0.0635  0.0452
 9355W        W25616  13.911   8.024  13.551 -0.2382 -0.0103  0.1228
 9356W        W25617  15.302  13.921  13.916 -0.0865  0.1712  0.2050
 9357W        W25618   2.621   9.482   4.793  0.0768  0.2227  0.1238
 9358W        W25619  17.745   6.265   0.916  0.2551 -0.1792 -0.4000
 9359W        W25620  11.917   1.845  13.000  0.0551 -0.2796 -0.3030
 9360W        W25621   3.495   3.164   5.123  0.0240 -0.2331 -0.3556
 9361W        W25622   5.582  11.956  12.216 -0.3577 -0.3026 -0.2634
 9362W        W25623   2.188   8.588  14.678 -0.0903  0.2009  0.2205
 9363W        W25624   1.876   5.359  15.724 -0.0188  0.1304  0.0312
 9364W        W25625  14.990   6.582  12.988  0.0803 -0.0571  0.1036
 9365W        W25626  14.943  18.446   4.070 -0.1187 -0.1772 -0.0921
 9366W        W25627   2.262   7.534  13.042  0.0674 -0.1176 -0.1050
 9367W        W25628   9.674   5.809  14.056 -0.0034  0.1543 -0.0875
 9368W        W25629   3.396   2.631   4.801  0.2491 -0.0010 -0.0793
 9369W        W25630   8.562  13.908   6.118  0.0564  0.0821  0.0768
 9370W        W25631   8.240  10.946   4.349  0.4005  0.0275 -0.1971
 9371W        W25632  10.123  12.251  14.615  0.2630  0.0938  0.0304
 9372W        W25633   9.886   5.414  11.865  0.0062 -0.2348  0.2577
 9373W        W25634   2.414   4.677  16.031  0.1899  0.0745 -0.0714
 9374W        W25635  13.896   9.119  12.956 -0.0100 -0.1244 -0.1902
 9375W        W25636   2.825  14.345  13.814 -0.1351 -0.1387  0.0106
 9376W        W25637   6.377  11.091   4.251  0.0982  0.0652 -0.0134
 9377W        W25638   5.713   3.055  16.034  0.2221  0.1570 -0.1865
 9378W        W25639   3.548  10.155   5.427 -0.2672  0.2437  0.0564
 9379W        W25640   1.879   8.074   5.470  0.1766 -0.2594 -0.0814
 9380W        W25641  12.069   3.249  13.950  0.1839  0.0837  0.1093
 9381W        W25642  13.086   5.646  15.532  0.1687 -0.0072  0.0896
 9382W        W25643   0.716   4.742   4.112 -0.2842  0.1950  0.3158
 9383W        W25644   2.361   1.865   1.570 -0.0608  0.2321  0.3043
 9384W        W25645   0.053  12.156  15.192  0.0756  0.4211 -0.3417
 9385W        W25646   7.298  11.878   2.739  0.1430 -0.0265  0.0480
 9386W        W25647  10.284   3.371  11.258 -0.1796  0.1656 -0.2295
 9387W        W25648  16.815  11.324   1.124 -0.2550  0.0797  0.0987
 9388W        W25649  15.597  12.945  12.759 -0.1495 -0.1766 -0.0492
 9389W        W25650  10.226  12.979  12.497  0.3225  0.1119  0.0512
 9390W        W25651  11.067  10.094  11.201 -0.0494  0.0929  0.0523
 9391W        W25652  16.997   4.913  15.809  0.0476  0.2502 -0.3622
 9392W        W25653   0.053  12.289   2.058  0.0012 -0.2222 -0.1168
 9393W        W25654   0.950   3.603  14.656  0.0757 -0.1967 -0.0771
 9394W        W25655   4.195   5.204   2.724  0.2851 -0.1297 -0.1796
 9395W        W25656   0.788   7.508  12.785 -0.0413 -0.5707 -0.0552
 9396W        W25657   7.028  12.870  16.064  0.0490 -0.2345  0.0520
 9397W        W25658   9.102   6.332   3.130  0.2832 -0.2834 -0.0942
 9398W        W25659   1.154   6.335   0.231 -0.5267 -0.0360  0.0922
 9399W        W25660   2.734  14.333   2.359 -0.2669  0.1555  0.1092
 9400W        W25661  13.154   1.820   0.013 -0.1217  0.1629  0.2381
 9401W        W25662  15.587  12.052  11.862 -0.0289 -0.1635 -0.0734
 9402W        W25663   7.833   9.865  14.751  0.0211  0.1984  0.3521
 9403W        W25664   5.249   8.324   0.500 -0.2664  0.0144  0.4400
 9404W        W25665   4.357   3.343  13.264 -0.0784  0.3554 -0.1624
 9405W        W25666   0.590   9.169  12.308 -0.2742 -0.0429  0.0814
 9406W        W25667  17.102  10.935  12.941 -0.1573  0.0431 -0.0451
 9407W        W25668   8.392  11.362  13.506  0.0769  0.1860 -0.3833
 9408W        W25669   5.500  12.112   2.974 -0.2133 -0.2093  0.0963
 9409W        W25670  13.697   4.565  15.172  0.3183 -0.0388  0.2585
 9410W        W25671   1.506  10.251   4.201  0.0994  0.0046  0.1331
 9411W        W25672  15.060   7.831  13.852  0.0984  0.0899 -0.2080
 9412W        W25673   6.583   2.823   4.986 -0.1870  0.2327 -0.1718
 9413W        W25674  15.184  18.179   3.682  0.2971  0.0076  0.0691
 9414W        W25675   6.826  16.446   2.452  0.4456 -0.1077 -0.0654
 9415W        W25676   1.989   6.952  13.980  0.2364 -0.2475 -0.0057
 9416W        W25677   2.555  12.557  12.647  0.2007  0.1382  0.1509
 9417W        W25678   1.365  17.545  14.160 -0.0908 -0.1594  0.2402
 9418W        W25679   0.540   6.486  11.732 -0.1662  0.0867  0.1087
 9419W        W25680  16.332   5.509  13.414 -0.0089 -0.1116  0.0727
 9420W        W25681   7.092  12.728  15.560 -0.0821 -0.1532 -0.0612
 9421W        W25682  18.197   5.429  12.199  0.4082 -0.1514  0.1369
 9422W        W25683   9.519   2.125  11.848 -0.0858 -0.1076  0.3172
 9423W        W25684   5.569   0.643   5.532 -0.1142  0.0963  0.2601
 9424W        W25685  17.445   6.591   3.792  0.2311  0.0185 -0.0749
 9425W        W25686   6.220   9.828   4.840 -0.2385 -0.0591 -0.3368
 9426W        W25687   7.864   4.669   1.264 -0.2721 -0.4084 -0.0292
 9427W        W25688  10.334   4.068  12.119  0.3521 -0.2436  0.0785
 9428W        W25689  12.703   1.872  11.688  0.3062  0.3379 -0.2833
 9429W        W25690   3.670   6.431   3.186 -0.2264 -0.1266 -0.1847
 9430W        W25691   9.804   3.710   3.886 -0.0728  0.1899  0.0395
 9431W        W25692   0.887  17.879   5.039  0.3948  0.0622  0.1324
 9432W        W25693   1.540   0.572  13.400  0.0009  0.0818 -0.1617
 9433W        W25694  17.523   1.099  15.775 -0.1798  0.4014 -0.2760
 9434W        W25695   5.732  16.893   1.714  0.0182  0.0706  0.1472
 9435W        W25696   9.058   1.026   2.223 -0.3341  0.2192  0.1458
 9436W        W25697   0.345   3.812   5.541 -0.0362 -0.1072 -0.1969
 9437W        W25698  10.925  13.658   2.214 -0.3279 -0.0754 -0.1537
 9438W        W25699   2.622   1.778  13.682  0.0078  0.3924  0.2962
 9439W        W25700   6.289   1.869  11.928 -0.3741  0.0417  0.0348
 9440W        W25701   2.096   0.570   3.958 -0.1082  0.0051 -0.0216
 9441W        W25702   5.692   9.379   0.256  0.0080  0.0283 -0.0672
 9442W        W25703   1.174  16.314  15.055  0.1422 -0.4701 -0.1968
 9443W        W25704   6.168   5.644   4.528 -0.1368  0.4449  0.2081
 9444W        W25705   1.706  13.589  13.379  0.1144 -0.0474  0.3199
 9445W        W25706   7.707  15.111   3.360  0.2689 -0.0472  0.0905
 9446W        W25707   7.349   1.473  15.646  0.3456  0.1562  0.2433
 9447W        W25708   7.564   2.246   1.120 -0.1160  0.4256 -0.0463
 9448W        W25709   9.426   9.785   1.023  0.0321  0.1359 -0.0526
 9449W        W25710  11.551  14.883   0.405  0.3084 -0.2482  0.1764
 9450W        W25711   5.387   9.929   1.645 -0.1743  0.2960  0.1411
 9451W        W25712  13.620   4.270   5.955 -0.1191  0.0978  0.2571
 9452W        W25713  16.901   7.116   0.243 -0.1319  0.2546  0.0687
 9453W        W25714   8.382   1.866   2.022 -0.2415 -0.0359  0.0221
 9454W        W25715   1.148  13.494  15.026  0.1323  0.1589 -0.2334
 9455W        W25716  18.314  11.246   0.952  0.1966  0.0270 -0.0990
 9456W        W25717   4.944   4.437  12.596  0.2186 -0.0861  0.3013
 9457W        W25718  12.375  10.875  16.125 -0.0159  0.0226  0.0224
 9458W        W25719   5.038  18.444   5.824  0.0366  0.0159 -0.0751
 9459W        W25720  10.278  13.209  14.246  0.0112  0.0698 -0.1596
 9460W        W25721   8.215   6.847   1.740 -0.1449  0.0448 -0.4729
 9461W        W25722  13.923   3.716  11.868  0.1893 -0.1260 -0.1835
 9462W        W25723   5.012   9.559   1.213 -0.0903 -0.1016  0.0174
 9463W        W25724  18.406   9.865  12.002  0.3057 -0.3087  0.0108
 9464W        W25725   9.352   2.766  15.371 -0.2516 -0.0392 -0.0154
 9465W        W25726  10.905  13.078   5.247 -0.0327  0.0948  0.0432
 9466W        W25727  14.444  17.637   2.356  0.3771 -0.0690  0.3360
 9467W        W25728  17.429   8.498   2.270  0.1806 -0.3182 -0.2198
 9468W        W25729   3.046   5.893   1.039  0.0281  0.3230  0.2412
 9469W        W25730  13.092  17.690   2.503 -0.0031  0.0636  0.0438
 9470W        W25731  16.259   7.321   3.545 -0.2102  0.0079 -0.1226
 9471W        W25732   5.455   1.755  15.051  0.1195  0.2968  0.0211
 9472W        W25733  16.662   8.093   3.414  0.0325  0.0692 -0.1884
 9473W        W25734   8.357   1.210  12.298 -0.0978 -0.1763  0.0382
 9474W        W25735   1.219  11.962  16.034  0.0641  0.1345  0.2870
 9475W        W25736   3.026   9.963   1.840 -0.0080  0.1635 -0.0386
 9476W        W25737  15.341  10.621  12.135 -0.1629 -0.0807  0.1901
 9477W        W25738  10.996  15.970  15.944 -0.3861 -0.1093  0.2754
 9478W        W25739  16.834   5.230   0.201 -0.0378 -0.0127 -0.0454
 9479W        W25740   7.894  11.442   0.965  0.1206  0.0485  0.2727
 9480W        W25741  11.062   2.168   1.668  0.1855  0.1092  0.1734
 9481W        W25742  13.919  11.481  12.705  0.0689  0.1243 -0.3521
 9482W        W25743   8.873   6.868   4.101  0.0118  0.2227 -0.3149
 9483W        W25744  13.350  13.462   4.936  0.0803 -0.1777 -0.2335
 9484W        W25745   4.674   8.866  13.558  0.1710  0.0737  0.4255
 9485W        W25746  16.701  18.317  15.280 -0.0060 -0.3128  0.0273
 9486W        W25747   2.275  10.423   2.405  0.1214 -0.0546 -0.0871
 9487W        W25748   9.717  10.915   1.739 -0.0290 -0.4688 -0.1809
 9488W        W25749  17.153   9.913   2.162  0.2745 -0.1243  0.3804
 9489W        W25750  11.457  12.724   3.651  0.2349 -0.1476 -0.2871
 9490W        W25751   6.950  11.919  11.596 -0.1601 -0.1600  0.0316
 9491W        W25752   3.075   2.421   1.077 -0.3169  0.1432 -0.2064
 9492W        W25753   9.110   4.083   3.047  0.0188 -0.1685 -0.0721
 9493W        W25754  12.596  10.887   3.303 -0.0606 -0.1051 -0.2404
 9494W        W25755   1.175  10.208  15.030  0.4406  0.1325  0.2580
 9495W        W25756   6.884   0.614  13.423 -0.0625  0.0877  0.2137
 9496W        W25757   3.323   1.183   2.051  0.4689  0.2133 -0.2980
 9497W        W25758  10.715   5.064   3.907 -0.1670 -0.2849 -0.3510
 9498W        W25759  10.608   2.346   5.399  0.1716  0.0938 -0.0324
 9499W        W25760   5.467   7.368  14.918 -0.0404  0.1852  0.0387
 9500W        W25761  10.944   1.244   0.572 -0.2508 -0.1380  0.2053
 9501W        W25762   0.740  12.070  15.839 -0.2353  0.0959 -0.3715
 9502W        W25763  12.120  14.327  15.114  0.0030  0.0547  0.0520
 9503W        W25764   8.265  14.487  11.465  0.0048 -0.0308 -0.2482
 9504W        W25765  16.320  12.438   9.302  0.1676  0.0034  0.0847
 9505W        W25766  17.933   7.672   0.785 -0.1697 -0.1154 -0.1101
 9506W        W25767  18.319   1.411  15.245 -0.1171 -0.2994  0.3919
 9507W        W25768   9.778   8.697   4.435 -0.0353 -0.0424 -0.1869
 9508W        W25769   6.588   7.223  11.838 -0.1448  0.0654  0.0282
 9509W        W25770  18.154   6.391   3.694  0.2321 -0.1815 -0.1358
 9510W        W25771  10.695   9.750  14.776  0.1764 -0.0063  0.1246
 9511W        W25772   0.405   1.259   2.446 -0.4563 -0.0032 -0.0580
 9512W        W25773   7.182   5.828   4.517 -0.1228  0.0326  0.3210
 9513W        W25774  17.240   9.586   0.200 -0.3088 -0.3769 -0.1074
 9514W        W25775  15.842  11.030  11.021  0.0056  0.0188  0.3171
 9515W        W25776  17.386   0.350  14.776 -0.2809  0.0198  0.4963
 9516W        W25777  13.080   4.713  12.500  0.0462 -0.0321  0.1783
 9517W        W25778  10.263   6.388  16.057  0.3434  0.2285  0.1437
 9518W        W25779  15.507   5.775   4.232 -0.1727  0.1300 -0.0732
 9519W        W25780  17.008  11.580  16.006  0.1948 -0.0207 -0.0335
 9520W        W25781   7.705   6.273   2.389 -0.0142 -0.2318  0.0752
 9521W        W25782  15.702  14.292   0.851 -0.1193 -0.2390  0.0040
 9522W        W25783  12.008   9.658  12.233 -0.1680  0.1318  0.1478
 9523W        W25784   6.278   5.546  13.866  0.0995 -0.2373  0.0189
 9524W        W25785   0.467  18.338  10.855  0.1427  0.2962  0.2323
 9525W        W25786  10.349  13.006  15.206 -0.0588  0.1729 -0.0644
 9526W        W25787  17.202   8.991  15.587  0.1978 -0.1793  0.2079
 9527W        W25788  12.702  13.662  15.043  0.1646 -0.2321  0.1409
 9528W        W25789   8.226   4.367   3.315  0.1034  0.0830  0.2650
 9529W        W25790  16.364   5.591   2.555 -0.0471  0.0712 -0.0382
 9530W        W25791   0.690   2.945   5.581 -0.1576 -0.1192 -0.2732
 9531W        W25792   9.561  14.768   2.447 -0.1815 -0.0457  0.0155
 9532W        W25793   0.774  14.169   0.177 -0.0926 -0.2413  0.0508
 9533W        W25794   7.850  14.963   0.256  0.0366  0.3072  0.1996
 9534W        W25795  12.503   3.541  12.169 -0.2168 -0.0248 -0.2464
 9535W        W25796   5.124   5.837   1.820 -0.2985 -0.0788 -0.2299
 9536W        W25797  12.860  12.763  14.961 -0.0551 -0.0282  0.4115
 9537W        W25798   2.679  16.860   0.438 -0.0305 -0.3764 -0.0870
 9538W        W25799  18.116  17.875   2.869  0.2003  0.3874 -0.0211
 9539W        W25800   1.523   2.125  14.663 -0.3362 -0.1300  0.2115
 9540W        W25801  14.125  15.155  12.087  0.2411 -0.2329  0.0258
 9541W        W25802  10.420   5.737   3.193 -0.4131 -0.1520 -0.1333
 9542W        W25803   5.139   2.321  16.074  0.0080 -0.0868  0.0619
 9543W        W25804   7.838   1.268   2.077 -0.0704 -0.2388 -0.2108
 9544W        W25805   8.258   0.755  13.807 -0.0547  0.4081 -0.0555
 9545W        W25806  14.385   4.827   0.605  0.4860 -0.0004  0.1021
 9546W        W25807   7.892  15.346  12.497 -0.1455  0.1315  0.1188
 9547W        W25808  13.968   9.552   1.801 -0.0410  0.1679  0.0128
 9548W        W25809  15.548   2.935  12.667 -0.3100 -0.1322 -0.0804
 9549W        W25810  18.058   4.949   1.377 -0.1984  0.0094 -0.0696
 9550W        W25811  16.253   5.107   5.678 -0.0078 -0.0187 -0.0547
 9551W        W25812   2.797  10.136   0.003  0.0188 -0.2942  0.2380
 9552W        W25813   3.269   6.719   2.492 -0.0180  0.3352 -0.0494
 9553W        W25814   2.440  12.962   4.723 -0.1602  0.0177 -0.0792
 9554W        W25815  15.556   5.318  12.361  0.0603  0.0299  0.3609
 9555W        W25816  13.507  12.268  10.270 -0.1790 -0.0479 -0.1194
 9556W        W25817   6.188  16.282   4.491 -0.4474 -0.0245  0.0244
 9557W        W25818  13.512  11.095   0.542 -0.1849  0.1877  0.2236
 9558W        W25819  10.999   1.723  13.270 -0.0575  0.2538  0.1892
 9559W        W25820  15.476  12.598   2.292  0.0682  0.0456  0.3437
 9560W        W25821  14.910  13.488  13.903 -0.1428  0.2887 -0.3739
 9561W        W25822  10.504   1.520   0.625  0.1547 -0.0036 -0.2191
 9562W        W25823  14.776   7.778   2.091 -0.0265  0.2147 -0.2760
 9563W        W25824   5.625   8.136  11.844 -0.0460 -0.3201 -0.3914
 9564W        W25825  10.438  10.940  10.562 -0.0283 -0.0748 -0.4056
 9565W        W25826  15.969   0.986  15.578 -0.1959  0.2723  0.2403
 9566W        W25827   4.515   3.925  14.767 -0.2875 -0.0807 -0.0492
 9567W        W25828   3.876  13.193   1.617  0.2625  0.1277  0.0773
 9568W        W25829  12.086   9.664   0.106  0.1116 -0.1716 -0.2322
 9569W        W25830   7.263   5.522   4.158  0.4170 -0.3896 -0.1557
 9570W        W25831   4.375  10.303   3.113 -0.4900 -0.1593 -0.1663
 9571W        W25832   8.252  11.203   3.361  0.2330 -0.0156 -0.2025
 9572W        W25833  14.956  17.468   1.051  0.0226  0.1441  0.1581
 9573W        W25834   7.479  11.868   1.809  0.0031  0.3179  0.1137
 9574W        W25835  12.952   4.711   0.913  0.0128 -0.2071 -0.2934
 9575W        W25836  14.822  15.307   4.714 -0.3006  0.0287 -0.1943
 9576W        W25837  10.035   3.366   1.573  0.0404 -0.2315 -0.2089
 9577W        W25838  16.683   4.999   4.775 -0.2369 -0.2360  0.4583
 9578W        W25839   7.590  10.064   5.732 -0.0507 -0.3000 -0.2874
 9579W        W25840  12.215  14.377  12.737  0.0218  0.2933 -0.0985
 9580W        W25841  15.387   9.202  15.330 -0.2505 -0.1136  0.0726
 9581W        W25842  14.792  14.916   0.093  0.1592 -0.1545  0.0818
 9582W        W25843   6.890   0.883   3.152  0.2496  0.2270  0.0693
 9583W        W25844   7.360   9.411   3.462 -0.1711 -0.0404  0.2084
 9584W        W25845   5.327  14.394   1.973 -0.0144 -0.1152 -0.1993
 9585W        W25846  17.501  14.359  13.059 -0.0861  0.3786  0.2897
 9586W        W25847   0.868   5.112   3.778 -0.0558  0.1095 -0.2048
 9587W        W25848   9.454   6.495   4.920 -0.1585 -0.1275 -0.0809
 9588W        W25849   9.423   3.692   2.785 -0.1481  0.0459 -0.2734
 9589W        W25850   2.659   0.994  14.623  0.1340 -0.0234 -0.2016
 9590W        W25851  17.626   1.298  11.966 -0.1280  0.1006  0.1759
 9591W        W25852   4.452   2.519  16.111  0.1607 -0.2105 -0.1119
 9592W        W25853   9.506   8.037  12.509 -0.1470 -0.0727  0.2599
 9593W        W25854  13.250  17.291   1.760  0.0756  0.0222 -0.2951
 9594W        W25855  14.242  14.023   0.971 -0.0218 -0.3261 -0.2382
 9595W        W25856   1.631  12.497  13.928 -0.1565 -0.0245 -0.0689
 9596W        W25857  15.772   9.284  13.252  0.1700  0.2253  0.0928
 9597W        W25858   6.332   5.092   1.649 -0.2157 -0.1592  0.2795
 9598W        W25859   6.692   5.463  16.041  0.2148  0.1134 -0.1131
 9599W        W25860   7.310  10.193  11.743  0.3347  0.3096  0.0991
 9600W        W25861  16.501   8.619  15.160 -0.3837  0.1128 -0.0164
 9601W        W25862  16.317   9.230  11.962 -0.0364 -0.3646 -0.0881
 9602W        W25863   1.034  16.766  14.775 -0.0051  0.3205 -0.2118
 9603W        W25864  13.328   2.936  10.974 -0.1208  0.3595  0.0699
 9604W        W25865   6.451   7.334   2.011 -0.2243  0.0991 -0.0121
 9605W        W25866  12.640  17.304   4.526  0.0172 -0.1580  0.4701
 9606W        W25867  18.436  14.708  15.284  0.1547 -0.1362  0.1154
 9607W        W25868   7.987   8.404   4.335 -0.0800 -0.3499  0.3496
 9608W        W25869  16.499  17.859   1.445  0.2437 -0.2457 -0.1191
 9609W        W25870  17.181   5.054  14.025  0.0181  0.0734 -0.1702
 9610W        W25871  13.436   2.418   2.977  0.1616 -0.2188  0.2138
 9611W        W25872   3.515  16.230  12.870  0.0033  0.1377 -0.3110
 9612W        W25873  14.503  14.940   0.582 -0.1285  0.0043  0.4639
 9613W        W25874  17.167  13.585   4.902  0.0282  0.0641 -0.0889
 9614W        W25875  16.361  10.518  15.167 -0.1023  0.0301 -0.1458
 9615W        W25876  18.032  17.717   1.928 -0.0501 -0.0476  0.0128
 9616W        W25877  16.644  10.560   3.480 -0.3595  0.1432  0.0564
 9617W        W25878  14.768   5.381  13.504 -0.2049 -0.1413 -0.1479
 9618W        W25879  17.489  13.312  13.496  0.4679  0.0583 -0.2907
 9619W        W25880   4.875   1.334  16.019  0.4855 -0.1216 -0.0812
 9620W        W25881   1.619   6.582  11.868 -0.0099 -0.0579 -0.2490
 9621W        W25882  11.719   3.063   1.121  0.0803  0.0387 -0.1345
 9622W        W25883   3.593  16.741   1.620  0.0910 -0.1927 -0.3343
 9623W        W25884   4.161   7.165  16.005  0.0086  0.1134  0.1541
 9624W        W25885   8.865  15.419   3.928 -0.0908 -0.3798  0.2559
 9625W        W25886   3.648   1.622  15.915  0.0621 -0.1493 -0.0132
 9626W        W25887  14.693   0.582  12.237  0.0402 -0.1488 -0.2695
 9627W        W25888  10.541   1.785   5.169  0.0871 -0.0059 -0.2746
 9628W        W25889   1.723   4.616   3.020  0.1629  0.0141  0.0229
 9629W        W25890   7.419   5.407  15.107 -0.2172 -0.0790 -0.1352
 9630W        W25891  14.211  13.535   1.121 -0.1710  0.1108  0.4043
 9631W        W25892   1.805  18.446  11.507  0.0979 -0.0844 -0.2254
 9632W        W25893  17.600   2.202  15.174 -0.1327  0.5275  0.0800
 9633W        W25894   1.507   7.434  14.632  0.0577  0.1270 -0.1064
 9634W        W25895   2.842   9.792  13.826 -0.0794 -0.0022 -0.0935
 9635W        W25896   0.905   2.443  11.522 -0.1890 -0.2515  0.0592
 9636W        W25897  15.025   9.814  12.888 -0.0589 -0.0856  0.1778
 9637W        W25898  11.900  17.326  13.682 -0.1951  0.1494 -0.1396
 9638W        W25899  14.389   5.241   0.938 -0.2526 -0.0441  0.1606
 9639W        W25900   4.071   9.619   5.202  0.0799  0.1204 -0.2965
 9640W        W25901   2.949   6.645  15.006 -0.0223 -0.1136 -0.2378
 9641W        W25902   6.545  17.926  11.749  0.0593 -0.0800  0.0326
 9642W        W25903   3.724  14.787   0.983 -0.1034  0.0578  0.1055
 9643W        W25904   3.873  14.994  15.913 -0.1368  0.1966  0.0264
 9644W        W25905   5.100  14.664   2.747 -0.2320  0.0837  0.1442
 9645W        W25906  13.152   9.391  15.169 -0.0105 -0.0864 -0.1575
 9646W        W25907   8.319   3.988   0.744 -0.0200 -0.0592  0.2018
 9647W        W25908  13.063  13.952   5.045  0.0587 -0.1167  0.0864
 9648W        W25909  15.160   9.991  13.448  0.0257 -0.1612 -0.1832
 9649W        W25910   5.997   0.795   0.580  0.1655 -0.2224 -0.1897
 9650W        W25911   8.495  13.031   0.858  0.0051 -0.0209 -0.1265
 9651W        W25912  11.349   5.545   2.520  0.0794  0.2010  0.0353
 9652W        W25913   8.698   1.118  13.074  0.0678 -0.0434  0.0254
 9653W        W25914   8.965   3.393   2.029 -0.5773 -0.0087  0.2342
 9654W        W25915  16.090   6.489   2.222 -0.3398 -0.1644  0.0216
 9655W        W25916   8.127   4.750   5.679 -0.1159 -0.0766 -0.1102
 9656W        W25917   6.135   1.407  14.329 -0.2098  0.1086 -0.1163
 9657W        W25918  16.002  10.834  13.796 -0.1179 -0.0963  0.0917
 9658W        W25919  11.766   0.810   1.011  0.0683  0.0540 -0.0534
 9659W        W25920  12.816  11.879   0.726 -0.2376  0.3038 -0.0685
 9660W        W25921   9.300  18.034  12.813  0.1704  0.0241 -0.0631
 9661W        W25922   6.499   0.526  11.894  0.1372  0.0742  0.1978
 9662W        W25923   3.553   2.219  12.442  0.0250  0.2690  0.2068
 9663W        W25924   4.450  18.298  12.301 -0.3822 -0.2707  0.2086
 9664W        W25925  10.811  14.141   2.937 -0.0615 -0.0280  0.1437
 9665W        W25926   9.035   3.556  11.579 -0.1675  0.0001 -0.2818
 9666W        W25927   2.770   9.349  11.936  0.0597 -0.4237  0.3119
 9667W        W25928   4.914   1.429  13.375  0.0983 -0.0852 -0.0898
 9668W        W25929  10.520   0.572   2.143 -0.0751  0.0580 -0.0344
 9669W        W25930  11.949  16.190   4.291 -0.0321  0.1664 -0.0435
 9670W        W25931   8.228   3.197   2.144  0.1647  0.1586  0.0250
 9671W        W25932  10.102   4.504   5.731  0.3563 -0.1609 -0.2383
 9672W        W25933   8.597  13.170   5.396 -0.2470 -0.1298  0.0212
 9673W        W25934   1.058  13.347   4.990 -0.0906  0.4305  0.0640
 9674W        W25935   5.015  11.736  12.505  0.1692 -0.0474  0.1551
 9675W        W25936  15.640   5.519   3.204  0.2556 -0.0608 -0.1715
 9676W        W25937   7.767   9.709  12.388 -0.2424  0.0097  0.4450
 9677W        W25938   7.642   2.411  15.530 -0.1637 -0.1301  0.2029
 9678W        W25939   3.493  12.613  14.512  0.2887  0.0454 -0.0625
 9679W        W25940   4.612  11.906  12.842  0.1501  0.3381  0.0878
 9680W        W25941  12.634   4.816   4.099 -0.0365  0.1188 -0.0473
 9681W        W25942   8.414  16.835  11.889 -0.1811 -0.1251 -0.1044
 9682W        W25943   0.332  14.477   0.148 -0.0020 -0.1554  0.2875
 9683W        W25944  18.077  16.766   4.325 -0.2417  0.2085  0.2119
 9684W        W25945  13.265   3.578   2.410 -0.1742 -0.3099 -0.0218
 9685W        W25946   9.154   4.395  15.812  0.0321 -0.0567 -0.0418
 9686W        W25947  11.397  12.899  13.672  0.2213  0.1153  0.2049
 9687W        W25948  18.054  15.554   1.022  0.1818  0.0450 -0.2619
 9688W        W25949  14.323   0.628  14.297 -0.1435 -0.1313 -0.0378
 9689W        W25950  18.012  17.999  15.369 -0.0482 -0.3311  0.4298
 9690W        W25951   4.810  14.242   2.837 -0.1965  0.0311 -0.1525
 9691W        W25952   0.241   3.607   4.174 -0.1426  0.0448 -0.1088
 9692W        W25953   7.322  11.427  12.788 -0.1483 -0.2993 -0.3292
 9693W        W25954  18.474   2.535  14.996  0.1815 -0.2521  0.1936
 9694W        W25955   1.565  15.196   4.405  0.0807 -0.1470 -0.0105
 9695W        W25956   1.715   6.257  14.670 -0.0593 -0.5028  0.1738
 9696W        W25957   1.787   9.256  15.145  0.1586  0.0594 -0.0556
 9697W        W25958  16.868  17.217  10.754  0.0701 -0.0738  0.0245
 9698W        W25959   6.615   7.974   3.310  0.0085  0.2899  0.1959
 9699W        W25960  16.696   0.744  16.175  0.2342  0.0530 -0.1251
 9700W        W25961  15.630  17.774   2.526 -0.2399  0.3653  0.0286
 9701W        W25962  16.436   1.200   0.605  0.1364  0.1326 -0.1736
 9702W        W25963   4.503   7.939  14.828  0.3356  0.0386  0.0619
 9703W        W25964   1.900   5.430   6.386 -0.2394 -0.2289  0.2654
 9704W        W25965   2.090   6.385   0.585  0.0355  0.0837 -0.0138
 9705W        W25966  17.270   0.750  15.011 -0.1309  0.0859 -0.1039
 9706W        W25967  14.103   6.091   0.053 -0.0280 -0.0492  0.1678
 9707W        W25968   9.722   9.193   4.391 -0.0575  0.2148  0.1884
 9708W        W25969  16.778  11.580   4.167 -0.3394  0.1702  0.3575
 9709W        W25970  10.807   5.214   1.196 -0.0098  0.0544 -0.1461
 9710W        W25971  12.246  10.603   3.067 -0.3138  0.0206 -0.1461
 9711W        W25972   7.909   6.005  14.592  0.2226  0.2237 -0.3539
 9712W        W25973  18.145  15.975   0.685 -0.0289  0.0777  0.1982
 9713W        W25974   6.660   1.906  11.524  0.4477  0.2705  0.1867
 9714W        W25975   8.485   9.354   1.860  0.0307 -0.1958  0.0028
 9715W        W25976  12.759   4.686  14.879  0.0341  0.3609 -0.6803
 9716W        W25977  12.250  11.890   4.459  0.2545  0.1081  0.1301
 9717W        W25978  16.970   1.546  15.010  0.1572  0.3176  0.1065
 9718W        W25979   7.575  16.015   5.243 -0.0914 -0.1061  0.0141
 9719W        W25980   4.110  11.635  16.086  0.1166  0.0954  0.0565
 9720W        W25981   8.640   3.344  12.659 -0.2655  0.1562  0.1252
 9721W        W25982   9.201   8.462   2.479 -0.3430 -0.0720 -0.1679
 9722W        W25983  11.136  13.944   1.242  0.1219 -0.1933  0.0212
 9723W        W25984   4.273   6.735   5.471 -0.3555  0.1621  0.1439
 9724W        W25985  16.366   0.881   4.296 -0.2294  0.0777 -0.1126
 9725W        W25986   5.754   8.488  12.697  0.3420  0.0143  0.2632
 9726W        W25987   2.668   9.341  15.644  0.0571  0.0845 -0.1795
 9727W        W25988   7.647  16.494  13.505  0.0631 -0.1330 -0.1271
 9728W        W25989   3.454   3.497   1.587 -0.0192  0.0699 -0.1778
 9729W        W25990   9.130   7.436  14.081  0.3153 -0.0972  0.0682
 9730W        W25991   6.949   7.017   6.055  0.0304  0.1408  0.1958
 9731W        W25992   3.320  16.260  16.139 -0.0066 -0.0243 -0.0416
 9732W        W25993   1.151   4.055  13.816 -0.1215  0.3321  0.3599
 9733W        W25994  14.400  16.675  14.807  0.1033 -0.1340  0.2132
 9734W        W25995   3.940  13.270   0.647  0.1729 -0.0197 -0.2364
 9735W        W25996   4.275  12.075   3.487  0.1773 -0.2654  0.1170
 9736W        W25997   1.320   3.902   6.428 -0.0853 -0.0011 -0.1757
 9737W        W25998  17.340   5.747  11.990  0.4214 -0.0353  0.3349
 9738W        W25999   8.929  14.148   2.428  0.5259  0.0208 -0.1498
 9739W        W26000   9.012  11.342  15.113  0.0666 -0.0375 -0.1351
 9740W        W26001   5.603  18.231   2.359  0.1897  0.2656 -0.1169
 9741W        W26002   0.878   9.751  11.635 -0.2082 -0.2071 -0.0852
 9742W        W26003  10.144  17.513   4.033  0.0821  0.4837 -0.2365
 9743W        W26004  12.747  11.865  14.483 -0.0101  0.2523 -0.1457
 9744W        W26005  10.735   0.692   1.396  0.0512 -0.3605  0.3112
 9745W        W26006  13.366   7.559  11.745 -0.0081  0.1387  0.0561
 9746W        W26007   7.359   8.167  13.076 -0.0318  0.0675  0.0699
 9747W        W26008  11.743  10.307  16.034 -0.1801  0.0695  0.1988
 9748W        W26009  11.422  11.759   4.691  0.0340 -0.0473 -0.1835
 9749W        W26010  10.900  18.052   0.177 -0.0807  0.0760  0.1752
 9750W        W26011  14.514  17.128  14.205  0.0947 -0.2539  0.2665
 9751W        W26012   8.439  11.967  15.263  0.1871 -0.3033  0.2446
 9752W        W26013   5.541   3.308   6.323  0.1456  0.1850  0.2606
 9753W        W26014  13.779   9.943  14.300  0.3116 -0.0533 -0.3466
 9754W        W26015   6.345   7.438   3.585  0.1727  0.0147  0.1028
 9755W        W26016   2.842  16.155   4.599  0.0297  0.0421  0.1126
 9756W        W26017  14.181   3.144   1.286 -0.3559  0.3102  0.0207
 9757W        W26018   3.400  10.535   3.102 -0.0716  0.0763  0.0598
 9758W        W26019  12.713   3.240  14.579  0.3191  0.1929 -0.1528
 9759W        W26020   1.607  12.238   2.326  0.1692 -0.1204  0.1489
 9760W        W26021   3.519   6.754  12.529 -0.0661  0.2641 -0.0962
 9761W        W26022  14.268   6.712   2.034  0.0880 -0.3969 -0.0844
 9762W        W26023  13.662  16.070   5.056  0.2250  0.1037 -0.3664
 9763W        W26024   4.756   8.398   2.974 -0.0966  0.1211 -0.0937
 9764W        W26025  14.134   5.874   1.693 -0.1357  0.0051  0.0863
 9765W        W26026   6.779  11.038   4.761  0.5213  0.1126 -0.0297
 9766W        W26027   6.743  13.960  11.662  0.1107  0.0258  0.0955
 9767W        W26028  15.542  11.456   0.972 -0.1842 -0.0614  0.0095
 9768W        W26029  14.147   6.960  12.747 -0.2471  0.1608 -0.1101
 9769W        W26030  17.660   1.961   0.033 -0.0626  0.3420  0.1018
 9770W        W26031   5.780   5.319   0.752 -0.1497 -0.0708  0.0916
 9771W        W26032   6.981  14.157  13.690 -0.1932 -0.1682  0.1020
 9772W        W26033   9.097   1.970   0.802 -0.0784 -0.1649  0.1373
 9773W        W26034   8.438   2.881   1.709 -0.0438  0.1262 -0.0530
 9774W        W26035   9.071   5.113   5.900 -0.1127 -0.0492 -0.1643
 9775W        W26036  17.403   1.782   4.231  0.0697  0.2632  0.0275
 9776W        W26037   4.184   6.527  13.198  0.0854  0.1313  0.0641
 9777W        W26038  11.724  16.551  11.433 -0.3947 -0.3666  0.0276
 9778W        W26039   1.060   4.097   3.091 -0.0479 -0.0099  0.1960
 9779W        W26040   3.842  16.193  16.085 -0.2731  0.1657  0.1937
 9780W        W26041   9.958   1.245  15.528 -0.0741 -0.0920  0.0753
 9781W        W26042   5.954   0.113  11.945 -0.0360  0.1476 -0.1085
 9782W        W26043   1.540   7.973  12.582 -0.1211  0.3716 -0.1194
 9783W        W26044  16.720   9.104   3.530  0.3085 -0.0939 -0.0197
 9784W        W26045   8.891   3.485  12.111 -0.2630 -0.0544  0.0282
 9785W        W26046  12.470  17.234  11.838 -0.0320  0.2757 -0.1668
 9786W        W26047   8.609  17.460  14.848  0.0960 -0.2007  0.1699
 9787W        W26048   1.869   7.521   4.878  0.1668 -0.2873 -0.1337
 9788W        W26049   4.448   7.725   3.522  0.3100 -0.4146 -0.0624
 9789W        W26050  12.899  14.182   3.732  0.2151 -0.2451 -0.0672
 9790W        W26051   5.706  14.748   5.393 -0.3216 -0.1794  0.2597
 9791W        W26052   9.245  12.842   3.668  0.1203  0.0195 -0.0709
 9792W        W26053  17.019  12.528  14.991 -0.1109 -0.4771  0.4123
 9793W        W26054  13.374   0.052   2.679 -0.1148 -0.0963  0.2280
 9794W        W26055   0.018   8.639   3.739  0.0486  0.1467 -0.0411
 9795W        W26056  11.489  18.483   5.387  0.2778 -0.2499 -0.0711
 9796W        W26057   9.097  11.399   2.302  0.2454 -0.0134  0.2192
 9797W        W26058  12.066   2.287  12.803 -0.1148 -0.0320 -0.0541
 9798W        W26059   1.738  15.003  12.052  0.0418 -0.0807  0.1840
 9799W        W26060   1.255  15.068  14.327  0.0025  0.2052  0.1612
 9800W        W26061   7.490  15.055  12.214  0.3941 -0.1791  0.2792
 9801W        W26062  10.804  13.909   3.894  0.0441 -0.0593  0.0577
 9802W        W26063   3.141   9.596   4.803  0.0120  0.1456  0.1270
 9803W        W26064   8.146   2.555   1.502  0.0260  0.0198  0.2594
 9804W        W26065  11.997   4.193   1.615  0.2075  0.0843 -0.1059
 9805W        W26066  13.622   3.720  14.571 -0.2636 -0.0133 -0.0955
 9806W        W26067   9.625   5.444   1.677 -0.2399  0.2119  0.0505
 9807W        W26068  14.810  17.673  14.825 -0.1772  0.2508 -0.0401
 9808W        W26069   2.098   5.450   5.477  0.0633  0.1580  0.0522
 9809W        W26070  17.208   7.338   5.821 -0.3978  0.0069 -0.3696
 9810W        W26071   8.716   9.623   1.499 -0.2380  0.0665  0.0764
 9811W        W26072  13.505   4.700  12.841 -0.0588 -0.5185  0.2419
 9812W        W26073  11.427  13.043  15.172 -0.0176 -0.2658 -0.1053
 9813W        W26074  15.866   3.177  10.975 -0.1553 -0.1427  0.1763
 9814W        W26075  15.261   6.662   4.640 -0.1518 -0.2062  0.2308
 9815W        W26076   0.812  15.572   0.480 -0.1920 -0.1393  0.1566
 9816W        W26077   4.003   1.048   4.827 -0.0787  0.0907 -0.0552
 9817W        W26078  14.938   2.299  15.945  0.0536 -0.0268 -0.2418
 9818W        W26079  11.423   7.452  15.721  0.4440 -0.1414 -0.1434
 9819W        W26080   4.364   7.792  15.585 -0.0725 -0.1519  0.3431
 9820W        W26081  15.026   3.101   1.655  0.3228  0.1091  0.1606
 9821W        W26082  10.617  12.664   3.033  0.0018  0.0754 -0.3620
 9822W        W26083  18.462  10.903  12.301 -0.1161  0.1214 -0.1885
 9823W        W26084  13.471  16.936   4.676  0.1913  0.0705  0.3464
 9824W        W26085  16.628   1.191   0.158  0.2381 -0.0068 -0.0584
 9825W        W26086  12.674   0.147  11.032  0.1492 -0.2072  0.1250
 9826W        W26087  13.043  15.270  11.365 -0.1088 -0.0859 -0.0159
 9827W        W26088   0.982   1.329   3.284 -0.0880  0.0512 -0.2687
 9828W        W26089  12.889   7.342   3.766 -0.1881 -0.1689 -0.3680
 9829W        W26090   3.151   9.972   3.323  0.1712 -0.0140 -0.1915
 9830W        W26091  16.998   7.685   3.663  0.1446 -0.0069 -0.2589
 9831W        W26092   1.509  13.333  14.632  0.0626  0.3636 -0.2593
 9832W        W26093   6.142  12.323  13.228 -0.0591 -0.3194 -0.0293
 9833W        W26094  16.268  16.254  13.282 -0.2040 -0.1107  0.0376
 9834W        W26095   7.797   7.409   1.288 -0.0690  0.0802 -0.0188
 9835W        W26096  14.217  11.800  14.093  0.1286 -0.2043 -0.3975
 9836W        W26097   1.957  10.471  14.465  0.2047  0.1074  0.0823
 9837W        W26098   5.425  12.189  12.658 -0.1897  0.0850  0.3141
 9838W        W26099   1.544  11.618  14.517  0.1861  0.2389  0.0218
 9839W        W26100   3.886  17.219  11.832  0.0795 -0.1513 -0.1464
 9840W        W26101   5.009   6.928   4.350  0.1457  0.2790  0.3772
 9841W        W26102  13.669   5.173  12.825  0.1056 -0.0852  0.0498
 9842W        W26103  14.724   5.461   3.940  0.2920  0.1624  0.1706
 9843W        W26104  16.059   0.987  12.999  0.1760 -0.1632  0.0865
 9844W        W26105   5.120   4.609   2.322 -0.2877  0.0995  0.0688
 9845W        W26106  12.227   3.157   1.418 -0.2207  0.1880 -0.0581
 9846W        W26107  14.630  14.808  11.815 -0.0322 -0.0081  0.1657
 9847W        W26108  17.546   8.897   0.327  0.0950 -0.0133 -0.2412
 9848W        W26109  12.772  12.693  11.376  0.0663  0.2692  0.2407
 9849W        W26110   3.075  15.280   2.448  0.0058 -0.2714  0.1020
 9850W        W26111  16.889   3.124   1.135  0.3917  0.1599 -0.1628
 9851W        W26112   6.538  17.808  13.152  0.4308  0.0228  0.0798
 9852W        W26113   8.729  14.618  14.911 -0.1221 -0.5351 -0.1161
 9853W        W26114  10.023   3.659   4.885 -0.0138 -0.2574 -0.0120
 9854W        W26115   2.103   2.055  13.400 -0.1349  0.0736 -0.0948
 9855W        W26116   3.940   7.097   4.266 -0.0213  0.1353  0.1221
 9856W        W26117  17.671  15.256  13.159 -0.0251  0.1057  0.1482
 9857W        W26118  14.841  16.286  14.422 -0.1347 -0.1043 -0.2346
 9858W        W26119  15.756   7.907  13.191  0.0021 -0.0973 -0.1682
 9859W        W26120  14.746  10.384   1.141 -0.0140  0.3895 -0.4616
 9860W        W26121  16.459   7.654  15.244 -0.4754  0.3641  0.1830
 9861W        W26122   7.982   8.691   5.203  0.3853 -0.0192  0.1510
 9862W        W26123  11.813   3.589   2.111 -0.0244  0.1211 -0.3196
 9863W        W26124  12.858   0.728  13.552  0.0451  0.0929  0.2085
 9864W        W26125   6.574   2.924  12.831 -0.0183 -0.1184  0.2113
 9865W        W26126   8.245   0.313   1.435  0.4702 -0.3903 -0.2239
 9866W        W26127  16.606   7.302   1.803  0.0156 -0.2688 -0.2188
 9867W        W26128   2.152   7.878  15.366  0.2050 -0.0470  0.0986
 9868W        W26129  12.186   3.740  12.816  0.2670 -0.1566 -0.0010
 9869W        W26130  16.818  11.024   2.791 -0.1596 -0.3139  0.0306
 9870W        W26131   7.994  16.988  13.141 -0.0736 -0.0655  0.3579
 9871W        W26132  15.465  16.399  13.308  0.2305  0.1799 -0.2946
 9872W        W26133   8.559   2.793   4.190 -0.2846 -0.1559 -0.0735
 9873W        W26134   2.841   7.091  14.768 -0.0213  0.2412  0.4029
 9874W        W26135  18.090   5.922  14.193  0.0435  0.0304 -0.4431
 9875W        W26136  12.891   7.478   1.334  0.0471  0.0139  0.0508
 9876W        W26137  14.382   1.368  12.027 -0.1579  0.1847  0.0144
 9877W        W26138  17.901   5.927  15.201 -0.0968  0.1580 -0.3958
 9878W        W26139   4.445   2.437   0.456 -0.0574 -0.0738 -0.1142
 9879W        W26140  10.716   3.981   3.174 -0.1334 -0.0852  0.0287
 9880W        W26141  11.798   4.749   5.241  0.1533 -0.2195 -0.2500
 9881W        W26142  16.714  17.241   0.418  0.0493 -0.2102  0.1423
 9882W        W26143   2.593   9.218   2.837 -0.4402 -0.0968 -0.2299
 9883W        W26144   9.454  15.222   3.166 -0.1960  0.2743 -0.1307
 9884W        W26145  15.048  13.610  11.902  0.3035 -0.1313  0.2968
 9885W        W26146   7.161   6.512   3.189  0.1768  0.0538 -0.0328
 9886W        W26147   8.271   1.712   1.286 -0.0090 -0.0106  0.2682
 9887W        W26148   5.459  16.809  15.319  0.2303 -0.2164 -0.3454
 9888W        W26149  17.693   6.851   1.925 -0.2225  0.1684  0.1898
 9889W        W26150  17.451  16.228  10.441 -0.3480 -0.1681 -0.0929
 9890W        W26151   5.641   5.531   4.044 -0.3346  0.0260  0.1924
 9891W        W26152  15.149  14.064   0.637 -0.0025 -0.0400  0.0664
 9892W        W26153   0.068  11.510  15.630  0.1732  0.2470 -0.0220
 9893W        W26154  13.776  13.947   2.639 -0.1287  0.0303 -0.3079
 9894W        W26155   9.666   1.433  12.422  0.0049 -0.0767 -0.0519
 9895W        W26156   7.922   2.628  13.426  0.1907  0.1216 -0.1014
 9896W        W26157  16.471  16.908  10.740  0.1210 -0.1025  0.2219
 9897W        W26158   1.474   2.821  12.227  0.0078 -0.2799 -0.0997
 9898W        W26159  14.971   6.817   1.009  0.1579 -0.1192  0.3983
 9899W        W26160  15.982  14.691  10.889 -0.0511  0.0244  0.0571
 9900W        W26161   0.968   9.575   3.357 -0.1146  0.0454 -0.0621
 9901W        W26162   9.640   2.278   0.099  0.1164  0.1302  0.0052
 9902W        W26163  10.578   8.344  15.244  0.1126  0.2125 -0.1187
 9903W        W26164  11.841  13.465   2.327 -0.2468  0.0464  0.1795
 9904W        W26165   5.006   5.165  14.456 -0.1908  0.0977  0.3243
 9905W        W26166   0.293   6.146   0.898  0.1002 -0.0390 -0.1240
 9906W        W26167   0.673  12.409   2.022  0.1354  0.2333  0.0780
 9907W        W26168   8.208  17.595  12.629  0.2679 -0.3172  0.0283
 9908W        W26169   6.809   5.144   3.367 -0.1790 -0.1759 -0.1667
 9909W        W26170  12.852   3.525  14.937 -0.0296  0.0536 -0.2400
 9910W        W26171  14.894   4.682   2.251 -0.0705  0.3480 -0.1051
 9911W        W26172   4.955   2.390  15.211 -0.2573 -0.2407 -0.2246
 9912W        W26173  11.384  11.364   3.015  0.1424 -0.1981  0.0980
 9913W        W26174  10.065   5.268  14.152  0.0363  0.1065 -0.1359
 9914W        W26175  14.277   5.706  12.646 -0.0549  0.0189  0.2622
 9915W        W26176   4.262   5.603  12.548  0.4522 -0.2102  0.3312
 9916W        W26177  15.338   9.044   4.447  0.0434 -0.1070 -0.0311
 9917W        W26178  10.106  17.847  13.649  0.1158  0.0763 -0.1566
 9918W        W26179   4.781   3.705  16.160 -0.1037 -0.0950 -0.1607
 9919W        W26180  10.448   2.183  13.136  0.0290 -0.1191  0.1422
 9920W        W26181   3.331   9.111   4.627 -0.4250 -0.0277 -0.1764
 9921W        W26182  10.243   4.180   1.962 -0.0814  0.0641  0.0496
 9922W        W26183   3.261  12.205   5.415 -0.0189  0.1747 -0.3175
 9923W        W26184   6.112   1.356  13.853  0.3043 -0.2607  0.0726
 9924W        W26185   7.281  13.904   0.931  0.0666  0.2773 -0.0347
 9925W        W26186  12.837   8.561   5.000  0.0310 -0.1531  0.1560
 9926W        W26187   5.133   8.625   3.973  0.0061 -0.0231  0.0086
 9927W        W26188   2.524  14.271  12.713  0.1834  0.1612  0.0622
 9928W        W26189  15.934  15.373  14.604 -0.0841 -0.1368 -0.0518
 9929W        W26190   2.482  10.941  12.771 -0.2421  0.1430  0.2005
 9930W        W26191  14.189  11.533   4.667 -0.1670  0.1141 -0.0921
 9931W        W26192   9.075  17.540   3.000 -0.2520 -0.0257  0.2749
 9932W        W26193   7.209  11.058   3.457 -0.2493 -0.0397  0.1722
 9933W        W26194   4.615  15.468   5.495  0.1247 -0.1113  0.1780
 9934W        W26195  15.927   4.406  13.026  0.0148  0.0745  0.0780
 9935W        W26196   5.213  12.535   4.918 -0.1703  0.0561 -0.5404
 9936W        W26197  11.569  16.870  11.893  0.2506 -0.2177  0.0000
 9937W        W26198  16.954   5.602  12.316  0.0820  0.1654 -0.0277
 9938W        W26199   9.793   8.537  15.375 -0.0033 -0.1969 -0.2800
 9939W        W26200   7.444  10.958   6.381 -0.2801  0.1978 -0.1308
 9940W        W26201  18.108   5.416  12.873 -0.2700 -0.0160 -0.3133
 9941W        W26202   2.710   2.064   3.666  0.0321  0.1000  0.0459
 9942W        W26203   7.245   3.397   0.240 -0.2485 -0.1055  0.3203
 9943W        W26204  15.782   3.730   2.667  0.0842 -0.1265  0.1711
 9944W        W26205  17.398   2.223  13.029  0.2868 -0.0410  0.0724
 9945W        W26206   5.943   0.980  13.331 -0.1066  0.2309  0.1526
 9946W        W26207   2.855   1.284  13.834 -0.0665  0.0163  0.1979
 9947W        W26208   1.057   1.618   5.779  0.1599 -0.2725 -0.0596
 9948W        W26209  12.641  10.644  13.494  0.2203  0.0280  0.4436
 9949W        W26210   9.437  14.349   2.812  0.3089  0.3580  0.0110
 9950W        W26211  16.912  15.079  14.240 -0.0022 -0.2098 -0.0646
 9951W        W26212   0.010   2.770   2.322 -0.1773  0.0018 -0.0190
 9952W        W26213   5.350  18.122  15.553  0.0947 -0.0076  0.1439
 9953W        W26214   4.321   0.300  12.420  0.1993 -0.3660  0.2616
 9954W        W26215  13.823  12.806   1.923 -0.3061 -0.2088  0.0204
 9955W        W26216  17.366  12.489  15.746  0.0775  0.2593 -0.4021
 9956W        W26217  17.873   1.437  10.638 -0.1505  0.3661  0.0328
 9957W        W26218  15.033   3.119  11.664 -0.2689 -0.3305 -0.4611
 9958W        W26219   0.650  13.196   3.393  0.3400  0.2422 -0.4031
 9959W        W26220  12.790  11.736  12.311  0.0017 -0.1526  0.0709
 9960W        W26221   1.173  14.585  12.911  0.1912 -0.1773 -0.0228
 9961W        W26222  16.517   1.773   3.208 -0.1145  0.1030  0.0305
 9962W        W26223   0.518   5.433   0.348 -0.0850 -0.5791  0.2716
 9963W        W26224  16.585  15.471  15.863  0.1069  0.0545 -0.2653
 9964W        W26225  14.620  15.829   1.644 -0.0473  0.1889  0.0255
 9965W        W26226   9.217   4.529   5.853  0.0343  0.1036 -0.1957
 9966W        W26227  16.454  16.431   4.005  0.0748 -0.0428 -0.1277
 9967W        W26228  10.079  17.145   0.326 -0.0355  0.3946 -0.0861
 9968W        W26229   5.515   4.043   3.624  0.1351 -0.2048  0.1381
 9969W        W26230  11.598  15.713   1.610  0.1337 -0.3628 -0.0108
 9970W        W26231   9.348   3.416   3.797  0.3011  0.0721  0.0154
 9971W        W26232  17.098   4.616   2.922 -0.3136  0.0259 -0.2802
 9972W        W26233   6.932  10.095   3.126 -0.1047  0.1483 -0.1084
 9973W        W26234  11.727  12.552   3.136 -0.3318 -0.0641  0.0935
 9974W        W26235   3.882  17.309   5.035  0.0827 -0.3364 -0.1333
 9975W        W26236  14.903   7.911   2.584 -0.1318 -0.1076  0.1667
 9976W        W26237   5.162   1.051  12.911 -0.1468  0.0942  0.0016
 9977W        W26238  10.241  17.927   4.877  0.2351  0.0969 -0.0513
 9978W        W26239  10.713  16.096  10.304  0.1400  0.0464  0.1072
 9979W        W26240   5.005  15.959   2.867  0.0880  0.4695 -0.2496
 9980W        W26241  18.107  16.936  14.966  0.1116 -0.0089  0.1178
 9981W        W26242  16.668   1.413  11.905 -0.3726  0.3348 -0.0293
 9982W        W26243  18.216   9.752   4.915  0.0753 -0.2174  0.1824
 9983W        W26244   5.065   2.920  12.309  0.3688  0.0952  0.0448
 9984W        W26245   4.443   0.075   6.315 -0.4258 -0.2913  0.0568
 9985W        W26246  18.190   4.016   2.324 -0.0919  0.0392 -0.0441
 9986W        W26247   0.693  12.269  12.285  0.1146  0.0244  0.0010
 9987W        W26248   6.239   9.952  11.049 -0.0285  0.3121  0.1149
 9988W        W26249   5.629   9.070   5.710 -0.1541  0.2141  0.0545
 9989W        W26250  14.151   1.217   3.623 -0.1084 -0.1608 -0.2512
 9990W        W26251   0.466  10.998  10.498 -0.1008 -0.1078  0.0893
 9991W        W26252  15.399  12.533  14.256  0.1742  0.0519  0.2092
 9992W        W26253   8.810  13.350  14.441  0.1163 -0.0086 -0.3633
 9993W        W26254  16.787  13.230  11.859 -0.1473  0.1770 -0.0211
 9994W        W26255   4.467   1.551  14.296  0.1789 -0.1472 -0.3781
 9995W        W26256   2.850   4.098   2.776 -0.3300 -0.2143 -0.3096
 9996W        W26257  13.216   1.143  11.700  0.1187 -0.1046  0.1757
 9997W        W26258  17.604  16.188  12.825  0.1222  0.1086 -0.3145
 9998W        W26259   3.659  12.430   1.020  0.1659  0.0351  0.2792
 9999W        W26260  13.437   6.325   1.893 -0.2847 -0.0402 -0.1624
10000W        W26261  18.131  10.009   2.397  0.0266  0.0596  0.2148
10001W        W26262  15.868  17.624   2.113  0.1532  0.1857  0.0783
10002W        W26263  15.582  16.946  10.561 -0.0085  0.0608 -0.0111
10003W        W26264   5.544   5.094  12.752 -0.0137  0.0173  0.0165
10004W        W26265   7.791   6.328  12.959  0.0012 -0.0977 -0.2011
10005W        W26266  11.280  17.054  15.257  0.1116 -0.0728  0.1148
10006W        W26267   9.286  14.102   1.395 -0.0181 -0.1996  0.0546
10007W        W26268   9.818   5.656  12.861  0.0854  0.1932  0.1647
10008W        W26269  16.365  10.859  14.752 -0.0682  0.1191 -0.0578
10009W        W26270  17.847  17.932   1.008  0.2327  0.3934 -0.0343
10010W        W26271   4.943   9.892   0.247 -0.0370  0.2378 -0.1341
10011W        W26272   8.916   0.044  14.868 -0.1010 -0.2391 -0.3109
10012W        W26273   7.131  14.305  11.936 -0.1868 -0.1936  0.2478
10013W        W26274   7.812  11.903   0.082  0.0230  0.3520  0.3045
10014W        W26275  14.368  14.477  13.541  0.1636  0.1427 -0.0264
10015W        W26276   0.173   1.949   1.330 -0.0561  0.0307 -0.2283
10016W        W26277   5.248   9.605  14.511 -0.3051  0.0749  0.1030
10017W        W26278   5.729  10.081   0.624  0.0073 -0.0130 -0.2034
10018W        W26279  10.719   0.845   5.512 -0.2712 -0.1214 -0.1670
10019W        W26280  14.546   1.164   4.455 -0.1664 -0.1480 -0.0385
10020W        W26281  12.185   5.860   0.989  0.3153  0.0186 -0.1882
10021W        W26282   6.449  16.856   2.577 -0.2063  0.1404 -0.1490
10022W        W26283   5.998  11.463  12.842  0.2349  0.3242  0.0323
10023W        W26284   8.472   1.890   0.337  0.0954  0.2835  0.1766
10024W        W26285  16.917  17.352   1.839 -0.4360 -0.1443 -0.0839
10025W        W26286  10.095   7.485  16.089 -0.3735  0.1541 -0.1713
10026W        W26287   1.628   2.561  12.786  0.0362 -0.0450  0.1249
10027W        W26288  16.097  13.982  14.414 -0.0069 -0.4314  0.0660
10028W        W26289  10.869   5.539   3.815 -0.0055 -0.2507  0.3083
10029W        W26290   0.521  11.797  12.034  0.1841 -0.0036 -0.1245
10030W        W26291   6.710  16.886  14.687  0.1023  0.2341 -0.1378
10031W        W26292  16.927   5.039   0.721  0.0983  0.1446  0.3006
10032W        W26293   4.664  12.600   1.302  0.2524 -0.3037 -0.0916
10033W        W26294  13.996  12.634  12.602 -0.0937  0.1721  0.1240
10034W        W26295  16.401  11.688  10.782  0.0137  0.1803 -0.0514
10035W        W26296  15.469   1.513  12.410 -0.0261 -0.1367  0.4463
10036W        W26297  17.771  10.020   2.101  0.3023 -0.1215  0.2073
10037W        W26298   1.002  13.447  11.885  0.1427  0.2381  0.0942
10038W        W26299   1.185  11.834  12.964  0.0923 -0.2397  0.1195
10039W        W26300  15.488   0.731  13.005  0.1002  0.0890 -0.1588
10040W        W26301   4.919  11.295   1.117 -0.0343 -0.0371 -0.1899
10041W        W26302   9.621   1.910   4.801 -0.0463 -0.2385  0.1855
10042W        W26303   6.740  10.775  13.739 -0.0948  0.4348 -0.3091
10043W        W26304   8.173   6.390   4.036 -0.0644  0.0785  0.3244
10044W        W26305   2.381  14.194   0.162 -0.1844 -0.0341 -0.1180
10045W        W26306  18.228   0.866   3.218 -0.3537 -0.0360  0.0534
10046W        W26307  14.396  15.141  15.058  0.1460 -0.4999  0.1885
10047W        W26308  16.537   9.256   3.012  0.0713  0.2448  0.0685
10048W        W26309  12.237  14.529   1.288  0.1226  0.1296 -0.1424
10049W        W26310  13.753  12.356  10.708  0.1120  0.1066  0.1976
10050W        W26311  13.405   7.619   1.290  0.0902  0.2276 -0.0173
10051W        W26312  16.263   7.766  13.232  0.2584  0.0728  0.2640
10052W        W26313  10.792  14.649   3.845 -0.0458 -0.3925 -0.0656
10053W        W26314  16.714  11.963   1.586  0.0616  0.0162 -0.1619
10054W        W26315  16.055  15.248   3.812 -0.0911  0.0073 -0.2782
10055W        W26316   0.432   0.417  11.692  0.2519  0.0818 -0.2219
10056W        W26317  16.713   6.458   3.596  0.2876  0.0627 -0.0155
10057W        W26318  18.111  12.052   1.898  0.0784  0.0923  0.1279
10058W        W26319  13.564  16.101  13.258 -0.1029 -0.2540 -0.0134
10059W        W26320   1.735   4.800  15.743  0.2610  0.3134  0.0182
10060W        W26321  14.902  14.122  15.692  0.0507 -0.2560  0.3459
10061W        W26322   1.430  12.057  15.199 -0.2621  0.0945 -0.0827
10062W        W26323   2.703  17.602  14.300  0.0532 -0.0478 -0.1654
10063W        W26324   7.454  18.077   1.285 -0.0662  0.1077  0.3175
10064W        W26325  10.651   9.359   4.534 -0.0062  0.0840 -0.1280
10065W        W26326   9.956  14.085  15.786 -0.2512 -0.4382 -0.0688
10066W        W26327   5.872  11.316   1.150  0.2583 -0.1083 -0.0558
10067W        W26328  16.829   0.108  12.415  0.2257  0.0103 -0.1067
10068W        W26329  16.081  10.815   1.251  0.0583  0.2070  0.0453
10069W        W26330   6.991   4.766   0.231  0.0661  0.0942  0.3756
10070W        W26331  13.865   8.645  14.796  0.1609  0.2052  0.0149
10071W        W26332  14.191   2.806  16.115 -0.1561 -0.0063  0.1597
10072W        W26333  10.613   3.787   3.700  0.1326 -0.2019  0.0065
10073W        W26334   9.127  11.825   4.869 -0.0456  0.0297 -0.0490
10074W        W26335   5.190  12.293   5.356 -0.2030  0.2625 -0.2554
10075W        W26336  13.666   3.514   1.633 -0.1731 -0.0192  0.2003
10076W        W26337   3.948   7.545   2.329  0.1551  0.0260  0.0221
10077W        W26338   1.788  12.317  13.160 -0.0979 -0.0886 -0.0911
10078W        W26339   3.731   5.717   5.738  0.5148  0.1784  0.0418
10079W        W26340  14.703  15.857  13.541  0.0825 -0.1301  0.3281
10080W        W26341  16.126   5.306   4.235  0.0483  0.4037 -0.1798
10081W        W26342   0.638   8.266  15.454 -0.2073 -0.3173 -0.2439
10082W        W26343   7.891  13.124  14.452 -0.0223  0.2580  0.1913
10083W        W26344   9.742   6.252   6.600 -0.0082 -0.0374  0.0262
10084W        W26345   9.427   5.741  11.006  0.1176  0.0457 -0.0146
10085W        W26346   6.551   9.142   5.154 -0.2563  0.1147 -0.1509
10086W        W26347  15.881   4.797   0.423  0.0080  0.0488  0.1523
10087W        W26348   4.069   4.086  12.445 -0.0111 -0.1739 -0.2227
10088W        W26349   6.285   3.339  10.886 -0.0389  0.0860  0.2748
10089W        W26350  18.430   8.874   1.668 -0.0675 -0.1540 -0.1266
10090W        W26351   8.097   5.678  15.254  0.1657  0.2985 -0.0750
10091W        W26352   8.644  13.274   2.262 -0.0269 -0.1189 -0.0368
10092W        W26353   1.376   3.164  10.950  0.3952 -0.0948 -0.1799
10093W        W26354  10.534  16.135  11.474  0.0264 -0.0981 -0.0185
10094W        W26355  15.401   4.552  14.237  0.1626 -0.3427 -0.0721
10095W        W26356  10.810  17.134   4.811 -0.0822  0.1415 -0.2661
10096W        W26357   7.834   9.465   3.669  0.1779 -0.1065 -0.1246
10097W        W26358  15.855   5.246  15.552 -0.0866  0.4402 -0.2611
10098W        W26359   6.359  11.011   1.970  0.1420 -0.0645  0.0119
10099W        W26360   0.582  17.825   0.085  0.1815  0.3749 -0.1452
10100W        W26361   2.582  17.411  15.064 -0.3711 -0.1793 -0.0849
10101W        W26362  10.252  18.476   1.508 -0.1295  0.2626  0.0731
10102W        W26363  16.643  17.717  10.693  0.1732 -0.2669  0.3443
10103W        W26364  11.027  14.435   1.588  0.1986 -0.0726  0.1378
10104W        W26365   6.793   5.776  12.386  0.0079  0.1164  0.1121
10105W        W26366   5.254   6.052  14.347 -0.3052  0.1484 -0.1359
10106W        W26367  11.933  12.224   2.593 -0.2487 -0.2842  0.0978
10107W        W26368  14.757   3.315  11.174  0.1169  0.4456  0.0210
10108W        W26369  10.968   0.578   1.831  0.0120  0.0067  0.0888
10109W        W26370   7.675   4.398   4.797  0.3019 -0.1377  0.1161
10110W        W26371   2.380   7.613   1.321  0.0592 -0.0443  0.2743
10111W        W26372   9.494   0.314  15.665  0.1303  0.0503 -0.1634
10112W        W26373   3.502  15.708  15.388  0.1701 -0.1198  0.0362
10113W        W26374   6.579   2.194  15.426 -0.1454  0.2059  0.1505
10114W        W26375   8.219   9.123   4.970  0.0910 -0.0860 -0.0209
10115W        W26376  12.367  17.832  14.184 -0.0953  0.0612 -0.0701
10116W        W26377  16.962   3.334  11.774 -0.0289  0.1265 -0.1594
10117W        W26378   1.391  15.916   1.690 -0.3646  0.2082 -0.0377
10118W        W26379   0.737  13.886  12.642  0.2144 -0.1191 -0.1786
10119W        W26380  10.638  11.052   5.685 -0.2182 -0.2680  0.2878
10120W        W26381   9.296   6.763   1.480  0.2185  0.0876 -0.1008
10121W        W26382   7.824   9.726   4.126 -0.1333  0.0846 -0.2620
10122W        W26383  18.269   4.373  15.846  0.2330  0.0789 -0.4373
10123W        W26384   2.861  14.889  14.648 -0.1364  0.3666  0.1067
10124W        W26385  15.960  14.973   3.409 -0.1367  0.1311 -0.1148
10125W        W26386  14.152  16.468  15.794 -0.0431  0.2141  0.0744
10126W        W26387   6.674  13.562  15.753  0.2413 -0.1496  0.0367
10127W        W26388   3.074  14.910   6.317 -0.1644 -0.0264  0.1727
10128W        W26389   6.936  10.589  16.167  0.1554 -0.3620 -0.1704
10129W        W26390  12.635  11.140  11.705  0.0939 -0.1808  0.0711
10130W        W26391   2.609   4.180  15.786 -0.1755  0.1632 -0.1800
10131W        W26392  11.391   1.640   5.524  0.2950  0.0647  0.1604
10132W        W26393  10.540  10.366   3.788  0.0390 -0.1322 -0.2406
10133W        W26394  11.306   1.718  15.151 -0.3596 -0.3378 -0.2640
10134W        W26395   3.876   6.686  12.819  0.1802  0.0556 -0.1835
10135W        W26396   2.905  16.638   2.343 -0.0920  0.2100  0.1609
10136W        W26397  17.414   8.035   3.707 -0.1430  0.0220 -0.1708
10137W        W26398   7.937   1.424   5.374 -0.2481  0.2150 -0.1142
10138W        W26399  11.843  15.079   5.150 -0.0929  0.0971  0.0375
10139W        W26400   8.037   0.586  13.209 -0.1900 -0.1602  0.0511
10140W        W26401   9.949  13.295  11.190 -0.4106 -0.0733  0.2963
10141W        W26402   0.484  14.466   5.448  0.0513 -0.3920  0.0732
10142W        W26403   8.195  18.126  12.405  0.1638  0.1742  0.1167
10143W        W26404   3.585   1.221   5.871 -0.0048 -0.1091 -0.2111
10144W        W26405   3.495  13.059  12.100  0.1312 -0.0319  0.1553
10145W        W26406   4.660   6.035   1.788 -0.0191  0.0401  0.1483
10146W        W26407  14.461   0.362  11.820  0.2374 -0.1864  0.1334
10147W        W26408   6.025   2.441   4.297  0.1683  0.1745  0.0517
10148W        W26409   6.156  17.470  12.922 -0.1052  0.1325  0.0249
10149W        W26410   0.358  11.711   5.315  0.0370 -0.1101 -0.0886
10150W        W26411   9.668   4.497  15.867  0.1670  0.1651  0.0860
10151W        W26412  14.566  13.021   2.128  0.2203 -0.1524  0.1509
10152W        W26413  11.838   3.574   2.981 -0.0559 -0.1102 -0.1037
10153W        W26414   8.636   4.891  11.164 -0.0827  0.2030  0.1335
10154W        W26415   7.042  10.812   1.509 -0.2282 -0.2739 -0.2499
10155W        W26416  15.986  10.725  14.347 -0.0180 -0.0011 -0.3502
10156W        W26417   3.900   3.440  13.356 -0.1304 -0.1216 -0.2046
10157W        W26418  13.576   0.474  13.792 -0.1732  0.1645 -0.2287
10158W        W26419   9.105  13.401   5.009 -0.2070 -0.0374 -0.0799
10159W        W26420   6.159   4.986   6.379  0.0898 -0.0268  0.4001
10160W        W26421   5.046  10.946   2.683 -0.0786 -0.2992 -0.0008
10161W        W26422  18.035  18.124  10.941  0.1757 -0.0783  0.0229
10162W        W26423  17.259  13.857  10.974  0.0613 -0.0833  0.0997
10163W        W26424  15.529   5.735  15.321 -0.0758 -0.1032 -0.1369
10164W        W26425  13.992  15.461  15.053 -0.0575 -0.0091 -0.0753
10165W        W26426   7.336   0.761  15.191 -0.1008  0.1515 -0.1157
10166W        W26427   8.898  16.072  11.901 -0.4006  0.1516  0.1225
10167W        W26428  15.819   9.599   4.613  0.0997 -0.0477  0.2978
10168W        W26429   5.118  16.448  15.038 -0.1343  0.0485 -0.0090
10169W        W26430   6.873   6.344   4.217  0.0231 -0.2831  0.1162
10170W        W26431  12.969  12.546   5.214 -0.2690 -0.0344 -0.3167
10171W        W26432  15.215   3.528  11.024  0.0383 -0.0257 -0.0086
10172W        W26433   0.684  16.778  13.153  0.0384  0.1995 -0.1704
10173W        W26434   2.347  11.534   5.247  0.0685  0.3273  0.1397
10174W        W26435   6.587  13.100  13.442 -0.0200  0.2810 -0.2348
10175W        W26436  15.984  15.016  13.124 -0.0666 -0.0346  0.0658
10176W        W26437  14.769  17.777  11.973 -0.2426 -0.2922 -0.1384
10177W        W26438   7.101  10.521   4.053 -0.3063 -0.0797 -0.0668
10178W        W26439   1.863   3.628   5.627 -0.0998 -0.1036  0.0636
10179W        W26440   9.793  15.752  16.083  0.0335 -0.3783 -0.1985
10180W        W26441  16.852   7.490  12.854  0.0377 -0.1067  0.0770
10181W        W26442  10.997   5.621  14.268  0.2741  0.0275 -0.0415
10182W        W26443   5.813   9.848   2.405 -0.0968 -0.3315 -0.0020
10183W        W26444   1.323  14.218  15.688  0.1470  0.1215  0.5430
10184W        W26445  12.801  15.314  12.689 -0.2649  0.2259 -0.3604
10185W        W26446  18.023  11.143  12.894  0.1446 -0.1106  0.1459
10186W        W26447   8.218  17.679   0.294  0.0283  0.1892 -0.1628
10187W        W26448  18.226   8.132  15.236 -0.5226  0.4180  0.1878
10188W        W26449   1.100   5.693   1.209  0.1004 -0.0126 -0.2833
10189W        W26450   3.038  17.144  11.541 -0.2526  0.3065 -0.1392
10190W        W26451   0.552   3.802  15.489 -0.0764  0.0754 -0.0329
10191W        W26452   9.832   2.518  14.094 -0.1004 -0.2386 -0.1949
10192W        W26453   2.204  12.083  14.421 -0.2084 -0.2214  0.1863
10193W        W26454  11.996  17.362   0.835  0.0278  0.1906 -0.5152
10194W        W26455   8.765   3.561   0.361 -0.3143 -0.3013 -0.0316
10195W        W26456  11.800  10.427   2.940 -0.0652 -0.0788  0.0091
10196W        W26457   3.074  11.473   3.175  0.0737 -0.0598  0.1927
10197W        W26458   3.003  13.309  13.543 -0.4580  0.0544  0.0257
10198W        W26459   5.692   8.906   5.119  0.0292  0.0563  0.0711
10199W        W26460   8.913   0.019  13.566  0.0605 -0.1597 -0.2823
10200W        W26461  16.640   4.655  15.560 -0.0580 -0.0794  0.2319
10201W        W26462  11.278  10.644  13.540 -0.1803 -0.1369  0.1978
10202W        W26463   6.643   4.892  15.845  0.1098 -0.0081  0.1582
10203W        W26464   6.498  11.309  12.928 -0.0615 -0.0697  0.1976
10204W        W26465   8.665   7.918   3.406 -0.0842  0.1028  0.2335
10205W        W26466  10.584  15.802  13.327  0.0502 -0.1979  0.1792
10206W        W26467   8.688   0.561  14.075  0.3101 -0.1205 -0.4018
10207W        W26468   6.293  16.042   5.441  0.0829  0.3953  0.0142
10208W        W26469   3.343   0.502  12.322  0.0342 -0.0195 -0.3722
10209W        W26470   2.027  16.441  15.562  0.1544 -0.0455 -0.1068
10210W        W26471   3.524  17.758   4.025 -0.0196 -0.0556 -0.5495
10211W        W26472   1.024   7.983  12.643 -0.0344  0.1558  0.0435
10212W        W26473  10.562  15.716  11.741 -0.1951  0.1673  0.1611
10213W        W26474   6.915   0.644   1.019 -0.1951  0.5056  0.1676
10214W        W26475   4.214   1.527   0.558  0.1521 -0.0770  0.0396
10215W        W26476  16.847   9.464   5.092  0.0580  0.2213  0.0633
10216W        W26477   4.144  17.698   0.835 -0.0772  0.3191 -0.0970
10217W        W26478  14.520   4.972  10.340  0.2409 -0.0260  0.2114
10218W        W26479  14.247   5.511  13.481 -0.0801  0.0350  0.1252
10219W        W26480   7.879   0.005   1.939 -0.0115  0.0322 -0.0760
10220W        W26481   5.020   7.375   5.233  0.2638  0.1366 -0.3541
10221W        W26482   8.346   0.924  11.524  0.1062  0.2839  0.0975
10222W        W26483  10.805   1.374   4.184 -0.3545  0.2640 -0.4221
10223W        W26484   0.865  11.770   0.119 -0.1749  0.1809  0.1842
10224W        W26485  18.334  18.412  13.862 -0.0318  0.0008 -0.0581
10225W        W26486  14.922  16.575  12.977  0.1010 -0.0126 -0.0732
10226W        W26487  10.005  14.530  15.491 -0.1941 -0.0895  0.0019
10227W        W26488  16.459   7.839   4.269 -0.2505 -0.1641 -0.0399
10228W        W26489  17.267  15.611   2.919  0.3134  0.2180  0.0311
10229W        W26490  14.220  14.104   2.964  0.0268  0.2788 -0.1814
10230W        W26491   5.595   3.179  13.751  0.0705  0.0869  0.0272
10231W        W26492   4.983  17.686  10.822  0.2505  0.1643 -0.3546
10232W        W26493  11.189  13.315   4.495  0.2161 -0.0593  0.2598
10233W        W26494   2.381  15.031  14.432 -0.0007 -0.2328  0.0609
10234W        W26495  17.263   8.462  14.741  0.3488  0.2397 -0.1986
10235W        W26496  15.667   0.655   0.526  0.0123  0.3816 -0.2856
10236W        W26497  18.435   2.070  13.317 -0.1068 -0.0646  0.1256
10237W        W26498  14.254  13.088  10.406  0.0223 -0.0071  0.1096
10238W        W26499  15.643  18.359   0.257 -0.1243 -0.1546 -0.1476
10239W        W26500   9.522  10.886  10.506  0.3178 -0.0933 -0.1366
10240W        W26501   0.121  13.816  15.467  0.0324 -0.1108 -0.1585
10241W        W26502   4.322   6.766  12.556  0.1278  0.1638 -0.0156
10242W        W26503   3.215  14.234  11.746  0.1777  0.1795 -0.2865
10243W        W26504   1.182   2.817  12.740  0.1992 -0.0094 -0.0333
10244W        W26505  11.520  17.217  12.258  0.3203 -0.1612  0.0044
10245W        W26506   4.994   4.777  16.030 -0.2624 -0.1656 -0.3073
10246W        W26507  13.798   5.834   3.152  0.2425 -0.0563 -0.1677
10247W        W26508   5.492  16.840   2.631 -0.3431 -0.0632  0.1839
10248W        W26509   7.880  11.702   4.229 -0.1896 -0.2060  0.1947
10249W        W26510  14.451  15.830  12.263 -0.0242  0.3251 -0.0209
10250W        W26511  11.382   3.011   5.010 -0.1579 -0.0134 -0.5045
10251W        W26512   9.577   3.042  12.523  0.1279  0.1557 -0.0391
10252W        W26513   7.542   6.192  13.889 -0.0021 -0.0232 -0.1929
10253W        W26514   5.430  13.535   0.002 -0.2191  0.2315 -0.0184
10254W        W26515   5.943   3.562  15.027  0.5907 -0.0293 -0.2142
10255W        W26516  13.231  10.564   4.460  0.1457  0.1847  0.0050
10256W        W26517   7.374   0.523   5.584  0.2249  0.1729 -0.2527
10257W        W26518  15.796  14.847  14.341 -0.3646  0.4550 -0.2401
10258W        W26519   5.206  11.272  12.153  0.1701  0.0223  0.6238
10259W        W26520   5.747  11.328  14.719  0.0564 -0.3309 -0.1568
10260W        W26521   4.863  10.260  12.954 -0.0316 -0.1634  0.0391
10261W        W26522   3.946  14.553  15.563  0.3438 -0.0741  0.1405
10262W        W26523   8.434   5.210  15.212  0.0828 -0.2579 -0.4017
10263W        W26524   7.892  10.892  14.658  0.0498  0.1156 -0.0883
10264W        W26525  13.444  10.021   3.745 -0.3573  0.3814 -0.1596
10265W        W26526  10.799  14.897  10.751  0.1299  0.0375  0.0424
10266W        W26527   3.798   4.916  12.556 -0.0353  0.1659  0.0268
10267W        W26528   0.251   9.686   4.641  0.0562 -0.1755  0.1819
10268W        W26529  15.243   2.415   0.158 -0.0761 -0.1121 -0.0357
10269W        W26530   8.190   4.819   3.469  0.1137 -0.0589  0.3539
10270W        W26531  17.335  11.572   4.251 -0.3463 -0.0511 -0.1601
10271W        W26532  12.780   1.380   0.098 -0.1575  0.1039  0.0051
10272W        W26533  10.722   7.601  13.518 -0.1177  0.3577 -0.1585
10273W        W26534  18.379  12.317   1.570 -0.2558  0.0580 -0.0551
10274W        W26535  14.112  16.950  11.845 -0.1323 -0.2650  0.1150
10275W        W26536   9.820  15.620  14.736  0.0976 -0.4595 -0.1546
10276W        W26537  18.206  12.041  15.724 -0.4383 -0.1599 -0.1201
10277W        W26538   5.324  12.059   1.712  0.3195  0.2390 -0.0149
10278W        W26539  15.884   3.337  13.458 -0.0616  0.0709  0.2194
10279W        W26540   1.646  15.315   5.305 -0.0457  0.2063 -0.1067
10280W        W26541   2.534   6.183   1.203  0.0226  0.0130 -0.4404
10281W        W26542   1.505   2.296   6.373  0.1012  0.1072 -0.0031
10282W        W26543  14.852   4.905  13.650  0.1691 -0.1913  0.0168
10283W        W26544   4.312  15.273   5.115 -0.1258 -0.0830 -0.2365
10284W        W26545  14.606   1.926   3.204  0.1697  0.2612  0.2732
10285W        W26546  12.131  14.340   2.893  0.1008  0.0827  0.1626
10286W        W26547  15.713   7.245   5.848 -0.2828 -0.3242 -0.0386
10287W        W26548  18.441  18.122   5.707 -0.2729  0.0646  0.1491
10288W        W26549   8.561   3.313   5.273 -0.0721 -0.1352  0.1208
10289W        W26550  15.854   8.136  12.460 -0.0929  0.2191 -0.1034
10290W        W26551   4.330   7.126   5.776  0.1427 -0.1628  0.1246
10291W        W26552   4.435   6.657   3.797 -0.0125 -0.4894 -0.1797
10292W        W26553   3.178   0.519  15.138  0.1304  0.2437 -0.3199
10293W        W26554   1.341   2.073   3.941 -0.0678  0.2561  0.1076
10294W        W26555  17.700   6.461   0.416 -0.0002 -0.3186  0.0915
10295W        W26556   4.419  15.681  14.089 -0.1716 -0.5499 -0.0984
10296W        W26557   8.723  11.076   1.311 -0.0017  0.1485 -0.0894
10297W        W26558   3.849  15.422   1.364 -0.0428  0.2455 -0.0192
10298W        W26559   8.078   6.936  12.746 -0.0949 -0.4906  0.1416
10299W        W26560   5.101  14.905  15.377 -0.1454 -0.1139  0.0522
10300W        W26561   9.261  15.434   3.682 -0.1591  0.0064 -0.3298
10301W        W26562  17.677  12.817  14.228 -0.1871  0.0461  0.1085
10302W        W26563   7.023  15.678   1.395  0.0046 -0.3113  0.1403
10303W        W26564  10.080  11.706  12.001 -0.1734  0.1431  0.1379
10304W        W26565  16.134   8.333   4.953 -0.1717  0.2764  0.3261
10305W        W26566  13.123   5.137  12.832  0.0982  0.1843  0.1839
10306W        W26567   4.279   4.981  12.422  0.1364 -0.2467  0.0968
10307W        W26568   7.844   7.269   3.900 -0.0973  0.0896  0.2279
10308W        W26569  16.973   1.911   5.177 -0.2919  0.0743 -0.2699
10309W        W26570  15.586   0.476   0.017  0.0795 -0.1311 -0.0239
10310W        W26571   0.233   4.838  13.980  0.1740  0.1331 -0.2846
10311W        W26572  12.778   6.691   0.715 -0.2299  0.0234  0.3161
10312W        W26573  13.363   0.918  15.081  0.0818 -0.2429  0.2061
10313W        W26574   7.986   8.738  16.056 -0.1462  0.0294 -0.1254
10314W        W26575   2.823  17.848  13.058  0.0602 -0.0650  0.4294
10315W        W26576   7.238   8.507   5.445  0.3495 -0.1838  0.0507
10316W        W26577  14.603   2.340  14.798  0.2848 -0.1824 -0.4649
10317W        W26578  13.629  16.587  15.910 -0.1928 -0.0009  0.0110
10318W        W26579   9.327  16.031  11.512 -0.2776  0.2095 -0.0791
10319W        W26580   8.320   5.451   1.816 -0.2848 -0.2181 -0.0955
10320W        W26581  18.352  18.326   0.647 -0.1358  0.1575  0.1293
10321W        W26582   5.232  12.722   2.931 -0.2081 -0.1534 -0.0624
10322W        W26583  13.160   1.711  12.434  0.1872 -0.0391 -0.0094
10323W        W26584   0.015  10.316  14.359 -0.2643 -0.1767 -0.1902
10324W        W26585   8.956  16.666   5.331  0.2232 -0.0383  0.0803
10325W        W26586   5.792  17.067   1.081  0.1456  0.0553  0.0889
10326W        W26587  17.608  11.777   0.377  0.0710 -0.2180 -0.2701
10327W        W26588   4.209  16.592   1.166  0.0708 -0.2213 -0.2147
10328W        W26589  17.061   8.870  11.976 -0.0862 -0.0770 -0.1338
10329W        W26590  11.386   4.783   1.776 -0.1860 -0.0278  0.0063
10330W        W26591   0.498   4.097   0.727 -0.0646  0.1156  0.1153
10331W        W26592   0.378   9.064  14.828 -0.0043 -0.0727  0.2210
10332W        W26593   5.166  16.367  12.832  0.0553  0.0730  0.3023
10333W        W26594  17.252   1.942  10.530 -0.0102  0.4940  0.0363
10334W        W26595   6.253   7.982   1.395  0.0269 -0.1140  0.0214
10335W        W26596   3.434   9.428  13.827 -0.1518 -0.0597 -0.0662
10336W        W26597   6.953   6.931  15.452 -0.1767  0.0214 -0.0176
10337W        W26598  10.989   2.450   2.104 -0.1523  0.0123 -0.0285
10338W        W26599   1.993  16.790   2.368 -0.0985  0.1023  0.0789
10339W        W26600  10.234  16.960   0.735  0.6469  0.0106 -0.0004
10340W        W26601   5.538  15.104  15.276  0.2638 -0.0630 -0.1121
10341W        W26602   0.172   2.942  13.024  0.2033  0.1108  0.0851
10342W        W26603   8.202   3.732  15.928  0.0175  0.0756  0.1793
10343W        W26604  16.029   1.300  11.714 -0.0189  0.0056 -0.1620
10344W        W26605   0.786   3.492   3.249 -0.0128 -0.1139  0.0836
10345W        W26606   6.574   7.364   0.584  0.1328 -0.0446 -0.1640
10346W        W26607   1.480   7.816   4.957  0.2933  0.0323 -0.0531
10347W        W26608  11.504   0.687  12.015 -0.1267  0.3332 -0.2315
10348W        W26609   3.001   3.893   5.823  0.0827 -0.2210  0.2968
10349W        W26610  14.072  14.634  12.149  0.0203  0.0329  0.3406
10350W        W26611  16.740  10.844   5.512  0.3366 -0.2206  0.1864
10351W        W26612  16.205  14.741   0.082  0.1719 -0.3327  0.0285
10352W        W26613   2.999   1.791   3.900  0.1019  0.1814 -0.2197
10353W        W26614   4.518   8.170  11.732  0.0766 -0.2443  0.0222
10354W        W26615  10.938   6.427   0.608  0.2878  0.2709 -0.0815
10355W        W26616  11.737   1.298   0.934 -0.0442 -0.0404 -0.0683
10356W        W26617  17.651   3.196  15.650 -0.2041 -0.0767  0.3279
10357W        W26618   2.084   8.412  15.964  0.1754  0.0112  0.2853
10358W        W26619  10.941  12.659  13.287  0.0563 -0.3756 -0.0034
10359W        W26620   0.124  11.991  10.229  0.1718 -0.1876 -0.3340
10360W        W26621  15.197  17.592   4.347  0.1327  0.2269  0.0992
10361W        W26622  15.555   4.793  11.306 -0.0155 -0.1570 -0.1447
10362W        W26623   4.445   1.323  11.278  0.1270  0.2977 -0.3185
10363W        W26624   5.289   1.168  11.628 -0.3232  0.2709  0.2042
10364W        W26625  10.713  14.782  11.960 -0.0457 -0.0687 -0.1390
10365W        W26626  15.918   4.681  11.584  0.1149 -0.0636 -0.0818
10366W        W26627  14.035   8.939  12.502 -0.2278  0.1055  0.1795
10367W        W26628   4.362  11.145  14.983 -0.0769  0.0410  0.0830
10368W        W26629   2.774  18.194  15.230 -0.0910  0.3875 -0.0227
10369W        W26630   1.312   1.079   1.072  0.3128 -0.1291  0.2557
10370W        W26631   7.451   4.552  16.082 -0.2791  0.0154  0.1318
10371W        W26632  10.682   3.306  15.340  0.2343  0.4494  0.1558
10372W        W26633  11.276   8.988  13.942 -0.3054  0.0261  0.3256
10373W        W26634  15.758   4.323  15.276 -0.2710  0.0815  0.0395
10374W        W26635  10.287  13.805   5.072 -0.0671  0.3843  0.0879
10375W        W26636   7.472  11.414   4.390  0.2218  0.0077  0.0758
10376W        W26637   7.520  13.669   0.303 -0.0751 -0.0508  0.2478
10377W        W26638   7.689   5.345   4.094  0.1201  0.0753  0.2438
10378W        W26639  10.862   8.102   5.200 -0.3125 -0.3580  0.1972
10379W        W26640   3.704  17.381  13.807 -0.0719  0.0113 -0.1427
10380W        W26641   7.878  15.805  12.591  0.3851 -0.0445 -0.0871
10381W        W26642   6.129  10.042   0.312  0.1530 -0.2264 -0.0303
10382W        W26643  11.826  16.262   3.696 -0.2820  0.0698 -0.1577
10383W        W26644  17.118   1.968  15.287 -0.1695 -0.0463 -0.0132
10384W        W26645   8.404  16.913  14.821 -0.0314  0.1709  0.0399
10385W        W26646   5.046   6.605  14.871  0.0501  0.1977  0.3400
10386W        W26647   4.566   4.523   1.676 -0.0235 -0.1857 -0.2954
10387W        W26648   7.070   7.882   1.095  0.1301  0.5399  0.1709
10388W        W26649  16.594  14.142  14.625 -0.2593 -0.0963  0.0535
10389W        W26650   4.854   8.351  12.615  0.0595  0.1167 -0.1157
10390W        W26651   0.971  13.700   3.163 -0.1136 -0.2560 -0.2560
10391W        W26652  10.402   3.846   4.475  0.3100 -0.1900  0.1199
10392W        W26653   9.288  12.736   4.673 -0.3194  0.2414 -0.1899
10393W        W26654   4.411   9.187  15.938  0.2338  0.0550  0.1371
10394W        W26655   2.030   9.773  15.183  0.0260  0.2064  0.0044
10395W        W26656   0.154  15.217   5.013  0.0517  0.1318 -0.1905
10396W        W26657  10.537   5.228   3.411 -0.2595 -0.0136 -0.0051
10397W        W26658  17.375   4.675   2.513  0.2950  0.0788 -0.3213
10398W        W26659   3.403  15.981   3.452  0.0360  0.0307  0.1256
10399W        W26660  14.385  16.934   3.450 -0.0400 -0.0974 -0.0612
10400W        W26661  15.229  11.044   3.824  0.1447 -0.0616 -0.0010
10401W        W26662   5.511  17.976   4.102  0.2524 -0.4286 -0.5235
10402W        W26663  12.853   0.857   4.478 -0.2750  0.2493 -0.1593
10403W        W26664  13.655  16.786  13.975  0.0765 -0.2831  0.1273
10404W        W26665   0.243   5.297  12.760 -0.3757 -0.2541 -0.0325
10405W        W26666  15.668  18.121  11.016  0.1357 -0.1032  0.1172
10406W        W26667   9.868   1.297  13.668 -0.2507  0.1093 -0.3515
10407W        W26668   0.379  11.272  13.134  0.4269  0.4268 -0.1132
10408W        W26669  13.011   4.810  14.459  0.0693 -0.1446  0.2079
10409W        W26670   6.287   5.965  14.853 -0.5128  0.1188  0.0957
10410W        W26671   2.006   8.231   4.206 -0.3094 -0.0174 -0.1661
10411W        W26672  15.959  12.144   2.915 -0.0644  0.0708 -0.0046
10412W        W26673  10.119  15.830   4.493  0.3921 -0.1195  0.3682
10413W        W26674   6.294   4.133   3.532  0.0317 -0.1939 -0.1523
10414W        W26675   3.326   4.826   1.768 -0.0635  0.1132 -0.0272
10415W        W26676   3.720  18.301  15.064  0.0243 -0.1224 -0.0255
10416W        W26677   0.821   2.065  11.937  0.0845  0.0966  0.1617
10417W        W26678   2.022   6.395  13.145 -0.0048 -0.4252  0.3297
10418W        W26679   0.609  16.972  12.221 -0.1078  0.5959 -0.0722
10419W        W26680  17.325   4.824  11.916 -0.1379 -0.2386 -0.3145
10420W        W26681   7.189   1.065   1.617  0.1070  0.3363  0.0935
10421W        W26682   7.046   9.945   5.605 -0.1634 -0.2813 -0.0395
10422W        W26683   2.253   0.066  11.291  0.0337  0.3270 -0.0850
10423W        W26684  16.993  10.108  12.694  0.0562  0.1868 -0.0604
10424W        W26685   9.457   4.745   4.381  0.3057 -0.3131  0.0248
10425W        W26686   3.983   6.680   1.877 -0.0078  0.0122 -0.2346
10426W        W26687   2.297  17.691   0.399 -0.0531  0.3600 -0.3066
10427W        W26688  13.696   6.267  12.858  0.1635  0.1468 -0.0436
10428W        W26689   5.289   2.066  13.860 -0.2062 -0.2382  0.0552
10429W        W26690   8.494  17.342   1.706  0.3043 -0.2407 -0.1607
10430W        W26691   1.996   4.144  12.401 -0.1230  0.0868  0.0712
10431W        W26692  11.711   8.936   0.385  0.0961  0.0053 -0.2508
10432W        W26693   1.805   9.798   3.179 -0.1521  0.0851 -0.2255
10433W        W26694   4.998   3.831  14.890  0.0917 -0.1073  0.0718
10434W        W26695  13.944   4.254  13.416  0.2699  0.2517 -0.1665
10435W        W26696   4.330   2.832   3.253 -0.2528 -0.3185 -0.1923
10436W        W26697  12.927   4.846  15.811  0.4495 -0.1164 -0.1234
10437W        W26698   4.687  11.651  12.123  0.0092 -0.1745  0.2143
10438W        W26699   5.128   5.635  14.752  0.0556  0.1195 -0.1875
10439W        W26700   6.899  17.632  14.024 -0.1780  0.2171  0.3787
10440W        W26701  11.440   1.315  14.816 -0.3457 -0.2456  0.0001
10441W        W26702   1.772  17.103  13.859  0.1155  0.2727  0.1338
10442W        W26703  13.830   4.852   5.965  0.1939  0.2265 -0.0794
10443W        W26704   4.769   2.393   3.476  0.2853  0.0400 -0.1898
10444W        W26705   4.652  10.261  11.514  0.0202  0.2550  0.0523
10445W        W26706   6.016  16.738  11.676 -0.1322 -0.4209  0.3718
10446W        W26707   4.401   8.990  15.078  0.0111 -0.0185 -0.2283
10447W        W26708   7.932   0.790  12.359  0.2759 -0.0523  0.0675
10448W        W26709   8.615  17.911   1.722 -0.0091  0.1802  0.0097
10449W        W26710   1.146  18.336  15.861 -0.1402 -0.0687 -0.2432
10450W        W26711  16.665  15.593   5.848  0.0944  0.1905  0.2511
10451W        W26712   5.207  16.826  14.500 -0.1490  0.0733 -0.1202
10452W        W26713   2.600  11.406   1.020  0.0477  0.0729  0.2434
10453W        W26714   3.109  10.348  12.394 -0.0101  0.3700  0.1872
10454W        W26715   7.369  17.170  15.314 -0.1400  0.1605 -0.2380
10455W        W26716   7.265   0.537   2.258 -0.2617  0.1442  0.2528
10456W        W26717  10.100   5.867  11.781 -0.0023 -0.0896 -0.1304
10457W        W26718  17.094   4.085  13.838  0.0848 -0.1915 -0.1133
10458W        W26719  14.125  13.806   3.714 -0.1640 -0.0702  0.0927
10459W        W26720   5.752   7.867  11.444  0.1357 -0.2821 -0.0695
10460W        W26721  11.006  15.024  12.369 -0.0310 -0.3859 -0.2445
10461W        W26722  11.885  16.861  13.149 -0.2458 -0.0092 -0.3629
10462W        W26723  14.591  13.833  12.637 -0.0106  0.0221 -0.1459
10463W        W26724   3.242   7.079   2.939  0.0632  0.1653 -0.0459
10464W        W26725   2.600   9.745   1.652  0.4623 -0.1858  0.4919
10465W        W26726  17.743  14.749  14.714  0.1446  0.1701  0.5042
10466W        W26727   9.782   1.686  13.411  0.2485 -0.0541 -0.1069
10467W        W26728  16.358   6.855   1.960  0.0464  0.1977 -0.0375
10468W        W26729   4.407   4.113   1.393 -0.0680  0.0150 -0.2221
10469W        W26730   7.181  13.231  12.685 -0.0354 -0.2342 -0.0811
10470W        W26731  13.659   7.180   0.349 -0.1169 -0.1629  0.0776
10471W        W26732   3.503   5.829  14.111  0.1457 -0.0624  0.1178
10472W        W26733  12.326  16.312  15.076  0.1096  0.0490 -0.3677
10473W        W26734   9.039  11.898  16.128 -0.0499 -0.1058  0.2877
10474W        W26735  17.171  12.496   9.682 -0.1036  0.3408 -0.0227
10475W        W26736   1.313   6.638  13.854  0.0245  0.0088 -0.0774
10476W        W26737  17.538  16.397  13.260  0.2941  0.2516  0.1858
10477W        W26738   5.168  10.842   4.834 -0.1341 -0.1529 -0.1396
10478W        W26739   7.433   1.406   1.853  0.2297  0.0777  0.3570
10479W        W26740  14.025   3.766  14.935  0.0459  0.4458  0.3155
10480W        W26741   0.504   3.090  13.382 -0.4318  0.0927  0.2075
10481W        W26742   2.882   9.414  12.400 -0.0458 -0.0090 -0.0994
10482W        W26743   3.621   3.173   2.088  0.1489 -0.3089 -0.1081
10483W        W26744  15.965  13.069  11.849 -0.3769  0.0225 -0.0330
10484W        W26745   7.549   4.268   1.471 -0.0476  0.0399  0.0741
10485W        W26746  11.046  14.942   3.394  0.1501 -0.1394 -0.1815
10486W        W26747   1.256  11.807   2.387 -0.3087  0.1923  0.2218
10487W        W26748   5.048  16.146   2.388 -0.0170 -0.3871 -0.0232
10488W        W26749   3.707   5.248  13.844  0.0080  0.0669 -0.1942
10489W        W26750   0.512   6.248   0.225  0.0622  0.0816  0.2360
10490W        W26751   4.990   1.875   6.806  0.1164  0.0057  0.1948
10491W        W26752   7.024  15.186   1.295  0.0511 -0.1275  0.1555
10492W        W26753   6.758  15.257   3.664  0.3137 -0.1454 -0.0986
10493W        W26754  14.672  10.039   5.354 -0.0532  0.0594 -0.1523
10494W        W26755   1.647   7.460  11.700 -0.1474 -0.0180 -0.0915
10495W        W26756  12.363   8.258   1.735 -0.0901  0.1252  0.0971
10496W        W26757   3.667   5.604  15.695 -0.4407  0.3700 -0.0568
10497W        W26758  10.448   5.066  16.138 -0.1976  0.0360  0.2128
10498W        W26759  11.996   1.730  13.464 -0.0451  0.0950  0.1654
10499W        W26760   0.120   8.235   2.818 -0.0023 -0.2441  0.1451
10500W        W26761  17.163   9.391   1.536  0.0502 -0.1641  0.0679
10501W        W26762  10.209  17.668  12.602  0.1496  0.2687  0.0413
10502W        W26763  12.325   5.310  15.259  0.2124 -0.0657  0.1947
10503W        W26764  13.543  11.160   5.154  0.0990  0.1891  0.3396
10504W        W26765   8.299   6.571   0.311  0.0318  0.1364 -0.0122
10505W        W26766  17.507  15.040  15.036  0.0097 -0.1419 -0.0504
10506W        W26767  11.306  15.886   2.927  0.1338 -0.1618  0.0541
10507W        W26768   4.188   9.049   2.474 -0.2631  0.0831 -0.0932
10508W        W26769  17.644   4.109  13.878 -0.0753  0.4653 -0.0363
10509W        W26770  12.215   2.115   2.564  0.0074 -0.4786 -0.0418
10510W        W26771  16.521   8.241   1.067 -0.1860 -0.0561  0.2957
10511W        W26772   3.926  17.224  14.633  0.0035  0.0609  0.1974
10512W        W26773   4.772  15.534   2.975 -0.1923  0.1736  0.3032
10513W        W26774   6.212  17.369   4.390 -0.1681  0.0893  0.3320
10514W        W26775   6.645   4.729  14.135  0.2383  0.0479 -0.1147
10515W        W26776   8.673   7.856  16.100 -0.0675 -0.1909 -0.0790
10516W        W26777   5.813  15.082   4.163 -0.3180  0.2178 -0.0918
10517W        W26778   8.510   0.279  13.784  0.1410  0.3803  0.4033
10518W        W26779  14.161  18.460  11.963  0.3133 -0.2483 -0.1060
10519W        W26780   6.867   8.418   2.580  0.3178  0.3205  0.0868
10520W        W26781  10.849   2.111  11.567 -0.0869 -0.1344  0.2296
10521W        W26782   2.246   7.309   2.085 -0.1417 -0.0438 -0.3789
10522W        W26783  17.344  16.947  16.139  0.0810 -0.1584  0.1333
10523W        W26784   5.861   2.926   3.389  0.2813  0.1315  0.1531
10524W        W26785   1.976   0.998   1.537 -0.1894  0.0806 -0.2559
10525W        W26786  13.912  10.204   0.113  0.1155 -0.5046  0.1051
10526W        W26787   3.817   1.018   5.454  0.3792 -0.0875  0.0396
10527W        W26788  14.183   1.989  14.569 -0.4089 -0.1706  0.1845
10528W        W26789  13.216  15.734  13.416  0.4014 -0.1287 -0.2390
10529W        W26790  14.795   8.868   5.087  0.0064 -0.1205 -0.1221
10530W        W26791   4.584  16.109   1.731  0.2243  0.0116 -0.4379
10531W        W26792  17.096   0.396   4.264  0.2205 -0.0815  0.2741
10532W        W26793   9.829   6.452  13.768 -0.0397  0.0957  0.0033
10533W        W26794  13.777   1.971  13.752 -0.1230  0.1695  0.3092
10534W        W26795   8.801   3.907   1.925  0.1353  0.1044  0.4003
10535W        W26796   3.557  12.994   2.775  0.1040  0.0214 -0.1114
10536W        W26797  15.639  16.087   3.497  0.2033 -0.2537  0.0075
10537W        W26798   8.986  18.148   1.937 -0.1710 -0.0833  0.0903
10538W        W26799  12.259   6.949  15.521  0.0546  0.1846  0.0446
10539W        W26800  10.138   8.240  12.166  0.0552  0.3665 -0.2189
10540W        W26801  15.883   6.394  14.980  0.3545 -0.1202  0.2845
10541W        W26802  14.051   8.203  13.981 -0.1068 -0.1777 -0.2147
10542W        W26803   3.923   0.492   1.388  0.1360  0.1215 -0.1367
10543W        W26804   4.935   0.063  12.485  0.0816  0.1681 -0.1623
10544W        W26805   6.687   0.651  12.868 -0.0159  0.2204  0.2910
10545W        W26806   8.693   9.497   3.420  0.0192 -0.1074 -0.0577
10546W        W26807  13.052  16.092  11.360 -0.1335 -0.1303 -0.1781
10547W        W26808   5.015  13.436   3.938  0.2483 -0.2557 -0.0858
10548W        W26809   2.976   8.720  11.182 -0.3896 -0.3932  0.3519
10549W        W26810   4.699   3.134   1.785 -0.0260  0.2792  0.1400
10550W        W26811  13.482  10.301   4.750 -0.3376  0.0700  0.1975
10551W        W26812  12.816  17.244   2.804 -0.0542 -0.1044 -0.0298
10552W        W26813  16.428   9.878  12.566 -0.1621  0.2821  0.1359
10553W        W26814   4.171  17.739   5.098 -0.1163 -0.3100 -0.3031
10554W        W26815  15.416   3.703  13.104  0.1752  0.1890 -0.1788
10555W        W26816   8.098  12.179   0.474 -0.1205 -0.2103 -0.1101
10556W        W26817  11.461   0.750   1.919  0.0227  0.2550  0.2985
10557W        W26818  17.505   1.176   5.269 -0.2685  0.3213 -0.3253
10558W        W26819   8.481  17.360  13.982 -0.0911 -0.2352 -0.0920
10559W        W26820   5.202   5.260   2.845 -0.0725 -0.2725  0.0161
10560W        W26821  17.873   9.150   2.675 -0.1914 -0.1005  0.2249
10561W        W26822   0.643  17.050  14.768  0.2709  0.0396  0.0736
10562W        W26823  13.001  18.132   2.999  0.0446 -0.1258  0.1825
10563W        W26824  14.513   7.142  12.391  0.1325 -0.2827 -0.0302
10564W        W26825   4.920   6.182   4.800 -0.0053  0.0959  0.3044
10565W        W26826   9.053  11.443   5.320 -0.2508 -0.4082 -0.3087
10566W        W26827   3.628   4.042   3.183 -0.0026  0.0716 -0.1774
10567W        W26828  10.155   0.805   4.357  0.0252 -0.3141  0.0211
10568W        W26829  15.530   4.353  11.663  0.0052  0.0005  0.1197
10569W        W26830   4.353   6.082   0.902 -0.1784  0.1164 -0.2545
10570W        W26831   4.966  15.315   3.830 -0.1125  0.3052  0.3430
10571W        W26832   8.696   4.635  15.997  0.0033 -0.0447 -0.1224
10572W        W26833  11.452   3.117  15.028 -0.1447  0.2566 -0.2781
10573W        W26834   9.327  10.473   1.685 -0.4591  0.0500 -0.1538
10574W        W26835  11.046   1.041   1.596  0.1381  0.0642 -0.1051
10575W        W26836  11.080  12.388  11.088  0.2599 -0.1337  0.1047
10576W        W26837   5.600  14.027  11.674  0.0142  0.1590 -0.1512
10577W        W26838  11.347   8.563   0.538 -0.0617  0.2489 -0.4058
10578W        W26839   6.450  12.080   0.038 -0.1451  0.2645  0.0917
10579W        W26840  11.820  10.093  15.525  0.0413 -0.1195 -0.2566
10580W        W26841  12.990   7.983   1.039 -0.2358 -0.1996  0.0618
10581W        W26842  13.788   5.482   1.896 -0.3692  0.0586 -0.0796
10582W        W26843  16.348   1.393   4.436 -0.0962 -0.3301  0.0118
10583W        W26844  14.356   3.672  12.699 -0.0657  0.0722 -0.2871
10584W        W26845  17.132   6.853   5.645  0.0473  0.0265 -0.0042
10585W        W26846   4.106   0.314   2.814  0.0067  0.0244 -0.2304
10586W        W26847   4.360   6.954  13.025 -0.1560 -0.0329  0.2559
10587W        W26848   2.209   9.177   6.146 -0.0099 -0.1261 -0.1790
10588W        W26849   6.906   0.595   5.621  0.0435 -0.0606  0.3147
10589W        W26850   0.755  14.143   3.237 -0.0403  0.0228  0.0259
10590W        W26851  10.853   9.337  12.259 -0.0824 -0.0949  0.0150
10591W        W26852  12.393  16.576  13.776 -0.2028  0.0582  0.1376
10592W        W26853   0.710   8.159   0.613  0.1505 -0.1482  0.3509
10593W        W26854   4.176   3.555  14.818  0.0948 -0.1772  0.3858
10594W        W26855   8.938  12.403   2.570  0.0881  0.0209  0.3885
10595W        W26856  16.535  12.828  12.682 -0.2527  0.2332 -0.0337
10596W        W26857  11.704   8.797  12.286  0.0310  0.0703 -0.1179
10597W        W26858  11.776  17.211  14.595  0.0616 -0.2117 -0.0605
10598W        W26859   2.403  13.155   2.642 -0.2149 -0.1105  0.2508
10599W        W26860  14.352   0.790  13.294 -0.0703  0.0819  0.0980
10600W        W26861   4.577   6.939  14.527 -0.2906  0.1282 -0.1869
10601W        W26862  17.638   8.713  12.716  0.0282 -0.0849  0.0178
10602W        W26863   7.208  11.551  11.973 -0.1637  0.1970  0.4184
10603W        W26864  16.098  14.645  15.220 -0.0075  0.1137  0.1085
10604W        W26865  14.016  13.468  15.339 -0.2316 -0.0012  0.0325
10605W        W26866  17.376   2.198  13.630 -0.0403  0.2725  0.0904
10606W        W26867   9.036  10.165  15.008  0.0733  0.0272  0.1663
10607W        W26868   9.876   5.621   4.599 -0.0388 -0.0243  0.3644
10608W        W26869  14.688  16.761  15.289  0.1190 -0.0437  0.0424
10609W        W26870   5.021  16.354   0.196  0.1507 -0.2697  0.4223
10610W        W26871  14.277   6.171  13.494 -0.0254  0.3203 -0.3507
10611W        W26872  11.487  11.090  15.912 -0.0130 -0.4033  0.0034
10612W        W26873   3.590  17.087  15.736 -0.1108  0.0701  0.1339
10613W        W26874   5.204  12.948  13.164 -0.1282 -0.2060 -0.0946
10614W        W26875  10.813  10.249   5.592 -0.0635  0.3216 -0.2881
10615W        W26876  12.402   0.028  15.656 -0.0140  0.1117 -0.0613
10616W        W26877   8.557   2.410  12.756  0.1572  0.2060  0.1412
10617W        W26878   2.308   6.778  12.977 -0.3797  0.0219 -0.2983
10618W        W26879   1.776   9.083   1.831 -0.0514  0.2105 -0.2344
10619W        W26880  18.268   4.535   4.184  0.1964  0.0255 -0.2649
10620W        W26881   8.768   8.585  14.599  0.0201  0.3720 -0.5175
10621W        W26882   5.773   7.928   0.397  0.0436  0.0434  0.1585
10622W        W26883   4.917  14.480  15.773 -0.0165  0.0186 -0.2706
10623W        W26884   1.442  10.701   0.494 -0.0776 -0.3991  0.1066
10624W        W26885  18.481  11.606  11.751  0.0334 -0.1828  0.3782
10625W        W26886  15.550  17.973  10.587 -0.1207  0.1725  0.0916
10626W        W26887  15.355   8.395  14.038  0.0277 -0.2277 -0.0500
10627W        W26888  11.249  10.154  16.104  0.0038 -0.0058  0.3506
10628W        W26889  10.064   4.743  12.447 -0.0642 -0.0482  0.0018
10629W        W26890   0.343   5.178   2.287  0.0736  0.0775  0.0669
10630W        W26891   3.757   6.465  15.570 -0.1031 -0.0271  0.1105
10631W        W26892  18.247   2.458  14.131  0.0073  0.2016  0.1195
10632W        W26893  10.931  15.424  11.980  0.0893 -0.0145 -0.4116
10633W        W26894   5.734   6.636   0.382  0.3197 -0.3547  0.1921
10634W        W26895   0.057  16.903  15.855  0.0052 -0.1287 -0.1206
10635W        W26896   0.576   6.147  15.884  0.0570 -0.0525 -0.3179
10636W        W26897   2.502   5.750  11.461  0.1208 -0.2573  0.3197
10637W        W26898  18.208   6.543   3.153  0.1662 -0.2672 -0.2160
10638W        W26899   3.992  12.538  15.164  0.0827 -0.2098 -0.0352
10639W        W26900   5.321   6.387   6.277  0.1514 -0.4179  0.3625
10640W        W26901   6.607   0.805   4.279  0.1469  0.0397  0.1549
10641W        W26902   7.659  15.115  13.068 -0.0803  0.0808  0.0886
10642W        W26903  15.388  17.149   1.593  0.3120  0.1591  0.1574
10643W        W26904   5.352  14.599  11.547 -0.0730  0.0243 -0.0393
10644W        W26905  11.961  12.769  13.490  0.2250  0.2938  0.1946
10645W        W26906  12.848  15.658  11.589  0.3058 -0.0359 -0.1735
10646W        W26907  16.370   8.239  11.180  0.1424  0.1349 -0.1405
10647W        W26908   4.202  17.643  14.862 -0.0472 -0.0816  0.2070
10648W        W26909  18.223  17.464  15.099  0.1708 -0.4431  0.2561
10649W        W26910  15.188   5.278   5.051  0.2517 -0.0563  0.0200
10650W        W26911  11.663   3.642  14.126  0.0410  0.0282  0.0131
10651W        W26912  10.845  16.831  12.817 -0.0633 -0.0780 -0.0865
10652W        W26913   3.165   4.135   4.646  0.2292 -0.3124  0.2270
10653W        W26914   3.212  15.285  11.678  0.0388  0.2651 -0.1004
10654W        W26915  12.758  12.425  10.811  0.1977  0.0770 -0.0266
10655W        W26916   6.900  15.209   5.613 -0.1929  0.0285 -0.1736
10656W        W26917  12.588   7.791  15.447 -0.0572  0.1337 -0.0284
10657W        W26918  10.908  17.977   2.004  0.1468  0.1429  0.3231
10658W        W26919  10.681   9.718   2.666  0.1575 -0.1938  0.1749
10659W        W26920   7.562  17.225   1.641 -0.0405  0.0881 -0.1915
10660W        W26921   3.991  15.915   1.581  0.0730 -0.1133  0.3336
10661W        W26922   9.790  11.999  15.056  0.2158  0.2012 -0.0170
10662W        W26923  18.192  10.739  16.006 -0.2760 -0.1682  0.0971
10663W        W26924  13.813  15.114  14.740  0.0129  0.0735 -0.0067
10664W        W26925   1.528  11.717  15.684 -0.3285 -0.0716 -0.0517
10665W        W26926   7.340   2.580   5.038 -0.1217  0.1549 -0.2240
10666W        W26927  18.105  15.061   0.841  0.0420  0.0575 -0.0104
10667W        W26928  15.863  12.669   0.167  0.0612 -0.1315 -0.2515
10668W        W26929   0.682   2.673   4.927  0.1308 -0.0638  0.0842
10669W        W26930   1.492  10.574   3.782 -0.0925  0.1910 -0.1994
10670W        W26931   3.743   6.904   3.374  0.0775  0.1486 -0.0159
10671W        W26932  11.344   0.302  10.357  0.2130  0.1720 -0.1723
10672W        W26933   7.967  16.943   4.941 -0.1320  0.0754  0.0195
10673W        W26934   0.213   1.541  14.314  0.2277 -0.1170  0.0506
10674W        W26935  15.891   9.981  13.295  0.0519  0.1555  0.0480
10675W        W26936  13.502  15.170   5.012 -0.1907  0.4102 -0.0461
10676W        W26937   7.059  10.133  15.903 -0.0181 -0.0766 -0.2685
10677W        W26938  15.912   1.218  10.817 -0.0856  0.0942  0.2156
10678W        W26939   4.976   1.475   1.704  0.0694 -0.0719 -0.0546
10679W        W26940   3.522  10.507  11.604  0.1910 -0.0689 -0.1222
10680W        W26941   5.106  17.814  13.241 -0.1904  0.1952 -0.1464
10681W        W26942   7.965   1.664   1.698 -0.1426 -0.0233 -0.2532
10682W        W26943  10.751  11.498  14.235 -0.2198  0.3760  0.1176
10683W        W26944   3.588  16.990   3.448 -0.2586 -0.0390 -0.2600
10684W        W26945  12.506   1.108   1.495 -0.0417  0.0446  0.2864
10685W        W26946   2.871  12.986   1.324 -0.0807  0.2052  0.4523
10686W        W26947   6.830  16.513   3.015 -0.0954 -0.0449  0.3357
10687W        W26948   4.483  11.389   1.909 -0.4390 -0.1433 -0.1803
10688W        W26949  16.148   7.679  14.816 -0.0633  0.1325 -0.2436
10689W        W26950  10.475   5.370   2.462 -0.1358 -0.2110  0.0317
10690W        W26951   8.212  15.158  13.431  0.0414  0.4499 -0.2490
10691W        W26952   6.206   1.968   1.875  0.1458 -0.0659  0.0803
10692W        W26953  14.408   5.104  14.359  0.2034 -0.0850 -0.0293
10693W        W26954   5.037  11.760  15.312  0.0549 -0.1187  0.1961
10694W        W26955   5.933  14.485   1.204 -0.0656  0.2322  0.4815
10695W        W26956  13.662  18.381   5.071  0.0554 -0.0962  0.2357
10696W        W26957   6.502   3.810  10.760 -0.0770  0.3335 -0.0146
10697W        W26958   6.140   1.151   3.519 -0.3073  0.1684  0.0953
10698W        W26959  12.411   3.485   2.282 -0.2159  0.1521  0.0166
10699W        W26960   8.860  16.174  14.666 -0.0294 -0.1244  0.0981
10700W        W26961  16.460  12.472  12.280 -0.0859 -0.3561  0.0488
10701W        W26962  17.621   8.995   0.850 -0.0315  0.0704  0.0540
10702W        W26963  16.728   6.791   1.641 -0.2475  0.2502 -0.1829
10703W        W26964   2.134   0.729   4.496 -0.1458 -0.0377 -0.3448
10704W        W26965   9.267  14.697  14.676  0.1151  0.0787 -0.0882
10705W        W26966   4.213   6.403   0.557 -0.1699 -0.0901 -0.1378
10706W        W26967  16.469   3.996   1.453  0.1631 -0.1673 -0.4212
10707W        W26968   8.565  12.849  15.672  0.0302 -0.1727  0.2016
10708W        W26969  12.373   7.360   3.062  0.1418  0.2561  0.0568
10709W        W26970  10.270  16.794   5.507 -0.3011  0.1272  0.1612
10710W        W26971  15.229   0.365  10.686  0.0374  0.0544  0.0302
10711W        W26972   6.040  17.409   0.536  0.0841  0.1369  0.1938
10712W        W26973   3.908  10.534   3.079 -0.0490  0.3278  0.0848
10713W        W26974   3.044  12.453   1.472 -0.2235  0.2142 -0.1833
10714W        W26975  16.150   7.323  13.985  0.0401  0.0580  0.1648
10715W        W26976   4.268   0.947   5.227  0.0721 -0.0467  0.0835
10716W        W26977   1.019   1.687  13.866  0.2680 -0.0530  0.4236
10717W        W26978   2.633   5.706  15.267  0.0133  0.1588  0.1854
10718W        W26979   8.282   6.027  11.811  0.0044 -0.3576 -0.2271
10719W        W26980   3.688  18.094  11.666  0.1669  0.0515 -0.2218
10720W        W26981  12.154  13.125   4.787 -0.1096  0.1160  0.2073
10721W        W26982   1.303   1.907  12.136  0.2123 -0.2515  0.0611
10722W        W26983  12.135   9.912  11.718 -0.1340 -0.0155  0.0302
10723W        W26984   3.731   0.422  11.963 -0.2091 -0.0873 -0.0046
10724W        W26985   5.935   7.940  16.123  0.2619 -0.1534  0.1447
10725W        W26986   7.766   3.297   1.958  0.0560 -0.0493  0.0531
10726W        W26987  13.234   2.184   0.456  0.2195  0.1135  0.1500
10727W        W26988  10.178  10.751   4.975 -0.0709  0.0379  0.0133
10728W        W26989  14.083   2.505  13.880 -0.0443  0.1320 -0.1828
10729W        W26990   7.866  12.777  12.496  0.2242 -0.0343  0.4919
10730W        W26991  13.464   0.396  10.918 -0.3804  0.2265 -0.4268
10731W        W26992   3.129   7.057   5.279 -0.2079  0.0875 -0.3264
10732W        W26993   2.598  17.759   1.537  0.1420  0.1183  0.0928
10733W        W26994  15.617   1.813   1.641 -0.0042 -0.2729  0.1535
10734W        W26995   1.311   9.746   3.030 -0.2870 -0.1946 -0.2109
10735W        W26996  16.420  14.837   5.507  0.3479  0.0875 -0.1700
10736W        W26997  11.255  11.391  15.147 -0.0466  0.1596 -0.4350
10737W        W26998   2.792   1.502   4.699  0.1372 -0.0124  0.0241
10738W        W26999  15.357   4.419  15.974 -0.0960 -0.1609 -0.2001
10739W        W27000  13.846  16.314  14.948  0.2113 -0.2428  0.2930
10740W        W27001   6.426  10.572  12.152 -0.2267  0.1616 -0.2542
10741W        W27002   4.740   9.859  13.468  0.2199 -0.1308 -0.0552
10742W        W27003  11.637   8.208   1.086 -0.0420  0.2745  0.1223
10743W        W27004  11.494  18.157  15.442 -0.0172  0.0695  0.0034
10744W        W27005  10.804  14.220  12.758  0.1599  0.0038 -0.0153
10745W        W27006   2.437   0.447   1.942 -0.1427 -0.0836  0.1333
10746W        W27007  15.960  11.824  12.146 -0.0153 -0.0047 -0.2313
10747W        W27008  16.750  10.302   3.021  0.2436  0.2655  0.0412
10748W        W27009   2.049  11.018  15.839 -0.1592  0.0452  0.1684
10749W        W27010   5.164  12.276  14.355  0.1855  0.1163  0.1950
10750W        W27011   4.902   5.233  14.949 -0.0786 -0.1795  0.0360
10751W        W27012   2.982  15.860   1.449  0.0843 -0.3732  0.0118
10752W        W27013  17.722  16.483  10.996 -0.0754 -0.0741 -0.3115
10753W        W27014   7.373   1.561   4.075 -0.0163  0.0281 -0.3763
10754W        W27015  14.876   4.339   5.983 -0.0394  0.3292  0.0863
10755W        W27016  11.767   2.588  11.559 -0.0456 -0.0625  0.2153
10756W        W27017   4.242   5.012   3.757  0.0882  0.0717 -0.2770
10757W        W27018  16.948   2.284   1.586 -0.0967  0.0985 -0.0171
10758W        W27019  15.941   6.559  12.734  0.0425  0.0671 -0.2110
10759W        W27020   4.274  17.961   4.174  0.1352  0.4384  0.0891
10760W        W27021   2.751  15.143  11.942 -0.0269 -0.1398  0.2569
10761W        W27022   7.386   7.469   1.607 -0.0094  0.0126  0.2095
10762W        W27023   6.518   1.292   2.268  0.2463  0.2476  0.0993
10763W        W27024   2.911   4.117  15.038  0.1946  0.1249 -0.2927
10764W        W27025   4.461  15.716  15.292  0.1617 -0.0566 -0.0205
10765W        W27026   3.933   2.810   1.293  0.2686 -0.2121  0.3174
10766W        W27027  12.392  16.196   4.533  0.0941  0.2243 -0.3323
10767W        W27028   5.818  17.578  11.917  0.1987 -0.0806  0.1411
10768W        W27029  17.326   0.244   3.850  0.1989 -0.3410  0.3803
10769W        W27030   3.911   0.887   4.028  0.0276 -0.1282  0.1846
10770W        W27031  12.027   7.152  16.154 -0.2059  0.1032  0.0126
10771W        W27032   3.990  17.967   0.438 -0.0708  0.0637  0.1374
10772W        W27033   4.901  10.356   6.194  0.0338  0.0052  0.2461
10773W        W27034   8.857   7.329   3.970 -0.0089  0.2908 -0.2692
10774W        W27035  12.463   9.996   0.124 -0.1860  0.0801 -0.1209
10775W        W27036  11.914  14.968   4.248  0.0104 -0.1894  0.1088
10776W        W27037   6.155   7.652   0.571 -0.1504 -0.1749 -0.1115
10777W        W27038   4.517  17.313   4.330 -0.2641 -0.1632 -0.1978
10778W        W27039  13.163   1.380  14.808  0.2224 -0.0223  0.3089
10779W        W27040   2.367  10.687   0.466  0.0669 -0.0638 -0.0600
10780W        W27041   4.349  16.421   5.763 -0.0712  0.0877  0.3161
10781W        W27042  16.953   9.076   1.113 -0.0622 -0.2629  0.1536
10782W        W27043  18.338  10.440   2.248  0.1567  0.2392  0.0218
10783W        W27044   1.171  13.861   4.875  0.0161 -0.1663 -0.2405
10784W        W27045  12.857  12.552   2.028  0.2382  0.3241 -0.0023
10785W        W27046   4.080  10.846   5.269  0.1027  0.0742 -0.0120
10786W        W27047  10.614  12.833   5.570  0.4249  0.0654 -0.0716
10787W        W27048  12.278  18.431  10.643  0.0447  0.1290 -0.1719
10788W        W27049  13.456  15.588   4.287 -0.0582 -0.1422 -0.0399
10789W        W27050  14.844  14.906  13.112  0.0646  0.1409  0.0927
10790W        W27051   4.556   1.003   3.425 -0.4222 -0.0457  0.0936
10791W        W27052  16.536   2.028   1.827  0.2911  0.0430  0.2119
10792W        W27053  17.054  14.803   0.615  0.0381  0.0157 -0.1806
10793W        W27054   8.968  13.631   2.283 -0.1580  0.2629 -0.0931
10794W        W27055  15.748  16.930  11.345 -0.0760 -0.0604 -0.4085
10795W        W27056   2.464   6.357  11.603 -0.1903  0.0348 -0.1755
10796W        W27057  18.299   0.673  13.962 -0.1755 -0.1512  0.3071
10797W        W27058  16.297   9.264  13.413 -0.0001 -0.0475 -0.2202
10798W        W27059   1.395  18.317  13.645  0.0139  0.1417  0.0048
10799W        W27060   6.971  13.097   2.005 -0.1654  0.0624 -0.1827
10800W        W27061  11.583   7.775  14.215  0.2053  0.0377 -0.1044
10801W        W27062  17.592   6.765  12.425 -0.1674  0.2192 -0.0360
10802W        W27063  10.076  12.247   3.802  0.0856  0.3871 -0.0068
10803W        W27064   0.268  10.148  12.919  0.2227 -0.1036  0.2346
10804W        W27065   2.949   4.075  12.640 -0.2876  0.0684 -0.0165
10805W        W27066  15.416   2.481  14.882 -0.0195 -0.1574 -0.1662
10806W        W27067   6.769   9.794   4.350 -0.1094  0.0829  0.0441
10807W        W27068  18.087   6.799  12.200  0.0524  0.1017 -0.1068
10808W        W27069   2.864  10.440   0.421 -0.0777 -0.1629 -0.0525
10809W        W27070   0.520  16.064  15.961  0.1230 -0.0911  0.0820
10810W        W27071   9.471   0.950   4.796 -0.0915  0.2783  0.0930
10811W        W27072  10.359  11.286   5.990  0.0125 -0.1365  0.1745
10812W        W27073   8.072   6.997  15.543 -0.5462  0.0389 -0.1642
10813W        W27074  14.020  13.213  14.858  0.1019  0.1187  0.2029
10814W        W27075   8.473   5.929  11.133 -0.0389 -0.1666  0.0471
10815W        W27076   6.152   6.505  13.963  0.1499 -0.3438 -0.1613
10816W        W27077  16.083  14.360  11.278 -0.1557  0.5874  0.0086
10817W        W27078   3.721   0.717  13.827 -0.0385  0.0724 -0.0529
10818W        W27079  12.230   4.199   5.161 -0.0679 -0.1354  0.0246
10819W        W27080  17.941   0.909   3.871 -0.0782  0.3221  0.1588
10820W        W27081   2.750  10.761   1.679 -0.0289  0.0488  0.1848
10821W        W27082   3.207  17.390   1.290 -0.2660  0.0287 -0.2591
10822W        W27083  12.466   7.065   2.469 -0.0107  0.0634 -0.4820
10823W        W27084  16.205   2.795   2.919 -0.0785  0.1742 -0.0793
10824W        W27085   0.602   2.321   1.710  0.0436 -0.1346 -0.2286
10825W        W27086   2.817   4.336   1.233 -0.0406 -0.0138  0.0363
10826W        W27087  15.942   0.783  14.570  0.2551 -0.1297 -0.2758
10827W        W27088  14.676  12.858   3.057  0.2195 -0.2061 -0.3855
10828W        W27089   5.953   0.970  15.180  0.0462  0.1404 -0.1050
10829W        W27090   4.113  10.870   1.546  0.1624 -0.1138  0.1712
10830W        W27091   4.612  16.600  15.036 -0.1919  0.0562 -0.1884
10831W        W27092  17.605   7.560  16.044 -0.3134 -0.0303  0.0377
10832W        W27093   9.060   2.535   3.601  0.0190  0.0523 -0.2901
10833W        W27094   2.853   1.114   0.356 -0.0298 -0.0354 -0.2231
10834W        W27095  16.463  15.900   0.102 -0.2426 -0.0566  0.2560
10835W        W27096   9.298   7.166  12.286  0.0941  0.0727  0.2278
10836W        W27097  12.140   8.490   4.225 -0.1640 -0.0151 -0.2213
10837W        W27098  17.818  12.523   4.547  0.2295  0.1475 -0.0081
10838W        W27099  13.584   8.938  13.606  0.1650  0.4461 -0.0578
10839W        W27100   5.509   3.453   5.447  0.0815  0.0408 -0.0341
10840W        W27101   3.646  16.201   2.443 -0.0796  0.1366 -0.1673
10841W        W27102   7.630  10.644   5.230 -0.2172  0.1348  0.1477
10842W        W27103  11.321  13.230   3.195 -0.0921 -0.2568  0.0972
10843W        W27104   5.949  17.847   5.397 -0.3417 -0.0213  0.2345
10844W        W27105   3.542  15.262   0.041 -0.1711 -0.4577 -0.0346
10845W        W27106   0.486  10.140  12.218 -0.5347  0.0640 -0.0632
10846W        W27107   9.141   4.870  13.823 -0.1968 -0.0672 -0.1259
10847W        W27108   0.204   4.786   3.078 -0.1860 -0.0517 -0.2291
10848W        W27109  16.525  15.870   2.653  0.0689  0.1628 -0.0853
10849W        W27110  18.457  14.429   1.617  0.0797 -0.2546  0.1065
10850W        W27111   6.134  16.856   0.356  0.2484 -0.0912  0.3518
10851W        W27112   8.547  15.906  15.849  0.0925  0.0141  0.4466
10852W        W27113   4.435   6.508   1.833  0.2444  0.0852 -0.1245
10853W        W27114  12.837   6.171  13.338 -0.1419 -0.3008  0.0577
10854W        W27115  12.766   4.953   1.554 -0.1046 -0.1052 -0.1186
10855W        W27116   3.956   9.256  14.951 -0.2133 -0.0232 -0.0256
10856W        W27117  13.959   0.191  15.249  0.0575  0.1532  0.1327
10857W        W27118  17.500   0.682   5.464  0.0723 -0.0647  0.1685
10858W        W27119  12.557  10.087  12.703  0.1259 -0.0077  0.0150
10859W        W27120  14.102   6.860  12.279  0.2973  0.0820 -0.3151
10860W        W27121   4.887  11.634  13.198 -0.2134  0.1577  0.0917
10861W        W27122   7.373   0.768   4.492  0.1658  0.0306 -0.1610
10862W        W27123  17.061   6.566   2.641 -0.3745  0.1941  0.3227
10863W        W27124  17.200  18.250  12.595  0.0790  0.1557 -0.1777
10864W        W27125  15.874  16.401   3.140 -0.3118  0.0861 -0.2010
10865W        W27126   4.471   4.253  14.205 -0.2042  0.0651  0.2992
10866W        W27127   3.039   8.409   1.225 -0.3354 -0.1447 -0.0798
10867W        W27128  15.556   4.490   5.604  0.2609 -0.2376  0.1150
10868W        W27129  11.041   4.145   3.872 -0.2703  0.0866 -0.2885
10869W        W27130  13.927   7.148   1.793 -0.3335 -0.5197 -0.1455
10870W        W27131  17.463  14.667   3.272 -0.0169 -0.2087 -0.1120
10871W        W27132   4.141  16.260   0.360 -0.0926 -0.1659 -0.0262
10872W        W27133  11.292  17.760  12.051  0.0654 -0.0933 -0.1186
10873W        W27134  10.037   4.066   4.129  0.2436  0.1648  0.2025
10874W        W27135   4.483  10.718  11.362  0.2410 -0.0357  0.3156
10875W        W27136  13.199  14.903   1.463 -0.1268  0.2085 -0.3290
10876W        W27137   7.308   0.892   2.932 -0.2036  0.0727 -0.1163
10877W        W27138   2.521  16.993   4.530 -0.1544  0.1126 -0.1042
10878W        W27139   3.540   5.713   3.540 -0.5401  0.4380  0.1415
10879W        W27140  11.102   1.567  12.758  0.1147  0.1142 -0.3784
10880W        W27141   5.273  10.922  15.254  0.2006  0.0735 -0.2043
10881W        W27142  12.909  17.647  10.528  0.0342  0.2104 -0.2712
10882W        W27143   9.286  10.919  14.468 -0.1818  0.0152  0.0207
10883W        W27144   7.508   7.635  15.105  0.1241  0.0731 -0.0206
10884W        W27145  12.806   0.963  14.998  0.0107 -0.0420  0.2838
10885W        W27146   0.245   9.718   1.383  0.0946 -0.3454 -0.2034
10886W        W27147   3.859  11.617   4.766 -0.0807 -0.0945  0.0279
10887W        W27148   6.374  17.802  14.706  0.0860  0.0319  0.0849
10888W        W27149  15.290   1.460   0.402  0.2024  0.2201 -0.3455
10889W        W27150  12.998   2.954  15.484 -0.0270 -0.0051 -0.2624
10890W        W27151  17.898   3.529   2.418 -0.1987 -0.1806  0.0890
10891W        W27152   0.433  17.082   4.771  0.2098 -0.3654 -0.4755
10892W        W27153  11.867  15.471   0.389 -0.1046  0.3115  0.1060
10893W        W27154  15.444   9.068  11.779  0.0567 -0.1713  0.0813
10894W        W27155   1.386   4.761   2.598  0.1305 -0.0875  0.0970
10895W        W27156   2.648  15.720  15.028  0.1710 -0.0383  0.0078
10896W        W27157  16.572   6.741   0.193  0.0755  0.0694  0.0750
10897W        W27158  17.525  16.724  13.613 -0.1576  0.0894 -0.0140
10898W        W27159  10.008   4.835   4.801  0.1398 -0.0491 -0.3270
10899W        W27160  16.273   7.820  12.636  0.2524  0.2078  0.0657
10900W        W27161  14.786  14.080  13.831 -0.0629 -0.2501  0.1090
10901W        W27162   7.595   2.967   1.497 -0.0057 -0.2494  0.0252
10902W        W27163  13.142  15.618  11.057 -0.0256 -0.2509  0.2107
10903W        W27164  14.091  10.734  12.171 -0.0140  0.1043  0.2341
10904W        W27165  13.634  13.664  15.700  0.1894 -0.0177  0.2122
10905W        W27166  12.803  12.675   4.257  0.2055  0.1205  0.2300
10906W        W27167   7.357  15.248   5.334 -0.0549 -0.3089  0.0890
10907W        W27168  13.651   6.432   0.307 -0.1187  0.2928  0.1396
10908W        W27169   7.923   2.793   2.417 -0.0228 -0.2837 -0.3423
10909W        W27170   5.558  16.773  14.165  0.1754  0.0969  0.3002
10910W        W27171   4.613   0.292  10.367 -0.0620 -0.0123  0.3600
10911W        W27172  11.437  12.019  12.110  0.0531  0.0406  0.0301
10912W        W27173   6.291   9.711  11.817  0.0013 -0.2486 -0.1181
10913W        W27174  12.288   8.258  15.447  0.2810 -0.1409 -0.0321
10914W        W27175  16.485  18.305  14.194  0.6375 -0.2808  0.0897
10915W        W27176  11.024  12.963  12.139  0.3803 -0.1364  0.1147
10916W        W27177   0.826  14.381  14.900 -0.0026  0.1294 -0.2593
10917W        W27178  12.039   6.196   0.098  0.2806 -0.0829  0.2602
10918W        W27179   8.990  11.259   4.810  0.0451  0.2187  0.1309
10919W        W27180  10.259  10.165  13.150  0.0058  0.0017  0.1837
10920W        W27181   3.255   6.061   6.427 -0.3157 -0.0585 -0.3155
10921W        W27182  17.921  16.003   1.317  0.1797 -0.1969 -0.0671
10922W        W27183   8.327  14.674  13.489 -0.0143  0.1422 -0.1893
10923W        W27184  14.616  14.597  12.771  0.2644 -0.1293 -0.0071
10924W        W27185  10.984  10.919  12.668  0.0034  0.0602  0.0524
10925W        W27186  13.872  10.582  12.646 -0.0915  0.0604  0.0659
10926W        W27187   0.072  17.590   4.658  0.0694  0.1712 -0.1915
10927W        W27188  14.901   8.565  14.766  0.0220 -0.1642  0.1624
10928W        W27189  14.731   4.404  15.460 -0.0991  0.1012  0.2879
10929W        W27190  15.157   7.545  12.486  0.0683 -0.3766  0.2583
10930W        W27191   0.947   3.162  14.285 -0.0641  0.1437 -0.2558
10931W        W27192   2.614   6.288  14.985  0.2586  0.1519 -0.1879
10932W        W27193  15.818   8.229   2.120 -0.0763  0.3813  0.0800
10933W        W27194   5.737  17.382   1.850  0.0639  0.0429  0.4115
10934W        W27195  14.859   3.757  14.424  0.0326 -0.1171 -0.0444
10935W        W27196  16.314   9.267   3.941 -0.1985  0.2273  0.1562
10936W        W27197   4.860  16.011  11.581  0.0390 -0.2468 -0.0601
10937W        W27198   7.195  14.826   5.647 -0.1205  0.0729 -0.1446
10938W        W27199   6.126   8.627   3.775  0.0243 -0.0640  0.2234
10939W        W27200   9.594   6.764   1.860  0.2671 -0.3111 -0.0407
10940W        W27201  17.199   1.413  14.063 -0.0475 -0.1384 -0.1808
10941W        W27202   8.661  16.267  15.540  0.1229 -0.0897 -0.0526
10942W        W27203   4.021   3.323  12.826  0.0962 -0.0827 -0.2347
10943W        W27204   5.751   8.964   2.963  0.4061  0.0769 -0.2177
10944W        W27205   3.578   1.218  12.354 -0.5609 -0.1765 -0.2642
10945W        W27206  16.413   9.535  11.554 -0.3162 -0.2211 -0.0273
10946W        W27207  17.237  15.858   0.642 -0.0224 -0.0071 -0.1423
10947W        W27208  16.052   0.310  14.697  0.3062  0.0100 -0.0024
10948W        W27209   3.603   4.840  15.170 -0.1149  0.0330 -0.3219
10949W        W27210  17.192   4.793  12.433  0.2683  0.0201 -0.1745
10950W        W27211   9.993  16.324  12.419  0.4244 -0.1783 -0.1581
10951W        W27212  11.306   9.603   3.222  0.0820 -0.1030 -0.3044
10952W        W27213  10.610   0.537  14.335  0.0321  0.1603 -0.0685
10953W        W27214  10.604   7.702  14.609  0.0301 -0.3680 -0.1754
10954W        W27215   8.422   2.392   1.936 -0.3181 -0.2193 -0.0836
10955W        W27216   7.757  12.301  12.721  0.2853  0.0149 -0.0996
10956W        W27217  18.178   0.653   0.012  0.0326 -0.0325 -0.1338
10957W        W27218   0.130  10.729   4.808  0.0799  0.0307 -0.0593
10958W        W27219  13.070   1.094   2.727 -0.1463  0.1823  0.2843
10959W        W27220   8.946  15.298  10.374 -0.0317 -0.1617  0.1702
10960W        W27221  11.747  17.847   0.567 -0.0450 -0.3426 -0.0726
10961W        W27222  11.668   8.832  11.175  0.2493  0.1165  0.1448
10962W        W27223  16.170  11.843  15.811 -0.0840 -0.1487  0.6235
10963W        W27224  17.406   6.414   3.231  0.0036  0.0080 -0.4521
10964W        W27225  15.202  16.088   4.532 -0.0380 -0.0763 -0.1556
10965W        W27226   1.857   2.781   3.336  0.0035  0.2106 -0.1836
10966W        W27227   1.997   4.966  13.938 -0.1286 -0.0116 -0.0519
10967W        W27228  13.792  11.946   0.590  0.0740 -0.0114 -0.1723
10968W        W27229  12.127   0.454  14.041 -0.1995  0.0843 -0.2497
10969W        W27230   1.159  10.015  12.994  0.0711 -0.3975  0.0853
10970W        W27231   6.583  16.021  11.452  0.3220  0.1477 -0.1371
10971W        W27232  16.164   4.500   3.747  0.1558 -0.2309 -0.0565
10972W        W27233  17.369   7.546   2.911  0.0465 -0.0128 -0.0671
10973W        W27234   1.743  16.091  11.722 -0.0329  0.0597 -0.1614
10974W        W27235   3.105  17.843   0.989 -0.0267 -0.1821 -0.1042
10975W        W27236   7.698  11.406  11.874  0.1090  0.0402 -0.0355
10976W        W27237  18.454   2.049  15.809  0.2874  0.1311 -0.3871
10977W        W27238   3.149  17.140  12.486 -0.1487 -0.0787 -0.1641
10978W        W27239   7.184   3.710  16.049  0.1667  0.0164  0.1610
10979W        W27240  18.229  11.487  14.782 -0.4006 -0.1327  0.0401
10980W        W27241  14.846   5.145   1.100  0.2942  0.1146 -0.2392
10981W        W27242   4.412  10.390  14.166  0.0743  0.3672 -0.1086
10982W        W27243  18.114   4.205   5.778  0.0533  0.1197  0.2212
10983W        W27244   5.908   2.462   0.707 -0.0454  0.0932  0.4030
10984W        W27245  10.448   4.749  11.302  0.0794 -0.2818 -0.0350
10985W        W27246   9.441  14.263  14.939 -0.0908  0.1561  0.1899
10986W        W27247   2.041   4.437  12.840  0.0487 -0.1177  0.0796
10987W        W27248   0.140  11.673  15.116 -0.2624  0.1789 -0.0719
10988W        W27249   1.382  15.755  13.291  0.1824  0.0829  0.4053
10989W        W27250  12.132   0.167   1.771 -0.3592  0.0995 -0.1216
10990W        W27251   7.437  12.572   4.994  0.0068  0.1697 -0.1439
10991W        W27252   9.168   1.770  13.987 -0.0622 -0.0355  0.1745
10992W        W27253  10.547  16.623   1.264  0.2677 -0.0018 -0.0675
10993W        W27254  14.773   7.839   0.639  0.2999 -0.2374  0.3611
10994W        W27255   0.146   5.253  14.244 -0.0984 -0.0555  0.3872
10995W        W27256   5.973  12.320   2.789 -0.2100 -0.0820 -0.3589
10996W        W27257   4.290   7.257   6.303 -0.3212  0.4646  0.1168
10997W        W27258   9.062   2.269  14.403  0.0476 -0.2402  0.0572
10998W        W27259   2.347  11.232  13.114 -0.1369  0.1208 -0.1908
10999W        W27260   4.185   9.375   2.918  0.1196 -0.1211 -0.0573
11000W        W27261  11.372  13.470  15.601 -0.2662  0.2081 -0.1961
11001W        W27262  10.175   5.997   5.488 -0.0701 -0.0362 -0.3944
11002W        W27263  17.377   8.522  15.709 -0.1301 -0.2031 -0.0015
11003W        W27264   2.611  11.251   3.448 -0.0243  0.1212  0.0268
11004W        W27265   0.403  14.014   1.095 -0.2849 -0.0223  0.1221
11005W        W27266  15.175  10.780   3.221 -0.4016  0.1759 -0.0232
11006W        W27267   9.106   5.822   3.066 -0.2105 -0.0750  0.2620
11007W        W27268  13.091  18.236  13.605 -0.0581 -0.2717  0.0501
11008W        W27269  15.893   8.581   0.443  0.0147 -0.1453  0.0515
11009W        W27270  13.713  17.478   2.393  0.1758 -0.2429 -0.1000
11010W        W27271  17.557  10.531  13.494  0.1448  0.2171  0.0084
11011W        W27272   3.991  17.120  14.129 -0.0465 -0.0024 -0.2319
11012W        W27273  13.555  12.855   0.309 -0.1542  0.0125  0.1142
11013W        W27274  17.190  16.247   3.373  0.0694 -0.2237 -0.1437
11014W        W27275  10.997   2.780   3.790 -0.1732  0.0641  0.2454
11015W        W27276  11.452   3.151  13.222 -0.0533 -0.1782  0.0999
11016W        W27277  13.117  11.702   1.744 -0.1084  0.1323 -0.2827
11017W        W27278  15.759   3.144  13.922  0.0940 -0.0424  0.3002
11018W        W27279  14.590  12.653   5.355  0.0136 -0.0256 -0.0939
11019W        W27280  16.709  18.027   2.364  0.0797 -0.0976  0.0978
11020W        W27281  12.063   5.988   2.178  0.0614 -0.0126  0.0442
11021W        W27282  15.158   1.133  13.093 -0.0135 -0.0636 -0.0458
11022W        W27283  14.044  17.742  12.120 -0.0003 -0.3783  0.0541
11023W        W27284   8.413  16.796   2.421  0.0084 -0.2402 -0.2145
11024W        W27285   3.878   1.351  13.263 -0.1775 -0.1507 -0.0024
11025W        W27286  12.266  17.571   4.096 -0.0232  0.0962  0.0035
11026W        W27287  15.145  10.051  11.998 -0.1066 -0.1705 -0.0473
11027W        W27288   9.116   1.520   2.004  0.2656 -0.1740  0.0888
11028W        W27289   5.127   9.684  15.269 -0.1814 -0.1855 -0.2083
11029W        W27290  14.529  14.968  13.697  0.5193 -0.0050 -0.0830
11030W        W27291   5.092   5.333  12.820 -0.3119 -0.3972 -0.1115
11031W        W27292   1.173   6.276  12.101 -0.3019  0.1249 -0.3497
11032W        W27293  11.507  14.460  14.306 -0.4833 -0.2402 -0.1823
11033W        W27294   8.393  10.705   1.177 -0.0158 -0.0827 -0.0708
11034W        W27295  13.251  10.293  11.621 -0.0962 -0.0485 -0.1560
11035W        W27296   7.663  16.566   0.247  0.0315  0.1475 -0.0080
11036W        W27297   4.588   4.134   3.406 -0.0021 -0.1804 -0.3870
11037W        W27298   3.957   0.935   3.122  0.4561 -0.0657  0.1518
11038W        W27299  14.121  14.461  10.306 -0.3511 -0.2634 -0.1966
11039W        W27300  11.213  12.904  15.589  0.1198  0.0697 -0.1205
11040W        W27301   0.732  13.192  13.264 -0.2062  0.1053  0.1671
11041W        W27302  14.447   7.558   3.324 -0.0543  0.0061  0.1567
11042W        W27303   6.846   8.528  13.936 -0.1661 -0.0984  0.1558
11043W        W27304   3.156   3.373  12.031 -0.0289  0.1334  0.0622
11044W        W27305   9.317  12.938   0.882 -0.3599  0.2596  0.0728
11045W        W27306  16.103  16.043   0.685 -0.0515  0.0822  0.1508
11046W        W27307   5.011   9.603  14.073 -0.1216 -0.0314  0.1642
11047W        W27308  12.033   6.078  10.957  0.0395  0.1441 -0.0238
11048W        W27309  15.895  13.736   2.907  0.0030 -0.1067  0.1803
11049W        W27310   0.598   5.925  14.986 -0.4000  0.1630  0.0641
11050W        W27311   3.560   5.699   4.848  0.0101 -0.2477  0.1146
11051W        W27312   2.743  15.914   4.141  0.0433 -0.0485  0.2144
11052W        W27313  15.231   8.404   4.486 -0.2679  0.1882  0.0432
11053W        W27314   7.240   4.561   1.177  0.1145  0.1173 -0.1545
11054W        W27315  12.431  15.637   5.247 -0.1062 -0.0917  0.0301
11055W        W27316   0.694  11.243   0.499  0.0695 -0.0184 -0.0233
11056W        W27317  17.832   6.519  15.929  0.1907 -0.0945  0.0916
11057W        W27318  17.162  14.139  14.683 -0.1438 -0.2680 -0.0483
11058W        W27319   4.253   1.311  11.755 -0.2476 -0.1301 -0.2743
11059W        W27320  17.428   6.727  16.127  0.1882 -0.3276  0.2076
11060W        W27321   0.611   9.325  11.823 -0.0190 -0.1148 -0.0296
11061W        W27322  15.875   0.034   4.346 -0.0121  0.0970 -0.0300
11062W        W27323   5.643  12.704   3.541 -0.2536 -0.0756 -0.0091
11063W        W27324   8.508   1.291   5.497 -0.2207  0.0213  0.4014
11064W        W27325   6.480  17.719   4.624  0.3570 -0.1634  0.1729
11065W        W27326  17.604  10.588   3.414  0.1623 -0.0280 -0.0381
11066W        W27327   3.053  13.375   1.800  0.2216  0.1537  0.1096
11067W        W27328   1.768  16.482  13.273 -0.2176 -0.0171 -0.0908
11068W        W27329   6.088   4.635   1.701 -0.0244  0.0124 -0.0381
11069W        W27330  17.623  16.204   9.277 -0.3263  0.0839  0.1891
11070W        W27331  10.918   2.554  11.886  0.0966  0.4373  0.2743
11071W        W27332   7.047  16.666  14.046 -0.3265  0.2111 -0.0112
11072W        W27333  11.367   1.666   2.208  0.0320  0.0570  0.1330
11073W        W27334  15.644  14.031  13.549 -0.0672 -0.2946  0.0519
11074W        W27335  14.232   3.644   0.433  0.0565 -0.4771 -0.2903
11075W        W27336   5.080  13.641  11.585  0.0399 -0.2698  0.3981
11076W        W27337   6.597  11.171   1.516 -0.4157  0.0372  0.0283
11077W        W27338   2.038   4.293   3.442 -0.0118  0.1205 -0.3719
11078W        W27339   8.984   1.923   1.357 -0.3155 -0.0206 -0.1331
11079W        W27340   4.378  12.836   3.912 -0.1608  0.0385  0.0057
11080W        W27341   8.248   2.905  12.637  0.0431 -0.0270 -0.0165
11081W        W27342   8.964  10.309  12.230 -0.1563  0.0584 -0.2126
11082W        W27343   9.640   7.168  11.614 -0.2153 -0.1893 -0.1909
11083W        W27344   0.770   2.190  15.976  0.1328  0.0740 -0.3118
11084W        W27345  16.442  16.569  12.186  0.0234 -0.0188 -0.0742
11085W        W27346  13.314  17.237  13.738  0.1624 -0.0640  0.4087
11086W        W27347   3.303  18.356  14.019  0.3240 -0.1897 -0.2767
11087W        W27348   2.608  12.107   4.131 -0.0932 -0.0968 -0.0023
11088W        W27349   6.025   0.731   5.336 -0.2792  0.1077 -0.1329
11089W        W27350  17.514  12.661  10.986 -0.0144 -0.0664 -0.3233
11090W        W27351   1.139  17.525   4.281 -0.0720  0.0559 -0.0150
11091W        W27352  10.673   7.448   4.689  0.0639 -0.3179  0.1820
11092W        W27353   0.300   2.429  15.841 -0.1495 -0.3726 -0.1030
11093W        W27354   9.247  16.562   5.707 -0.1624 -0.0609 -0.3190
11094W        W27355   7.353  14.019  13.247  0.3408 -0.0983 -0.1852
11095W        W27356   0.930   1.231   3.813 -0.1706  0.2501 -0.0315
11096W        W27357   8.554  15.038  16.160 -0.3493  0.3233 -0.2122
11097W        W27358  15.484  15.214   1.627  0.0269 -0.1724  0.0960
11098W        W27359  14.057  17.803   4.502  0.1732  0.4115 -0.0449
11099W        W27360  11.439   2.579   1.917 -0.1027 -0.0987  0.1435
11100W        W27361   1.124   2.084   4.490 -0.1543  0.0752  0.0913
11101W        W27362  18.175  17.100  12.978 -0.0241 -0.2298  0.0820
11102W        W27363  17.174   9.040   3.708 -0.1391  0.0159  0.0421
11103W        W27364   6.625   1.209  14.085 -0.0386 -0.0991  0.0865
11104W        W27365  15.955  17.884  14.843 -0.3200  0.2529  0.4454
11105W        W27366   7.488   5.174  13.155 -0.2071  0.0584  0.1586
11106W        W27367   9.581   6.750   5.763  0.0012 -0.0700 -0.0185
11107W        W27368   4.126   2.395   1.553  0.1277 -0.3180 -0.1079
11108W        W27369  16.957   8.368   5.251 -0.1806 -0.0233 -0.0682
11109W        W27370  12.663   1.079   3.178  0.0344  0.1652  0.2356
11110W        W27371   0.375   0.196   0.600  0.2866 -0.3483  0.1739
11111W        W27372   5.437  14.631  15.118  0.0162 -0.4844  0.1253
11112W        W27373  17.210  16.601  13.983 -0.0523  0.1815  0.2272
11113W        W27374   1.316  18.277  12.062  0.2164  0.1209  0.1865
11114W        W27375   7.568   7.862   3.100 -0.2836 -0.0198 -0.0524
11115W        W27376  13.724  13.240  14.387  0.0009 -0.2683 -0.0101
11116W        W27377  12.364  15.890   1.113 -0.0286 -0.2571  0.0424
11117W        W27378  15.985   0.762  15.080  0.0416  0.2078  0.2583
11118W        W27379  14.185   8.619  15.811  0.0227 -0.3847 -0.0252
11119W        W27380  15.607   5.656   5.123  0.0287  0.2529 -0.0299
11120W        W27381   0.215  11.588   0.818 -0.2396  0.1025 -0.0057
11121W        W27382  10.102  16.439   2.939 -0.0665  0.1174  0.0016
11122W        W27383  14.980  17.015  12.820  0.2771  0.0299  0.0117
11123W        W27384  13.953   5.025   1.514  0.0721  0.3007  0.0841
11124W        W27385   6.127  10.991  13.063  0.2455  0.2729 -0.0831
11125W        W27386  12.541   3.513   1.483  0.1092  0.0240  0.0558
11126W        W27387   0.687   8.382   4.296 -0.2207  0.2211  0.1663
11127W        W27388   9.054   7.624  12.325  0.2041 -0.1579  0.1635
11128W        W27389  10.406  17.908   1.849  0.3578  0.0741  0.0195
11129W        W27390  12.127   8.820   1.530 -0.1011 -0.1388  0.0758
11130W        W27391   6.371   3.663   0.545  0.0553  0.0491  0.3598
11131W        W27392  15.728   3.586  14.190  0.0027  0.1664  0.1650
11132W        W27393  10.834  13.439   6.377  0.1034 -0.2036 -0.2475
11133W        W27394   5.940   6.318   1.297  0.0668 -0.1059  0.5859
11134W        W27395   4.898   3.782   0.489  0.0055  0.0074  0.2455
11135W        W27396   5.109  18.105   2.346  0.1720  0.2541 -0.2448
11136W        W27397  17.989   3.937  11.190 -0.0124 -0.2597 -0.0987
11137W        W27398  15.063  15.517  14.436 -0.1647 -0.2725  0.0787
11138W        W27399  10.760   3.853  14.338  0.2352  0.1462  0.0942
11139W        W27400   2.043  16.661  13.680  0.0522 -0.2701 -0.0626
11140W        W27401  17.754  18.454   1.409 -0.0696 -0.2328 -0.4389
11141W        W27402   4.497  16.298  13.340  0.2514 -0.0841  0.0263
11142W        W27403   3.371  12.451  12.859  0.1895 -0.1570  0.3832
11143W        W27404   5.901   0.186   2.522 -0.0091 -0.3403 -0.3109
11144W        W27405   9.436  10.295   5.153  0.4306  0.2851  0.0185
11145W        W27406  18.425  17.005   3.271  0.2989  0.0528  0.0536
11146W        W27407  14.909  10.620  15.092  0.2150 -0.2087  0.2057
11147W        W27408   2.630  12.331  11.310 -0.1724  0.0053  0.3640
11148W        W27409   0.538  13.414   0.264 -0.0822  0.3011  0.0758
11149W        W27410  15.462   2.571   5.702 -0.0394 -0.1623  0.2617
11150W        W27411   5.153  10.010  12.629 -0.0341 -0.0194 -0.0822
11151W        W27412  12.992   1.961   0.812  0.1239 -0.2403  0.0704
11152W        W27413   1.567  14.862  13.912 -0.2070  0.1112 -0.0258
11153W        W27414   5.958  16.298   1.677 -0.0266 -0.0239  0.2389
11154W        W27415  11.893   6.701   4.833  0.0567 -0.1645  0.1453
11155W        W27416   1.693   1.985  12.459 -0.1879  0.1532 -0.0169
11156W        W27417   0.542  11.753  13.199  0.0666  0.0227  0.3747
11157W        W27418   6.196  18.429  12.341 -0.0403  0.0584  0.0642
11158W        W27419  12.651  17.201   0.421 -0.0583  0.1253 -0.0645
11159W        W27420   0.941   8.460  15.160  0.0940 -0.3740  0.3054
11160W        W27421  15.588  10.477   6.005  0.0705  0.3521 -0.0534
11161W        W27422   5.903   3.846   3.195  0.1590  0.3222 -0.0412
11162W        W27423  17.798   2.025  14.114  0.0654  0.0699 -0.4253
11163W        W27424   9.679   5.085   4.041  0.0504  0.1930 -0.0188
11164W        W27425   1.316   7.216   1.711 -0.0308  0.1687 -0.0630
11165W        W27426  17.853   0.276  13.239 -0.1334 -0.1917 -0.3596
11166W        W27427   1.028   1.765   1.120  0.2389  0.1671  0.0513
11167W        W27428   7.471   0.246   1.702 -0.1916 -0.0811  0.2809
11168W        W27429  17.916   3.142   0.346 -0.3897  0.1687 -0.1780
11169W        W27430  12.952  17.131  15.541  0.0503  0.2489  0.1058
11170W        W27431   0.941  15.633   3.904  0.1303 -0.0603  0.1730
11171W        W27432   0.335  16.795   0.059 -0.3701 -0.0333 -0.2368
11172W        W27433   5.922   6.098   5.742 -0.0764  0.0331 -0.2978
11173W        W27434   0.335   4.947  11.808  0.2299 -0.2255 -0.0047
11174W        W27435  17.281   2.675   4.751  0.0235 -0.0432  0.1623
11175W        W27436  16.284   3.773   0.753  0.0256 -0.0572  0.2909
11176W        W27437  10.473   9.407  11.667 -0.1626 -0.2251 -0.0325
11177W        W27438  15.967   7.183   1.141 -0.3585  0.1572  0.0448
11178W        W27439   8.984  15.638  11.260  0.1916  0.2430  0.0442
11179W        W27440  17.446  13.841  12.215 -0.1663 -0.0018  0.0575
11180W        W27441  17.996  16.975  13.806  0.1498  0.1254  0.0858
11181W        W27442   2.138   7.369   4.042 -0.0552 -0.2642  0.3717
11182W        W27443   3.460   8.688   2.428 -0.1542 -0.1454 -0.2290
11183W        W27444   2.524   7.580  15.503 -0.1208  0.2624  0.1194
11184W        W27445  12.080  13.758  15.743 -0.1082 -0.0525  0.2241
11185W        W27446  12.644   6.363  11.229 -0.1166  0.0420  0.0686
11186W        W27447   4.134  11.724   1.613 -0.3287  0.3388  0.1576
11187W        W27448   7.941   9.941   2.351 -0.0602 -0.1118 -0.1673
11188W        W27449  18.094   4.370  14.568 -0.2299 -0.0049  0.0868
11189W        W27450  15.261  15.603   4.647 -0.1724  0.2653  0.1647
11190W        W27451   6.889   2.552   0.885 -0.3120 -0.1469 -0.0085
11191W        W27452  15.748   3.275   2.377  0.2412  0.3635  0.3333
11192W        W27453   7.889   5.862   0.704 -0.1113 -0.0621 -0.0681
11193W        W27454   2.753   3.527   6.123 -0.2364  0.1390 -0.2317
11194W        W27455   0.511   4.706   2.578  0.1288  0.0564  0.0822
11195W        W27456   3.509  13.649   5.065 -0.0231  0.1270  0.2885
11196W        W27457   3.520  14.832  15.580 -0.1543  0.2436 -0.0677
11197W        W27458   7.963  14.487   4.406 -0.2935 -0.2068 -0.2713
11198W        W27459   3.620   5.425  12.871  0.1565  0.2229  0.0406
11199W        W27460   7.327  12.672  13.488 -0.1167 -0.0268  0.0238
11200W        W27461   7.974   6.779  11.390  0.1809 -0.1758  0.1965
11201W        W27462   4.742   6.228   0.590 -0.1517 -0.0677 -0.0896
11202W        W27463   1.467   3.435   5.356 -0.0616 -0.0556 -0.5231
11203W        W27464  14.086   4.897   1.036 -0.0194  0.0414  0.0115
11204W        W27465  14.314   4.468   1.421 -0.2616  0.0031  0.0856
11205W        W27466  18.481   2.430  13.682  0.1713  0.0516  0.1550
11206W        W27467  14.472  10.968  15.078  0.0469  0.0670  0.1617
11207W        W27468  11.159   4.372  11.540 -0.0347  0.0991 -0.1001
11208W        W27469   3.509   4.840   3.638  0.1177  0.1310 -0.1830
11209W        W27470   5.200  15.203   1.307  0.2241  0.0657  0.0778
11210W        W27471  13.663   1.702  11.471  0.1937  0.2753 -0.0253
11211W        W27472   2.566   6.924   0.181 -0.3409  0.0499 -0.1521
11212W        W27473   8.016   3.730  12.174 -0.1967 -0.1486 -0.1117
11213W        W27474  12.838   2.003  13.930  0.0361  0.0328  0.1438
11214W        W27475   2.086  17.954   1.673  0.0582 -0.1203  0.0839
11215W        W27476   4.854   6.050   2.483  0.0352 -0.1493 -0.0792
11216W        W27477  12.075   5.535   4.104  0.2200  0.1829 -0.2092
11217W        W27478   7.027   0.740  15.861 -0.1083  0.0203 -0.0603
11218W        W27479   9.119   5.824   2.278 -0.3194 -0.1371  0.1191
11219W        W27480  17.705  13.605  10.014 -0.0696  0.0929  0.0866
11220W        W27481   6.934   7.678  14.923 -0.2007  0.1967 -0.2528
11221W        W27482   7.939   7.739  16.000  0.2064 -0.1712  0.2001
11222W        W27483  11.087  15.719  13.253  0.1074  0.2192 -0.1350
11223W        W27484   5.462  14.080   4.138 -0.3526 -0.0825  0.1903
11224W        W27485   5.489   6.235  11.850  0.1021  0.0340 -0.2854
11225W        W27486  11.684   0.642   0.554 -0.1168 -0.0891  0.1957
11226W        W27487   2.085   5.578  13.474 -0.0764  0.1298  0.0613
11227W        W27488  14.187   9.288  13.810 -0.2221  0.0126  0.1298
11228W        W27489  13.105   4.277  11.257 -0.0789 -0.0558  0.0703
11229W        W27490  18.454   5.678  13.981 -0.1633 -0.1499  0.0067
11230W        W27491  14.808  13.053  13.625  0.1389  0.0701 -0.2341
11231W        W27492  17.830  14.701  15.621  0.1159  0.1311  0.1595
11232W        W27493   4.875   5.779  15.871  0.2321  0.2161 -0.1214
11233W        W27494  14.183   7.186  13.212 -0.0781 -0.1744  0.0220
11234W        W27495  14.397   8.020   2.279 -0.0219 -0.0107  0.3960
11235W        W27496  18.102   7.554   0.033  0.1056  0.0458 -0.1301
11236W        W27497  15.090  12.189   3.730  0.2640 -0.3335  0.0741
11237W        W27498   4.793  15.087   2.752 -0.0948 -0.1591  0.0437
11238W        W27499  14.009   9.725  11.108 -0.1959  0.0502  0.1802
11239W        W27500  17.439  16.113   4.474 -0.1649 -0.2674  0.0500
11240W        W27501  13.065  18.377   1.351  0.0178  0.2419  0.2976
11241W        W27502   9.673  12.295   4.131 -0.3141 -0.2727  0.1357
11242W        W27503   4.025   1.527   5.328  0.4069  0.2047  0.0404
11243W        W27504  13.965   7.669   5.489 -0.0305  0.0816  0.3665
11244W        W27505  15.162  15.605   1.571 -0.0419  0.0144 -0.0723
11245W        W27506  10.803  11.247  12.283  0.0506 -0.0225  0.0697
11246W        W27507   0.061   8.465   1.877 -0.0638  0.1677 -0.1494
11247W        W27508  14.291  12.481   1.486 -0.0621 -0.0676  0.0425
11248W        W27509   7.571   4.981  14.501 -0.1348  0.1376 -0.4578
11249W        W27510  17.591  10.479   4.988  0.0587  0.1553 -0.0248
11250W        W27511  15.613  16.974  14.955  0.0406 -0.1909  0.1879
11251W        W27512  16.825  11.697   0.611  0.1022  0.1462  0.3732
11252W        W27513  15.396   4.797  13.802  0.1011 -0.1206  0.1668
11253W        W27514  11.599   5.340  15.943  0.1648  0.1486  0.0917
11254W        W27515   8.162   6.689  14.909 -0.1293 -0.4043 -0.0385
11255W        W27516   2.687   7.826  16.025  0.3814  0.1008  0.0263
11256W        W27517   9.212  12.475   1.103 -0.1631 -0.3102 -0.3703
11257W        W27518   9.187  16.526  14.454  0.1921 -0.2284 -0.1835
11258W        W27519   9.374   7.424   3.890 -0.0736  0.3094  0.0212
11259W        W27520  10.588   8.059   3.315  0.1309 -0.0074  0.0016
11260W        W27521   5.984   3.806   3.758 -0.2209  0.2855 -0.5994
11261W        W27522  10.049  11.764  14.679 -0.1662 -0.0139  0.4503
11262W        W27523   9.121   9.421  11.638  0.1258 -0.1004  0.0257
11263W        W27524  10.264  14.674  15.130 -0.1306 -0.0678 -0.0619
11264W        W27525   3.431   2.294   2.386  0.0440  0.0926 -0.1614
11265W        W27526   6.849  15.252  15.434  0.2520 -0.0239 -0.1496
11266W        W27527  11.880  15.990  14.674  0.0330 -0.0379  0.2612
11267W        W27528  11.265  11.768  14.859 -0.0378  0.1520 -0.0961
11268W        W27529   1.822   6.013   0.184 -0.2618  0.2409 -0.0322
11269W        W27530   1.268   4.830  15.482  0.1951  0.2086  0.2419
11270W        W27531  17.527   0.696   1.208 -0.2117 -0.1884 -0.1515
11271W        W27532   4.291   3.206  15.542 -0.2459 -0.0079 -0.0802
11272W        W27533  10.680   7.438   2.559 -0.2936  0.0271 -0.0648
11273W        W27534  11.004  12.450  15.599 -0.3102 -0.0397 -0.2289
11274W        W27535   9.786   1.210  10.486 -0.0963  0.0153 -0.2894
11275W        W27536   7.375  13.631   2.195  0.0342 -0.1324  0.2768
11276W        W27537  18.387  17.543  12.068 -0.4072  0.2014 -0.0366
11277W        W27538  11.693   3.264   1.682  0.0137  0.2272 -0.1821
11278W        W27539   7.438  11.595  11.469 -0.1182 -0.0752  0.1666
11279W        W27540   5.089  13.760   0.307 -0.0355 -0.0157  0.2746
11280W        W27541   3.303   6.693   4.809  0.2674  0.1106 -0.2221
11281W        W27542   1.608   2.650   0.614  0.0980 -0.0115 -0.1536
11282W        W27543   1.769  11.167   4.475  0.1845 -0.2432 -0.2926
11283W        W27544   3.641   6.258  12.389  0.2621  0.1570 -0.1963
11284W        W27545  14.880   4.038   4.846 -0.1997 -0.0131 -0.0611
11285W        W27546   2.658   6.209   2.865  0.1440 -0.2154  0.2182
11286W        W27547  12.257   2.641  13.253 -0.2361 -0.1666 -0.0653
11287W        W27548   8.808   0.984  12.596 -0.2258  0.2204  0.0751
11288W        W27549  16.457  13.230   4.281  0.1422  0.0476 -0.0238
11289W        W27550  12.125   3.606   4.480  0.2819  0.2023  0.1070
11290W        W27551  11.878  10.787  16.180 -0.1298  0.2727 -0.0036
11291W        W27552  16.619   1.976   3.655 -0.0062 -0.2545 -0.0577
11292W        W27553   5.284   2.887   1.268 -0.2011 -0.1127  0.1618
11293W        W27554   4.689  15.583  14.873  0.1007 -0.2274  0.2646
11294W        W27555   5.988   3.303   2.298 -0.0156 -0.2162  0.0138
11295W        W27556  14.880  15.354  13.632  0.0450  0.1231  0.0517
11296W        W27557  18.204  11.888   3.331 -0.0511 -0.4122 -0.1635
11297W        W27558  11.583   5.476  13.680  0.0298  0.1486  0.0952
11298W        W27559   2.390  11.952  12.320  0.0095  0.1716  0.1087
11299W        W27560   2.791  12.803   0.326 -0.2835 -0.0564  0.1365
11300W        W27561  11.772  13.446  13.966 -0.1540 -0.0662  0.0161
11301W        W27562   0.402   7.683  13.191  0.2710 -0.3576  0.0839
11302W        W27563  10.800  16.998  11.607 -0.1653  0.0186  0.0586
11303W        W27564  11.940  11.891  13.228  0.1858  0.0892  0.1559
11304W        W27565  15.790   3.587   0.515  0.0083 -0.2062  0.1280
11305W        W27566  11.679   2.589   5.044 -0.0761  0.0892 -0.2361
11306W        W27567   4.340   4.919   5.880  0.1930 -0.0089 -0.0809
11307W        W27568  15.759  16.647   0.416  0.1867 -0.1688 -0.0539
11308W        W27569   9.032   3.202   1.514  0.1474  0.0535 -0.0705
11309W        W27570   0.161  11.193   5.181  0.0445 -0.1839  0.0114
11310W        W27571  12.871  16.932  11.637 -0.0700  0.0540  0.0039
11311W        W27572   2.952  16.887   1.923  0.0745  0.1216  0.0155
11312W        W27573   0.110  12.992   3.312 -0.0764 -0.2148 -0.0502
11313W        W27574  16.524  15.418   1.836 -0.0168 -0.0184  0.3080
11314W        W27575   7.941   3.598   2.293  0.0521 -0.0377 -0.2247
11315W        W27576   4.228   3.312   3.032 -0.1712  0.1496  0.1430
11316W        W27577  16.288   5.098  11.153 -0.0415  0.1254 -0.1646
11317W        W27578   8.483   4.404   1.705 -0.0273 -0.1026 -0.1534
11318W        W27579   0.834   0.320  14.264 -0.4521  0.3340 -0.1758
11319W        W27580  16.561  10.275   0.627 -0.3169  0.2310 -0.3218
11320W        W27581   1.268   1.441  12.975  0.0171  0.0406  0.2287
11321W        W27582  12.597  10.087  15.817 -0.1329 -0.1032 -0.0330
11322W        W27583  15.762   2.383   0.841 -0.0497 -0.2931  0.0833
11323W        W27584   7.715   2.415   4.773  0.1758 -0.1233  0.2266
11324W        W27585   4.768   4.880   5.459  0.2912 -0.1351 -0.2469
11325W        W27586  18.359  18.195   2.521  0.0460  0.5001  0.0445
11326W        W27587  17.074   5.696  14.960 -0.1580 -0.3208 -0.3592
11327W        W27588  15.963  10.059   2.137  0.1961  0.2296  0.0627
11328W        W27589   6.214  10.256  11.850  0.0814  0.0490  0.0285
11329W        W27590   4.589  13.218  15.710  0.2029  0.1701  0.1298
11330W        W27591   2.924   4.305  12.160 -0.1934  0.0455 -0.1459
11331W        W27592   5.793   6.651  12.040  0.3403  0.1124 -0.0241
11332W        W27593  10.920   8.489   4.076 -0.0038  0.2798  0.3204
11333W        W27594  11.183   5.091   4.021  0.0594 -0.0798  0.0607
11334W        W27595   1.259  12.288   1.775  0.2548  0.0505 -0.2197
11335W        W27596  15.728   2.583   1.309  0.0952 -0.2435  0.1327
11336W        W27597  11.123  15.247   1.058 -0.3162  0.1649 -0.0217
11337W        W27598   0.782  11.220   3.664  0.0817  0.0553 -0.1684
11338W        W27599  13.806  12.962  12.925  0.1834  0.1257  0.0990
11339W        W27600   0.340  18.346  10.376  0.0851  0.0807  0.1773
11340W        W27601  16.163  14.535   3.210  0.1042  0.1778  0.0153
11341W        W27602   1.865  16.755   1.352 -0.2179 -0.2917  0.0393
11342W        W27603  17.573   7.618  14.457 -0.2361 -0.1255  0.2353
11343W        W27604  13.873   9.428   2.262  0.0172 -0.1354 -0.1379
11344W        W27605  12.490  18.471   5.426  0.3333 -0.1884 -0.0470
11345W        W27606   0.806  17.191  14.320 -0.0806  0.2499  0.5403
11346W        W27607  16.136  15.835  12.018 -0.1237  0.3411  0.2088
11347W        W27608  11.612   7.307   4.320 -0.0955  0.1148  0.0912
11348W        W27609   0.022  14.312  11.742  0.1898 -0.0139 -0.0096
11349W        W27610   5.350  16.345   2.905  0.2394 -0.1013 -0.0143
11350W        W27611   4.736  17.525  13.446  0.0537  0.0602  0.2148
11351W        W27612  10.536  16.685   2.336 -0.0395  0.1551 -0.4308
11352W        W27613  12.362   3.583   2.836  0.2039 -0.1470 -0.0411
11353W        W27614   3.903   8.499   4.453 -0.0271  0.2172 -0.3033
11354W        W27615   0.878   6.799   0.751  0.0983 -0.1216 -0.1523
11355W        W27616   1.834   3.344  13.128  0.0976 -0.4051  0.1789
11356W        W27617  11.245  12.698   0.276 -0.0194  0.2660 -0.0011
11357W        W27618  17.938  14.583   0.732  0.0438  0.0674 -0.0209
11358W        W27619   1.243  14.921  16.110  0.4663 -0.0840 -0.0078
11359W        W27620   3.696  10.570   0.643 -0.3489 -0.0584  0.1373
11360W        W27621   2.225  17.018   5.432  0.0864 -0.0517 -0.2908
11361W        W27622  17.537   0.700   2.340  0.0705 -0.0139 -0.2148
11362W        W27623   9.928  13.828   0.059 -0.3759 -0.1007 -0.0382
11363W        W27624  17.342  10.450  11.205 -0.0743  0.0847  0.0896
11364W        W27625  15.784   6.162   4.101 -0.2386 -0.0992  0.0986
11365W        W27626  12.880   2.362   0.127  0.1768  0.3467 -0.0566
11366W        W27627  13.917   9.637  16.034  0.0680 -0.1121  0.0179
11367W        W27628  10.936   2.483  16.104 -0.1014  0.0209  0.1450
11368W        W27629  11.821   9.678   5.507  0.0967 -0.3212 -0.0604
11369W        W27630  13.299  14.210   2.773  0.0671  0.0288 -0.5779
11370W        W27631  15.503  14.761   4.284  0.0907 -0.0821 -0.1954
11371W        W27632   9.915  14.755   0.227 -0.0943 -0.3775 -0.1123
11372W        W27633   1.936  15.113  15.229 -0.1868 -0.0753  0.1226
11373W        W27634   7.216  17.979  14.167  0.1136  0.0157  0.2763
11374W        W27635  10.443  16.150   0.491 -0.0769  0.0953  0.3746
11375W        W27636   0.059   5.326   4.312 -0.0717  0.2086  0.0808
11376W        W27637   2.464  11.526   1.526 -0.1062 -0.0908 -0.2950
11377W        W27638   6.652   9.680  12.250 -0.0034  0.1019  0.3485
11378W        W27639   4.442  10.320   0.253  0.0263 -0.3366 -0.0548
11379W        W27640   0.969   8.471   5.404 -0.0367 -0.0193 -0.0348
11380W        W27641  15.995   3.285   2.820 -0.1100 -0.2299  0.3026
11381W        W27642  10.604  17.479  11.488  0.1286 -0.1327  0.0841
11382W        W27643  12.769   9.273  11.492  0.0177 -0.1108  0.0269
11383W        W27644  11.985   0.601   2.003  0.0204 -0.0009 -0.0666
11384W        W27645  12.834  14.799  13.328  0.1856 -0.2081  0.0577
11385W        W27646  13.963  16.645  14.363 -0.3410 -0.2445 -0.0632
11386W        W27647  11.459   6.532   0.685 -0.1638 -0.2734  0.1754
11387W        W27648   6.539   1.764   5.897 -0.1462 -0.1339 -0.1336
11388W        W27649  17.031   3.182   2.478  0.0725  0.2423 -0.0151
11389W        W27650   7.987  10.911   5.479 -0.0000  0.0538  0.0250
11390W        W27651   1.678  14.346   4.493 -0.0101 -0.1859 -0.1083
11391W        W27652   9.117   8.809  13.819 -0.1851  0.0139  0.1523
11392W        W27653   1.397  14.410  13.363  0.3714  0.3163 -0.0133
11393W        W27654   3.025   6.998  15.977  0.0727  0.1253 -0.0541
11394W        W27655  16.977   6.967  11.759  0.0443  0.2433  0.0423
11395W        W27656  17.231  13.073   0.003 -0.3602  0.1782 -0.0466
11396W        W27657   3.603   1.505  14.576 -0.1005  0.2266  0.1376
11397W        W27658   2.084  10.012   2.339  0.0586 -0.2869 -0.1601
11398W        W27659  14.213  11.625   9.520 -0.0804  0.1517 -0.0804
11399W        W27660   2.415   3.285  14.766  0.0328 -0.0662  0.1083
11400W        W27661   5.448  13.774   2.712  0.1197  0.1530  0.1375
11401W        W27662   1.987   4.238   4.251  0.0678 -0.0431 -0.0442
11402W        W27663   5.368   3.839   2.897  0.0520  0.3098  0.2185
11403W        W27664   2.988   7.190   1.673 -0.3141  0.0905  0.2063
11404W        W27665  17.512   7.627   2.390  0.1360  0.1738  0.1329
11405W        W27666  15.360   5.359  15.017  0.0674  0.0306  0.1597
11406W        W27667   1.209  14.497  15.203  0.0385 -0.1026 -0.1863
11407W        W27668   9.941   8.126   5.764  0.0881  0.1284 -0.0243
11408W        W27669   6.589  13.413  14.459 -0.1638 -0.0160  0.0304
11409W        W27670  16.521  14.514  15.844 -0.2985 -0.0031  0.1104
11410W        W27671   9.190   7.444  14.941 -0.1768 -0.0869 -0.3217
11411W        W27672  10.885  17.113   2.251 -0.1337 -0.0565 -0.2945
11412W        W27673   1.070  15.700  12.301  0.0322 -0.0891  0.2031
11413W        W27674   5.681   3.805   1.125 -0.0643  0.2922  0.0646
11414W        W27675  13.234  16.617  11.317  0.0727 -0.0783  0.6172
11415W        W27676   3.529  10.221   3.451 -0.0555  0.4357 -0.5386
11416W        W27677   2.708  10.503  12.614 -0.1499 -0.0767 -0.2105
11417W        W27678  16.417  10.048  14.890 -0.1558  0.1711 -0.2170
11418W        W27679  17.158  10.172   0.202  0.0646  0.2989  0.3094
11419W        W27680   6.207   0.309  16.185 -0.0733  0.0604  0.0610
11420W        W27681   2.213  11.289   1.917 -0.1647  0.3792  0.0861
11421W        W27682  16.205  15.410  12.816  0.1002  0.0774  0.1171
11422W        W27683  15.974   7.093   2.965  0.1899  0.1059  0.4564
11423W        W27684  17.279  16.572  11.275 -0.1520 -0.0445 -0.2920
11424W        W27685  13.737  11.818  11.497  0.2874  0.1517 -0.0016
11425W        W27686   9.352  14.339   2.250  0.0405  0.2069 -0.1967
11426W        W27687   5.117  13.416   2.577  0.2271 -0.0757  0.0342
11427W        W27688   9.181  13.135  13.736 -0.1176 -0.2301  0.1151
11428W        W27689  13.177  13.034   2.487 -0.2468 -0.0254  0.2549
11429W        W27690  16.381   8.973   1.730  0.2835 -0.2304 -0.2867
11430W        W27691   7.115  13.906   4.889 -0.4826  0.0434  0.0427
11431W        W27692   8.255  10.960  12.439  0.1962  0.0818  0.3675
11432W        W27693  12.995   7.789  10.401 -0.0276  0.1468 -0.0137
11433W        W27694   9.253   0.360  13.481 -0.2363 -0.3790  0.0578
11434W        W27695  17.121   7.993  11.435  0.2287 -0.1862 -0.4091
11435W        W27696  13.673  12.824   2.932  0.3066 -0.0467 -0.0213
11436W        W27697   0.030  17.883  13.447  0.1187  0.1345 -0.3888
11437W        W27698  12.818   4.350  11.656  0.1798 -0.1595  0.0940
11438W        W27699  11.778   0.089  14.308 -0.0706 -0.0116 -0.0294
11439W        W27700   6.477   1.149  12.507 -0.0445  0.2987  0.0639
11440W        W27701  10.976   3.788   6.196  0.1753  0.1952 -0.2247
11441W        W27702   0.552   8.335  13.337  0.2345  0.1984  0.0306
11442W        W27703   8.649  13.795   2.760  0.1128 -0.0015  0.0105
11443W        W27704   3.172   2.208   3.669  0.0688  0.0079  0.3717
11444W        W27705   6.317   0.441   2.542  0.2077 -0.1456 -0.1129
11445W        W27706  13.188  13.561  15.298 -0.1318  0.0157 -0.0121
11446W        W27707   0.785  14.110   5.117 -0.0312  0.0825 -0.1894
11447W        W27708  13.097   2.180  12.023  0.1676 -0.0766 -0.0707
11448W        W27709  11.039   4.526  15.444  0.0327 -0.0726  0.1495
11449W        W27710   5.936   0.553  14.386  0.3899 -0.0248 -0.0127
11450W        W27711   9.892   4.638   4.229 -0.0014  0.0956  0.0153
11451W        W27712   3.881   9.307  16.041  0.1670 -0.1713 -0.0369
11452W        W27713  10.863   9.812   3.813 -0.0073 -0.1216 -0.0902
11453W        W27714  17.439   1.339   2.290 -0.2005 -0.1073 -0.4693
11454W        W27715  17.849   5.497   3.702 -0.1672 -0.2486  0.0951
11455W        W27716   8.589  14.168   1.835  0.3508 -0.1537 -0.0963
11456W        W27717  10.690   2.784   3.350  0.0693 -0.0957 -0.4344
11457W        W27718  13.255   7.756  14.024 -0.1130 -0.1737 -0.0332
11458W        W27719   7.752  13.144   2.157 -0.0248  0.2033 -0.0705
11459W        W27720   0.853  16.475  15.999 -0.5611  0.1473 -0.0944
11460W        W27721   2.784  10.939   2.404 -0.1997  0.1014  0.2547
11461W        W27722   9.313   7.317   1.586  0.1229 -0.0756 -0.3038
11462W        W27723  15.048   6.658   3.310 -0.0580 -0.2569  0.2062
11463W        W27724  14.443   3.537   3.163  0.2794  0.3077  0.0947
11464W        W27725   2.122  15.995  12.101 -0.1498  0.0891 -0.2480
11465W        W27726   7.831  17.305  15.610 -0.1815 -0.2817 -0.0141
11466W        W27727   0.023   9.673  11.045 -0.0668 -0.1560 -0.0381
11467W        W27728  14.155   9.565   2.650  0.0197 -0.1522 -0.3552
11468W        W27729  13.316   0.872  13.506  0.5053  0.4080  0.0037
11469W        W27730  16.681  18.377   4.745 -0.1763  0.2435  0.3908
11470W        W27731   3.163  17.830   3.608  0.1115 -0.2900  0.1340
11471W        W27732   6.046  16.889  16.046  0.1575 -0.3434 -0.1937
11472W        W27733   8.637   3.547  13.632  0.1754  0.0428  0.3719
11473W        W27734   3.579  10.703   1.132  0.0584 -0.0510  0.3968
11474W        W27735   1.467  18.437   3.852 -0.0211 -0.0798 -0.0179
11475W        W27736  13.661   3.668   2.877 -0.2032  0.1113 -0.0266
11476W        W27737  10.836  10.435  12.431 -0.2005 -0.1204 -0.1346
11477W        W27738   9.392   4.607   1.800 -0.1691  0.0096 -0.2860
11478W        W27739  17.596   7.267   5.378 -0.2248 -0.2847 -0.0214
11479W        W27740   3.582  14.780   0.091 -0.0039 -0.3332 -0.0657
11480W        W27741  15.939   1.720  10.926 -0.0589  0.0458 -0.0718
11481W        W27742  10.526  10.481  15.790  0.0640  0.3720  0.1311
11482W        W27743   2.192   1.966   2.834 -0.0221 -0.1028  0.3481
11483W        W27744  15.011  16.063  15.813  0.1031 -0.3348 -0.0652
11484W        W27745   0.559   5.611   2.060 -0.1372 -0.1432 -0.1429
11485W        W27746   2.639  18.444   2.522 -0.0035 -0.1024 -0.2053
11486W        W27747  14.303   2.098   0.567 -0.3893 -0.0883 -0.0120
11487W        W27748   1.163   4.732   4.499  0.2799  0.0426  0.1058
11488W        W27749   1.277   1.357   0.132 -0.3508  0.1019 -0.3392
11489W        W27750   5.178  11.349  12.815  0.0904  0.0331 -0.1717
11490W        W27751   9.864  15.619  13.297  0.0810 -0.3577 -0.2802
11491W        W27752  10.821  13.205   0.931 -0.1471 -0.4217  0.1304
11492W        W27753  18.178  14.220   3.555 -0.2464  0.0879 -0.0141
11493W        W27754   6.450  17.284  13.859 -0.0757  0.0211  0.0672
11494W        W27755   0.583   1.710   3.913 -0.2396 -0.0096 -0.0692
11495W        W27756   9.080   5.432   1.401 -0.3324 -0.2750  0.1994
11496W        W27757   9.633  12.501  14.865  0.2427 -0.0665 -0.0606
11497W        W27758  15.337  14.886  13.067 -0.3441 -0.1209  0.3196
11498W        W27759   6.915   5.451   1.549  0.2379 -0.1523  0.0127
11499W        W27760   6.186   5.374   5.010 -0.0285 -0.0743  0.0412
11500W        W27761  17.594   9.129  13.853  0.2170 -0.0891  0.3177
11501W        W27762  17.033   1.298   0.477  0.0812 -0.0347  0.3274
11502W        W27763   4.302  17.447  12.533 -0.3226 -0.0212  0.2435
11503W        W27764  16.041  16.810  15.182 -0.1960 -0.2897 -0.3092
11504W        W27765  16.152  16.593  13.794 -0.3927 -0.3157  0.2144
11505W        W27766   1.175  17.414  11.235  0.0236  0.0614  0.1064
11506W        W27767  13.275  15.518   1.833 -0.0699  0.1517 -0.2984
11507W        W27768   2.406   9.188  12.711  0.0580  0.3552 -0.1010
11508W        W27769   0.467  18.026   2.829  0.0129 -0.1628 -0.3692
11509W        W27770   3.462  16.965  12.941 -0.0144  0.1676 -0.0216
11510W        W27771  12.746   3.166   1.777 -0.2076 -0.1699 -0.0923
11511W        W27772  18.191  14.922  13.955 -0.0035 -0.3991  0.0052
11512W        W27773   8.179  12.247  13.987  0.0308  0.0500  0.2503
11513W        W27774  16.402   3.481  11.562  0.1338  0.0107  0.1321
11514W        W27775  17.916   1.366  15.567  0.3186  0.2055 -0.0550
11515W        W27776   6.032   5.750   3.111 -0.0152 -0.2001 -0.0920
11516W        W27777  10.738   5.166  15.728 -0.0226  0.1906  0.0214
11517W        W27778   6.642  17.701   1.044  0.3247 -0.1223 -0.0511
11518W        W27779   9.467   6.229   2.563 -0.0925  0.0132  0.3499
11519W        W27780  10.248   9.064  13.714  0.2380  0.0506  0.0277
11520W        W27781  12.169   3.857  15.305 -0.0422 -0.1176 -0.0185
11521W        W27782   0.826   1.642  15.148 -0.0774  0.1317  0.1756
11522W        W27783  17.681  16.324   1.610  0.0246  0.1178 -0.1327
11523W        W27784  12.699   1.456  12.951  0.2209  0.3248  0.0561
11524W        W27785   8.195   5.493  13.541  0.0588  0.0961  0.0730
11525W        W27786  12.994  17.920   1.116  0.3615 -0.2475 -0.1309
11526W        W27787   7.096   7.902  15.964  0.3275 -0.3795 -0.0208
11527W        W27788  13.785  17.422  14.588 -0.0992  0.1746  0.2450
11528W        W27789   5.810   5.067   5.143  0.1592  0.0434  0.2046
11529W        W27790   8.834  17.676  13.175  0.1574 -0.0694  0.2284
11530W        W27791   8.162  12.045  12.799  0.1292 -0.1115 -0.2942
11531W        W27792   1.715  14.630  15.333  0.1162  0.0716  0.1193
11532W        W27793   1.615   5.751  13.134 -0.0512  0.3274  0.0965
11533W        W27794  11.392   0.473  13.473 -0.1963 -0.2985 -0.1690
11534W        W27795   4.546  13.297   4.027 -0.0600  0.2050  0.0795
11535W        W27796   6.812  16.127  11.929 -0.1053 -0.0277  0.1193
11536W        W27797   3.877   1.117  16.013  0.0064 -0.0436  0.0006
11537W        W27798  13.359  14.174   5.834  0.0587 -0.2600 -0.1509
11538W        W27799  13.867  11.542  14.901 -0.1275  0.3772  0.4594
11539W        W27800   0.484   0.670  11.213  0.1476 -0.1994 -0.1995
11540W        W27801  14.332  11.222   1.552  0.1056  0.1438  0.1758
11541W        W27802   7.559   6.505  14.294 -0.3470  0.6952 -0.0491
11542W        W27803   1.571   0.228  11.975  0.2304 -0.0241  0.1091
11543W        W27804   9.513  15.776   0.957 -0.1638  0.1542  0.0100
11544W        W27805  12.733  13.350   3.663  0.1012 -0.0559  0.2259
11545W        W27806  14.580   2.787  10.964 -0.1086  0.2231 -0.0214
11546W        W27807   9.344  10.178  11.856 -0.1906  0.0040  0.1271
11547W        W27808  12.016   5.015   2.978 -0.2128  0.2360 -0.2260
11548W        W27809   9.773  13.993  14.652  0.3145  0.0981  0.0993
11549W        W27810   5.217  16.214   5.206 -0.1585  0.0488  0.3889
11550W        W27811  11.259   2.655   2.456 -0.2957  0.0426 -0.0249
11551W        W27812  14.614   0.777  15.797 -0.1061 -0.0500  0.2355
11552W        W27813  14.283   5.838  11.257  0.1022 -0.3289  0.2318
11553W        W27814  16.302   4.521   1.604 -0.1621  0.2815  0.1614
11554W        W27815   1.184   4.423   1.394 -0.0813  0.0282 -0.2148
11555W        W27816  10.302   7.365   1.338 -0.1510 -0.2727  0.0364
11556W        W27817  17.737  15.010  14.261  0.0287 -0.2997  0.1562
11557W        W27818  10.837   1.380   3.290 -0.1669  0.0657 -0.0875
11558W        W27819  12.158  16.626  11.744 -0.0973 -0.0984 -0.0080
11559W        W27820  15.711   9.431   1.969 -0.2562  0.3879  0.0926
11560W        W27821  16.984  17.199  11.690  0.3748 -0.2030  0.0054
11561W        W27822  10.951   4.796  11.350 -0.0321  0.1028  0.2274
11562W        W27823   3.540   9.946  12.410 -0.0366 -0.1234 -0.1124
11563W        W27824   9.680  10.119   4.782 -0.1295 -0.0823  0.2671
11564W        W27825  14.478  10.492  14.200  0.1016  0.1115  0.2624
11565W        W27826   8.711   5.103  15.743  0.1310 -0.3546  0.1024
11566W        W27827   4.405   6.252   5.156  0.0996 -0.1489 -0.1329
11567W        W27828   6.317  17.133  15.502  0.0994 -0.4756 -0.1322
11568W        W27829  12.720   7.994  12.841  0.1224 -0.2281 -0.0538
11569W        W27830  10.398   6.649   4.334 -0.1626 -0.3901 -0.1742
11570W        W27831  13.024   9.673   3.412  0.0278 -0.0819  0.4081
11571W        W27832  17.999   2.818   1.293 -0.2636  0.6589  0.0712
11572W        W27833  15.538   6.878   1.234 -0.1248 -0.0797  0.2166
11573W        W27834  18.332   6.571  12.681 -0.1586 -0.0855  0.3085
11574W        W27835  11.229  16.298  12.181 -0.1671 -0.3314 -0.0474
11575W        W27836   7.798   1.572  14.789 -0.0918 -0.0023 -0.3117
11576W        W27837  13.898  12.186  11.753 -0.0481 -0.0543  0.3346
11577W        W27838   2.741   3.834   0.362 -0.1144 -0.4629 -0.0062
11578W        W27839  14.858  16.139   3.941 -0.0703  0.1574 -0.2744
11579W        W27840   8.220   4.264   1.255  0.1674 -0.3053 -0.0116
11580W        W27841  15.083  12.870  14.059  0.0486  0.1196  0.0497
11581W        W27842  12.164   5.309   2.469  0.2679 -0.1443  0.1114
11582W        W27843  17.304  11.947   4.894  0.0848 -0.2075  0.0163
11583W        W27844   1.552   7.012  15.117 -0.0426  0.2347  0.1303
11584W        W27845  15.952   7.539  12.926  0.1044 -0.2031  0.3245
11585W        W27846   2.658   5.679   2.961  0.2474 -0.0386  0.0829
11586W        W27847  16.914  15.785   1.041  0.4464 -0.0423 -0.2723
11587W        W27848  13.467   7.331  13.741  0.1967  0.2963 -0.3339
11588W        W27849   7.733  13.407   2.561 -0.0406 -0.3844 -0.0376
11589W        W27850   3.353   4.954   0.426  0.2599 -0.0880 -0.2816
11590W        W27851  15.879  16.929   1.234 -0.1231  0.0751  0.2067
11591W        W27852  16.528   7.656  13.887  0.0341 -0.0627  0.0953
11592W        W27853   1.352   3.885   5.154 -0.2354 -0.0516  0.0612
11593W        W27854   3.263  16.389   2.756  0.0339 -0.1283 -0.0859
11594W        W27855   0.206   1.854   0.411 -0.1502 -0.0747 -0.0436
11595W        W27856  15.508   7.763   3.979  0.1740  0.1184  0.2290
11596W        W27857  13.908   6.534   4.714  0.0646  0.0841  0.1174
11597W        W27858   6.725   4.409   6.369 -0.1204  0.1041 -0.2477
11598W        W27859  10.742  10.946   0.691 -0.1519 -0.1631  0.3633
11599W        W27860   5.535   9.703  14.130 -0.0057  0.0052 -0.3844
11600W        W27861   8.397  16.331   2.741  0.1747  0.1488  0.1100
11601W        W27862  17.003  18.020  12.123 -0.1079  0.1514 -0.0726
11602W        W27863   7.741   9.774   3.272  0.0422 -0.1493 -0.2484
11603W        W27864   8.706  14.918  12.181 -0.0268  0.1498  0.3775
11604W        W27865   3.220   5.994   0.014  0.0120  0.1786  0.2427
11605W        W27866  13.967   1.638  10.735  0.2238  0.4771  0.2929
11606W        W27867   2.153   8.716  11.470 -0.0236  0.1956 -0.0697
11607W        W27868  14.043  11.517  15.670  0.1206 -0.0631  0.2681
11608W        W27869  12.794  17.853  12.917  0.3855  0.1625  0.0104
11609W        W27870   1.148  14.549   5.279 -0.4086  0.2127 -0.0737
11610W        W27871   3.326  10.843  13.110  0.3677  0.1282  0.0904
11611W        W27872  13.830  16.847   0.779 -0.1921  0.0648  0.4619
11612W        W27873   0.223   2.493   4.915  0.3256 -0.1705  0.1687
11613W        W27874  14.475   8.691  13.161  0.1327 -0.2336 -0.0435
11614W        W27875  14.163  12.566  12.094 -0.4435 -0.1437  0.0866
11615W        W27876  16.657   3.835  11.197  0.0705 -0.0289 -0.2424
11616W        W27877   5.463   1.241  15.077 -0.3449  0.1197  0.1231
11617W        W27878  12.081   8.882   0.736 -0.2885  0.1954 -0.2348
11618W        W27879   0.882   2.499  15.110 -0.5296 -0.0254 -0.0523
11619W        W27880   4.665   3.016   4.392  0.1755  0.1673  0.2349
11620W        W27881   5.794   1.608   1.693 -0.1823 -0.0707 -0.0076
11621W        W27882  12.636   4.938  12.583  0.3198 -0.1585 -0.1571
11622W        W27883   1.775  18.129   3.607  0.1234  0.1846  0.2031
11623W        W27884  10.271   0.341  15.183  0.1181 -0.2562 -0.0475
11624W        W27885  11.227   7.579   2.178 -0.1200  0.2612 -0.1158
11625W        W27886   7.951   1.158   1.556  0.0077 -0.0688  0.3503
11626W        W27887  12.205  12.258   5.330 -0.3051  0.3387  0.1305
11627W        W27888   3.462   4.776  11.858 -0.0270 -0.0446 -0.1412
11628W        W27889   3.030   6.632  12.494  0.2143  0.0077 -0.1470
11629W        W27890  13.873   3.555   4.959 -0.1902  0.0780 -0.3385
11630W        W27891   7.278  13.889   5.397 -0.0450  0.0056 -0.1125
11631W        W27892   2.570  18.333  12.746 -0.0551  0.0947 -0.0683
11632W        W27893  14.094   4.192   3.599  0.3817  0.3040  0.1919
11633W        W27894   8.745  13.510  12.103  0.0298 -0.1834  0.2044
11634W        W27895   8.454   9.353   0.997  0.1020  0.1879 -0.1795
11635W        W27896   0.467   5.185   1.765 -0.1089 -0.1126  0.0437
11636W        W27897  12.727   3.411  15.456  0.1407  0.2204 -0.0417
11637W        W27898  14.185   1.129  10.671 -0.0557  0.3130 -0.1518
11638W        W27899   8.420   7.305   3.213  0.0504  0.0872 -0.1076
11639W        W27900   4.871  16.036  13.880  0.1457 -0.0211 -0.0720
11640W        W27901   5.923   1.831  12.879 -0.1145 -0.1788  0.1841
11641W        W27902  16.513  16.168   0.939 -0.1416  0.1964  0.0356
11642W        W27903  14.816   6.138  12.724 -0.1916  0.1066 -0.2329
11643W        W27904   9.082   9.718   4.052  0.1761 -0.0212  0.3164
11644W        W27905  12.853  12.083  11.442  0.0800  0.0013 -0.3246
11645W        W27906  15.625   1.299   2.102 -0.0112 -0.1174  0.0627
11646W        W27907  17.896  11.660  15.822 -0.2287  0.0047  0.2204
11647W        W27908   2.950   5.678   4.136 -0.2400 -0.0187  0.3226
11648W        W27909   7.969  10.573   3.065  0.1547 -0.1603 -0.3967
11649W        W27910   1.991   5.278   4.395  0.1151 -0.1230 -0.0358
11650W        W27911   1.482  17.653   1.090 -0.0586  0.0295 -0.0875
11651W        W27912   5.969   1.882  15.055  0.1460  0.0393  0.0463
11652W        W27913  16.372  11.982   0.513  0.0230  0.5970 -0.2103
11653W        W27914  11.300   2.487   4.102  0.1109 -0.2675  0.3389
11654W        W27915  13.214   9.420  11.362 -0.2326  0.1549  0.0084
11655W        W27916   0.692   5.773  15.599 -0.1139  0.1042 -0.1304
11656W        W27917  12.781   0.148  13.496  0.0437  0.2946  0.4681
11657W        W27918   2.691  10.519   2.652 -0.1310  0.4854 -0.0977
11658W        W27919   8.331  10.705   3.412  0.2723  0.2815  0.0080
11659W        W27920   5.462   3.519   4.472  0.0831 -0.0098 -0.0097
11660W        W27921   9.762  10.080  11.606 -0.1576 -0.0312  0.2465
11661W        W27922  17.557  14.882  12.595  0.1317  0.2811  0.3081
11662W        W27923  18.467  12.265  13.528  0.2259 -0.2408  0.0756
11663W        W27924  14.476  14.594  11.371  0.0117 -0.0442  0.1099
11664W        W27925  16.556  14.488  12.596  0.2022  0.1638 -0.2919
11665W        W27926  15.643  14.823   2.552 -0.0772 -0.0705 -0.0060
11666W        W27927   7.963   8.067   2.788 -0.0642 -0.1986  0.1954
11667W        W27928   6.346  10.291   6.021 -0.1886  0.1729 -0.0882
11668W        W27929   7.794  12.287   1.523 -0.1370 -0.0836 -0.0165
11669W        W27930  13.674   6.733   1.971  0.1162  0.1937 -0.2671
11670W        W27931   9.980  13.578  15.734  0.0380 -0.2095 -0.0158
11671W        W27932   2.591  17.891  13.512 -0.0880  0.0161 -0.0132
11672W        W27933  11.726   9.744  14.700  0.0852 -0.0720  0.1862
11673W        W27934  17.912  14.751  12.972 -0.0223 -0.1120 -0.3992
11674W        W27935   6.271  15.458   2.158 -0.1356  0.1117  0.0848
11675W        W27936  17.595   6.953  15.187 -0.1451  0.0857  0.3117
11676W        W27937  17.324   5.251  12.201 -0.1882  0.0650 -0.3164
11677W        W27938  14.940   8.910  15.775  0.1198 -0.0185  0.1986
11678W        W27939   6.759   2.609  16.124 -0.1625 -0.2245  0.0749
11679W        W27940   0.581   5.917  13.239 -0.1982 -0.1503  0.2388
11680W        W27941  10.378  15.458  14.648  0.1922  0.1296  0.1775
11681W        W27942   6.604   9.218   2.244  0.2085  0.1152  0.1537
11682W        W27943  10.813   6.139  12.440 -0.2334  0.3437 -0.2842
11683W        W27944   5.770   4.154   2.823  0.2495 -0.2940  0.2826
11684W        W27945  15.460   9.460  11.387 -0.1195 -0.1420 -0.2325
11685W        W27946  13.290  12.416   0.033  0.0992  0.0485  0.0636
11686W        W27947  15.160  13.613  10.801  0.0890  0.0973 -0.1546
11687W        W27948  17.132   2.498  15.666  0.1767 -0.0399 -0.0418
11688W        W27949   4.929   0.155  13.337 -0.2100  0.0791 -0.0598
11689W        W27950  13.486   7.566  12.339 -0.2497  0.1479 -0.1762
11690W        W27951   4.557   1.589   4.436  0.0649  0.0006 -0.3327
11691W        W27952   7.697   3.852   4.843 -0.0366  0.1242  0.0564
11692W        W27953  12.384  14.224   4.139  0.0713 -0.3021 -0.1352
11693W        W27954   0.715   1.441   2.090 -0.2751 -0.3526 -0.0478
11694W        W27955  10.961   0.626   3.241 -0.1161 -0.0088  0.1647
11695W        W27956   3.839   8.386   1.883  0.1648 -0.2045 -0.1323
11696W        W27957   4.626   1.696   1.432 -0.0173 -0.0173  0.2428
11697W        W27958  11.117  17.680  10.687  0.0338 -0.2984 -0.3369
11698W        W27959   3.277  17.993   5.241  0.0792  0.4624  0.0321
11699W        W27960  14.406  16.249   3.640 -0.1117 -0.1345 -0.1874
11700W        W27961  13.795  10.751  15.480 -0.0741 -0.0586 -0.1855
11701W        W27962  16.635   8.948   0.609 -0.2396  0.1276  0.0048
11702W        W27963   1.432   0.972   5.720  0.1082 -0.2134  0.2087
11703W        W27964   5.807  16.504   0.252 -0.0242 -0.2464 -0.0085
11704W        W27965   3.901   5.750  13.195 -0.1573 -0.1425 -0.1289
11705W        W27966  17.030  14.044  13.117 -0.1961 -0.0179  0.2231
11706W        W27967  16.010   6.955  13.013  0.2166  0.1168 -0.0424
11707W        W27968  13.903   1.482   1.802 -0.3168  0.1095 -0.4057
11708W        W27969  17.381  16.532   5.396  0.0021 -0.2233  0.1724
11709W        W27970  12.606   6.825  14.020 -0.1278 -0.0146  0.1588
11710W        W27971  14.432  16.293  13.537  0.0226 -0.5020  0.0828
11711W        W27972   8.333   6.122   0.513  0.1355  0.5190  0.0657
11712W        W27973  12.999   6.187   4.985 -0.1061 -0.0576  0.3489
11713W        W27974  15.774   0.545   3.386  0.0346 -0.2557  0.0107
11714W        W27975  16.771   2.726   2.502  0.0622 -0.2233  0.0366
11715W        W27976  10.419   5.531   1.249  0.1038 -0.1074 -0.0315
11716W        W27977  14.630   6.530   2.922  0.0953  0.1528 -0.0256
11717W        W27978   3.515   6.224   4.731  0.0719 -0.3160 -0.1153
11718W        W27979  12.099   3.586  13.592 -0.0009  0.0925 -0.0978
11719W        W27980   5.847  14.499   0.038 -0.1188 -0.1683  0.1424
11720W        W27981  13.921  15.348   1.040 -0.1080 -0.1729 -0.1039
11721W        W27982  15.244   8.008  13.071 -0.0471 -0.2989  0.1330
11722W        W27983   1.269   1.360  11.304  0.2542 -0.1711 -0.2330
11723W        W27984  10.438   6.982  12.664  0.4492 -0.1988  0.3997
11724W        W27985  11.045  15.562  11.538 -0.1639  0.1415 -0.0939
11725W        W27986  13.055   7.977  13.205  0.1413 -0.0052 -0.0522
11726W        W27987  15.588   2.863  11.721 -0.1426  0.1465  0.3665
11727W        W27988  15.836  18.367  14.584 -0.1274  0.0832 -0.0728
11728W        W27989  11.203  17.143  14.355  0.3233 -0.0334  0.2554
11729W        W27990  17.084   1.104  15.351  0.1387  0.2147  0.0142
11730W        W27991   7.279   1.618   0.975 -0.0690  0.0009 -0.2279
11731W        W27992  17.790  18.462  11.827  0.1082  0.2749  0.2962
11732W        W27993   1.906   2.459   1.676 -0.1060  0.1829  0.0698
11733W        W27994  15.703   9.194  12.653 -0.1629 -0.0323  0.2200
11734W        W27995  15.280  11.135  10.233 -0.0361  0.4803 -0.0130
11735W        W27996   3.387   5.220  13.318  0.1496 -0.3167  0.1949
11736W        W27997   6.368   4.389  13.809  0.3362  0.0832  0.0795
11737W        W27998   9.222   0.365  11.842 -0.1380  0.1670 -0.1309
11738W        W27999   8.872  11.949  15.593 -0.1884  0.1985  0.1961
11739W        W28000   0.600  17.436  15.146  0.0084  0.1615 -0.0044
11740W        W28001  14.580   6.307   2.077  0.0015  0.3152 -0.0678
11741W        W28002  13.436  10.097  13.931 -0.1260  0.2390  0.0819
11742W        W28003   8.107  11.979  10.966  0.0174 -0.1814 -0.1181
11743W        W28004  13.775  10.157  11.585  0.0813 -0.3093 -0.2434
11744W        W28005   9.745   0.847   3.062  0.2096 -0.1728  0.3569
11745W        W28006   1.389   2.288   1.611 -0.0773  0.2630 -0.0433
11746W        W28007  13.327  12.644   2.256 -0.1936  0.0177  0.3010
11747W        W28008   1.232  13.645  12.721  0.4380 -0.1931 -0.1557
11748W        W28009   2.497  12.559   3.918  0.1871  0.0833  0.1567
11749W        W28010   8.448   1.210   0.794  0.1794 -0.0884 -0.0660
11750W        W28011   5.035  10.904  14.284  0.3662 -0.0548 -0.1714
11751W        W28012   5.772   5.268   6.185 -0.1276 -0.0344 -0.1580
11752W        W28013  11.520  11.158   0.201  0.0641  0.0569  0.2160
11753W        W28014   7.872   9.342   5.509 -0.0579  0.1450  0.1217
11754W        W28015   9.010   3.555   4.189 -0.3195  0.3310 -0.0688
11755W        W28016  13.279   8.517  12.014 -0.1967  0.1194  0.4196
11756W        W28017   3.854  13.616   1.042  0.5176 -0.2081  0.1359
11757W        W28018  17.946  15.732  10.492 -0.1874  0.0409 -0.1968
11758W        W28019   7.147  14.597  10.520 -0.1286  0.0147  0.3426
11759W        W28020  14.903   3.457   2.303 -0.1374 -0.2509 -0.0097
11760W        W28021   8.539   4.001  15.261 -0.0555 -0.0045 -0.1958
11761W        W28022   0.960   2.756  13.994 -0.0512 -0.5347 -0.1785
11762W        W28023  14.273   9.968   3.526 -0.0455 -0.1609  0.0762
11763W        W28024   3.321  13.998  11.297 -0.2781  0.1456  0.1686
11764W        W28025   7.998   8.009  15.576  0.4527 -0.1575  0.0284
11765W        W28026   8.634  18.010   4.639 -0.6559 -0.0986 -0.0312
11766W        W28027   5.277  12.682  12.706  0.1317 -0.2132 -0.0795
11767W        W28028  14.691  16.180  14.967  0.1158 -0.0771 -0.1599
11768W        W28029  16.499   2.981  11.677 -0.1142 -0.2459 -0.3999
11769W        W28030  14.332   6.754   4.501  0.0527 -0.1801 -0.2770
11770W        W28031  15.308  14.044  14.554  0.1698  0.1808  0.3548
11771W        W28032   8.300  14.039   5.236 -0.0146 -0.0096  0.0302
11772W        W28033   0.413   9.446  14.570 -0.0436  0.1204  0.1502
11773W        W28034   7.410  10.599  12.974  0.0744  0.2242 -0.1951
11774W        W28035  13.147  13.502   2.170 -0.4806  0.0372 -0.2977
11775W        W28036   1.186  17.088   5.008 -0.1473 -0.2726  0.1441
11776W        W28037  17.546   8.436  16.164 -0.0457  0.0369 -0.3510
11777W        W28038  17.139  17.673   2.195 -0.1496  0.2472  0.0681
11778W        W28039  11.481   9.351   0.464  0.0168  0.1698 -0.1331
11779W        W28040  11.418   1.839  13.023 -0.2488  0.1570  0.4154
11780W        W28041  18.470   7.862   4.223  0.2455  0.1454  0.0176
11781W        W28042   6.909  10.194   0.673 -0.1098 -0.3153  0.1996
11782W        W28043  14.628   3.121  12.863 -0.0393  0.3703 -0.0293
11783W        W28044   9.930  15.139  13.665 -0.3103 -0.2243 -0.0875
11784W        W28045   6.150   5.260   3.647  0.1006  0.0820  0.1543
11785W        W28046   3.888   0.587  15.134 -0.0066 -0.0734 -0.1076
11786W        W28047  10.968   3.137  12.908 -0.0640  0.1614 -0.0279
11787W        W28048  12.573  17.168  14.928 -0.0864 -0.1350  0.3134
11788W        W28049  17.702   4.719  13.483 -0.3329  0.0530 -0.3115
11789W        W28050   0.416  11.864  11.533  0.2007 -0.2122  0.1656
11790W        W28051  16.027   8.195  12.891 -0.2235 -0.1581 -0.3098
11791W        W28052   4.613   4.012  12.527  0.0006 -0.3309 -0.3548
11792W        W28053   6.891   1.403   3.898 -0.0644  0.3136  0.0277
11793W        W28054  12.747   8.422  14.240  0.1645  0.0323  0.0822
11794W        W28055   8.768   9.475  12.082 -0.3155  0.2771 -0.0664
11795W        W28056   3.659  15.474  11.521 -0.1503  0.0546  0.2479
11796W        W28057   6.985   3.076   2.074 -0.1805 -0.3583  0.0722
11797W        W28058   0.983   9.333   2.276  0.0056  0.2788  0.2124
11798W        W28059   6.874   0.358  11.460 -0.2412 -0.0441 -0.3806
11799W        W28060  14.859  18.318  15.384  0.1742  0.1573  0.1389
11800W        W28061  15.567   6.016  15.985  0.2437  0.2296  0.2561
11801W        W28062   2.145   4.956  15.610 -0.1944  0.1752  0.2657
11802W        W28063   7.388  11.800  15.535 -0.3806  0.0221 -0.1612
11803W        W28064  11.365   8.575  13.670  0.2185  0.3280 -0.2649
11804W        W28065   9.839   2.118  11.429  0.2055  0.0248  0.0931
11805W        W28066   7.697   8.540  13.454 -0.2253 -0.0914  0.0650
11806W        W28067  12.802   3.319   3.002  0.1054  0.0648 -0.1977
11807W        W28068  13.108   6.269   3.887  0.1758 -0.0952  0.1363
11808W        W28069   1.877  10.469   0.325  0.0278  0.5223 -0.2209
11809W        W28070  10.412  12.365  13.228  0.0818  0.0916  0.2406
11810W        W28071  11.975  10.995  12.905  0.2151 -0.3255  0.0996
11811W        W28072   1.418   8.862   3.995  0.2694  0.0717 -0.0998
11812W        W28073   1.448   4.006   4.310  0.1723  0.2775  0.3043
11813W        W28074  10.283   5.515  14.526  0.0357  0.3047  0.1235
11814W        W28075   9.710   1.520  15.807 -0.1580  0.3112  0.1030
11815W        W28076   7.033   0.101   5.355  0.2920  0.2791 -0.1513
11816W        W28077  16.497   6.792  13.134 -0.1866 -0.0366  0.2607
11817W        W28078   4.057  15.606   2.268  0.1491 -0.1357  0.1208
11818W        W28079   2.463  15.929  12.954  0.1430  0.1227  0.0128
11819W        W28080  15.534  11.791   3.043 -0.1036 -0.1462 -0.1825
11820W        W28081   8.560   4.993   5.709  0.0929 -0.0451  0.2316
11821W        W28082   9.292   8.908   4.539 -0.2399 -0.2271 -0.1567
11822W        W28083  15.689   7.547  13.936  0.1857  0.1670  0.1897
11823W        W28084   3.213   0.815   0.147 -0.0289  0.1328  0.1737
11824W        W28085   6.303   4.808   1.185  0.0094  0.1349 -0.1522
11825W        W28086  17.118   6.180   3.591  0.2023 -0.4802  0.2643
11826W        W28087  11.024   4.386   3.245  0.1346 -0.0331 -0.3532
11827W        W28088   4.142   2.583  12.781  0.2083 -0.3119  0.1547
11828W        W28089  10.942   6.647  15.246  0.0591  0.1562  0.1100
11829W        W28090  11.610   0.997  13.492  0.1767  0.1310  0.0447
11830W        W28091   5.379  16.637   0.591 -0.0127 -0.1977 -0.0107
11831W        W28092  11.827   9.073   3.710 -0.1875  0.0903  0.0827
11832W        W28093  15.932   8.206   2.642  0.0613  0.2237  0.0396
11833W        W28094   6.864   7.464   2.344 -0.0278  0.0850 -0.2644
11834W        W28095   9.274  11.030   5.670 -0.0712  0.2139  0.2474
11835W        W28096  14.260   5.227   5.208  0.0942  0.2347  0.1066
11836W        W28097  14.187  13.235  10.934 -0.1042  0.0327 -0.1189
11837W        W28098   9.681  16.572  14.260 -0.4534 -0.0238  0.0621
11838W        W28099   4.227  15.101   5.725 -0.0401  0.1710  0.1397
11839W        W28100  11.864  13.618  11.302  0.0995  0.0844 -0.0698
11840W        W28101   3.424   8.590   4.257 -0.0997 -0.0511 -0.3656
11841W        W28102  15.580   8.279   4.817 -0.1411 -0.2669 -0.3110
11842W        W28103  13.208   8.280  12.434  0.4540  0.1426  0.0856
11843W        W28104   3.169  12.963  11.671  0.0796 -0.0454  0.1256
11844W        W28105   2.605  11.746   4.800  0.0834  0.6878 -0.1179
11845W        W28106  18.087  13.363  12.603  0.0835  0.1402  0.0074
11846W        W28107   0.778   6.016  13.708 -0.0608  0.0490 -0.2693
11847W        W28108   7.828   2.439   0.526  0.1839  0.0069  0.0320
11848W        W28109   4.873   7.142  15.309 -0.3007  0.1907  0.0178
11849W        W28110   1.383   1.948  14.050  0.0643  0.0520 -0.0823
11850W        W28111  16.144  16.040   3.567  0.1005  0.3836  0.0042
11851W        W28112   2.071   5.553   0.303  0.1731  0.0721  0.3051
11852W        W28113  14.546  16.014   2.862  0.0119 -0.3924 -0.1277
11853W        W28114   5.335  12.609  15.359  0.1094 -0.2826 -0.0235
11854W        W28115   2.660  13.999  13.081 -0.1172  0.0245 -0.2861
11855W        W28116  16.268  18.010  12.243  0.0458  0.0308  0.2379
11856W        W28117  17.911   0.878   4.396 -0.0696 -0.2355  0.2228
11857W        W28118   8.755   8.140  14.820  0.1859 -0.1118  0.1205
11858W        W28119   7.110   5.703  16.127  0.1313  0.0994  0.1215
11859W        W28120  11.951  11.958   1.251 -0.0948 -0.1242  0.2960
11860W        W28121   8.809   0.029   3.444  0.0116 -0.2974 -0.3551
11861W        W28122  11.412   8.623   2.757  0.3962 -0.0262  0.1520
11862W        W28123   0.237  15.297   2.147 -0.0307 -0.2753  0.1747
11863W        W28124   4.718  10.017  15.082  0.1714  0.5355 -0.0186
11864W        W28125   2.409  11.833   0.578  0.0240 -0.0670 -0.1236
11865W        W28126  14.368   1.682   3.639  0.0117  0.1303 -0.0767
11866W        W28127   9.718   2.751  12.880  0.0640  0.0414  0.1210
11867W        W28128   2.653   4.283   5.377 -0.3427  0.2105 -0.0388
11868W        W28129  18.274  11.833  12.728 -0.2018 -0.3377  0.0483
11869W        W28130  17.887   0.988  11.328  0.0965  0.1040  0.0123
11870W        W28131  15.199  10.831  13.240 -0.3255  0.1790  0.1652
11871W        W28132  15.982  12.902   0.647  0.0344  0.0950  0.4493
11872W        W28133  14.900  16.765  14.725  0.0095  0.1966  0.1467
11873W        W28134   3.080   9.810  12.204  0.0116 -0.0976 -0.1524
11874W        W28135   4.540   4.501   5.216 -0.2610  0.2224  0.1712
11875W        W28136  11.702   7.001   3.883  0.0961  0.2248  0.1919
11876W        W28137   4.466   6.489  13.740  0.1674 -0.0500 -0.1319
11877W        W28138   4.100  10.078   3.527  0.1494  0.1318 -0.0265
11878W        W28139  13.411   6.592  11.959  0.0311 -0.1103 -0.0139
11879W        W28140   1.607  17.048   4.659 -0.3555  0.0537 -0.0435
11880W        W28141  13.303   5.487  13.104 -0.2587  0.5116 -0.4226
11881W        W28142  14.012  12.241  14.360 -0.1569 -0.0434 -0.0486
11882W        W28143  14.476  16.806   4.499 -0.0888 -0.1114 -0.0009
11883W        W28144   5.406   1.641   5.558 -0.2752 -0.0395 -0.1679
11884W        W28145   7.828   5.716  14.041 -0.0911 -0.0012 -0.2089
11885W        W28146   7.331   8.029  14.059  0.1856  0.0241 -0.1677
11886W        W28147   5.065  15.591   6.349 -0.1401  0.0256  0.0834
11887W        W28148  14.366   2.417  14.354 -0.3276  0.3288 -0.3261
11888W        W28149   2.288  14.311  11.805  0.1475 -0.0433 -0.1402
11889W        W28150  11.771   8.218  13.768 -0.0809 -0.1045  0.1045
11890W        W28151  12.447  18.255  12.847  0.2336  0.2104  0.0118
11891W        W28152   4.895   4.274  15.043  0.4872 -0.1949  0.2414
11892W        W28153  18.418   6.231  16.038 -0.0132  0.0261  0.3595
11893W        W28154  16.684   4.874  15.034 -0.2589  0.0270 -0.0581
11894W        W28155  16.358  14.836  10.481  0.1250  0.1777 -0.2315
11895W        W28156   2.114  10.501  13.947  0.1495 -0.0168  0.3581
11896W        W28157  15.557  13.044  14.204  0.3705  0.1957  0.0862
11897W        W28158   7.786  14.516   0.450  0.0926 -0.2307  0.0530
11898W        W28159  11.633   1.414  14.345  0.0644  0.2263 -0.0884
11899W        W28160   1.511   4.380  15.412 -0.1132 -0.2865  0.2951
11900W        W28161  12.811   5.969  15.821  0.0081  0.0912 -0.0168
11901W        W28162   9.644  12.383   3.428  0.1914 -0.0673  0.3440
11902W        W28163   9.451  14.017  13.415 -0.0714  0.0686 -0.2473
11903W        W28164   3.480   3.799   4.090  0.1890  0.1646  0.1252
11904W        W28165  14.453   7.275   3.741  0.0617  0.3628 -0.1206
11905W        W28166   9.298   7.922   4.319  0.1427  0.0554 -0.0594
11906W        W28167  12.980   8.473   1.815  0.1030  0.1142  0.0475
11907W        W28168   3.975  11.627  15.487  0.1667  0.0265  0.1561
11908W        W28169   1.704  12.658   4.034 -0.0852 -0.2650  0.2657
11909W        W28170  13.160  13.603   3.783 -0.1077  0.2424 -0.2324
11910W        W28171   6.012   2.566   3.697 -0.0511  0.2248  0.1129
11911W        W28172  15.527   4.412   0.629 -0.2206 -0.0819  0.1454
11912W        W28173  13.460  11.165  12.712 -0.3904  0.1043 -0.1627
11913W        W28174  16.883   1.430  10.653  0.1053  0.0956  0.1950
11914W        W28175   5.046  13.896   1.131  0.1449  0.2630  0.0838
11915W        W28176   8.364   8.679   4.533 -0.0638 -0.0456 -0.0468
11916W        W28177   6.665  11.426   0.993  0.2142  0.1049  0.3067
11917W        W28178   5.211  18.484  14.421 -0.5606  0.1314  0.1523
11918W        W28179   5.669  16.791  13.640  0.0808 -0.0430  0.0760
11919W        W28180   6.605  12.872   0.862 -0.0418  0.1325  0.1393
11920W        W28181   0.447  13.674  11.242 -0.2876  0.0364 -0.0233
11921W        W28182  14.000   8.803   4.592 -0.0871  0.0374  0.1936
11922W        W28183   1.944  12.932   2.810  0.0498  0.4455 -0.1243
11923W        W28184   5.341   7.326   1.705  0.0367  0.3405  0.2343
11924W        W28185   0.799  12.143  13.957 -0.1995  0.1222 -0.1040
11925W        W28186   4.664  10.942   0.365  0.0344  0.2649 -0.2391
11926W        W28187  14.098   1.553   1.331 -0.0706  0.2993  0.0179
11927W        W28188  11.825  13.508  15.412 -0.0722  0.0721  0.1029
11928W        W28189  14.349   2.270  12.696  0.0818  0.0986  0.1317
11929W        W28190  12.844  12.871   0.730  0.2889 -0.0773 -0.1514
11930W        W28191   9.728   3.742  12.751 -0.1265  0.6237  0.0135
11931W        W28192   8.744   4.470  14.141  0.0341 -0.0054 -0.1688
11932W        W28193  15.774   1.406   0.604 -0.1855 -0.1990  0.2429
11933W        W28194   1.165  13.144  10.984  0.2014  0.4386  0.0002
11934W        W28195   4.617  17.223   1.681  0.1092  0.1689  0.3244
11935W        W28196   8.683   5.975  12.187  0.3273  0.3702 -0.1059
11936W        W28197   0.798   7.190   0.353  0.0319 -0.3385  0.0388
11937W        W28198  12.937   5.351   1.388  0.1152  0.1399 -0.1521
11938W        W28199  17.422  16.071   3.942 -0.0252 -0.1010 -0.1796
11939W        W28200   9.743   6.491  15.905 -0.0391  0.2170 -0.0920
11940W        W28201  15.163  14.951   0.735  0.0907  0.2751  0.1971
11941W        W28202  15.328  14.919   3.738 -0.1988  0.2256 -0.1394
11942W        W28203  15.734  14.313  12.161 -0.1536 -0.2132  0.0097
11943W        W28204   4.195  11.971   5.645 -0.0941  0.0832  0.1595
11944W        W28205   1.145   6.515  15.586 -0.2164  0.2688  0.1086
11945W        W28206  12.428  17.681   1.646  0.1851  0.0570 -0.0412
11946W        W28207   8.207   9.261   3.047 -0.0186 -0.1113 -0.2371
11947W        W28208  17.624  10.641   3.931  0.2138 -0.1571 -0.0537
11948W        W28209  14.377  11.251   5.275  0.0935  0.1446  0.0769
11949W        W28210   3.667   6.859  11.224  0.0374 -0.0628  0.0067
11950W        W28211  16.860   6.389  11.898 -0.1378 -0.0436  0.0631
11951W        W28212  16.122   7.321   1.898  0.2465  0.3542 -0.1069
11952W        W28213   9.879  16.421  11.781  0.0264 -0.1302  0.1074
11953W        W28214   3.977  16.191  12.579  0.1737 -0.2904 -0.1096
11954W        W28215   4.652   4.522   4.627 -0.1264  0.0316 -0.0109
11955W        W28216  16.366  15.787  11.498  0.2853  0.3909 -0.3304
11956W        W28217  16.613  15.280  13.251 -0.2649 -0.0115  0.0478
11957W        W28218  13.997   1.226   0.128 -0.2689 -0.1896  0.0853
11958W        W28219   3.429   4.419   1.416 -0.0774  0.1403 -0.1685
11959W        W28220   8.269  12.694   4.571  0.1252  0.0473  0.3622
11960W        W28221   0.940  13.707   5.366  0.1381 -0.0759  0.0189
11961W        W28222   1.697   6.223   2.720 -0.3071  0.0910  0.3406
11962W        W28223  14.277   0.882  12.058 -0.2609 -0.4386 -0.1855
11963W        W28224   1.602   6.038  12.038 -0.0743  0.0065 -0.1154
11964W        W28225   0.480  17.902   2.220  0.0880 -0.1025 -0.0924
11965W        W28226   0.808  15.973  15.220 -0.1233  0.1381  0.0179
11966W        W28227   5.275  11.181  15.929  0.0359 -0.0232 -0.2062
11967W        W28228   7.681  11.271  15.418  0.2275  0.1353 -0.1096
11968W        W28229   5.577   0.249  14.093  0.2013  0.0310  0.0600
11969W        W28230  15.848   9.716  11.378 -0.0756 -0.0812 -0.3255
11970W        W28231  15.141   9.525  15.678 -0.0272  0.0099  0.2173
11971W        W28232  10.410  17.106   1.206 -0.0541  0.0719 -0.1121
11972W        W28233   3.545  18.078   1.241  0.1827  0.3026  0.2050
11973W        W28234   8.599   8.904   5.835 -0.1605  0.1035 -0.1989
11974W        W28235  16.974  16.707  11.609 -0.2066 -0.0332  0.0997
11975W        W28236  17.719   3.054   4.803 -0.0787 -0.0871  0.1150
11976W        W28237   8.507   1.902  15.912 -0.5578 -0.5323 -0.1049
11977W        W28238  17.707   9.601  12.090  0.0509 -0.1043  0.0596
11978W        W28239  10.801  10.615   4.227 -0.1589  0.0477 -0.2033
11979W        W28240  16.357  13.430  13.556 -0.1420  0.1711 -0.1457
11980W        W28241  12.695   7.200  14.348 -0.1802 -0.1841  0.0069
11981W        W28242   0.280   9.498  15.117 -0.2199 -0.0147  0.1740
11982W        W28243  12.156  14.182  11.368  0.0374 -0.2193  0.0716
11983W        W28244  16.114  10.624  11.524  0.1588 -0.1251  0.1774
11984W        W28245   9.798   9.018   4.839 -0.2428  0.1809  0.0189
11985W        W28246  11.617   7.865   3.533 -0.0285 -0.3226  0.0482
11986W        W28247   0.134   5.115  11.382 -0.2685  0.1374  0.1350
11987W        W28248   2.929  17.587  12.171  0.3768  0.1923 -0.0016
11988W        W28249   8.768  11.695  12.284 -0.2029  0.0199 -0.0463
11989W        W28250   4.037  17.116   4.470 -0.3608  0.2604 -0.1323
11990W        W28251   2.950  16.236  12.294 -0.0453 -0.1679 -0.3186
11991W        W28252  16.933  17.784  15.050 -0.1574 -0.2319 -0.1268
11992W        W28253   6.796  12.387  12.260 -0.1343 -0.2978  0.2201
11993W        W28254  16.186   1.428   0.244  0.2274 -0.1230  0.0214
11994W        W28255  17.472  12.310   5.302 -0.3415 -0.2051  0.2402
11995W        W28256  10.783  12.579   3.490  0.3494 -0.3603  0.3819
11996W        W28257   4.687  17.082  15.817  0.3501 -0.0274  0.0426
11997W        W28258  11.987  14.831  15.268 -0.0342  0.1530 -0.3598
11998W        W28259   6.782   4.367   0.518  0.0643 -0.3682 -0.1280
11999W        W28260  18.101  17.628   0.118  0.1484 -0.3200 -0.3082
12000W        W28261   2.626   7.348   4.547 -0.1857  0.0762  0.2735
12001W        W28262  15.817  15.027  11.651 -0.0036 -0.0711  0.1286
12002W        W28263   0.584   8.350  13.843 -0.0727 -0.1773  0.0023
12003W        W28264  13.259   1.866  14.822  0.1922 -0.1825 -0.1571
12004W        W28265   9.932  10.303   2.491  0.1569 -0.1755 -0.3863
12005W        W28266  17.570  16.091   2.902 -0.0316  0.1858 -0.1359
12006W        W28267   1.305   4.810   3.859 -0.2133 -0.1039  0.1299
12007W        W28268   8.648   8.097   4.934  0.1977 -0.0963  0.2072
12008W        W28269  11.570   8.432  12.756 -0.0100 -0.2920  0.0525
12009W        W28270  13.106   4.379   4.144 -0.0943 -0.1255 -0.0451
12010W        W28271  15.674   4.281  12.604  0.1079 -0.0320  0.1061
12011W        W28272   9.367   3.275   3.169  0.0353  0.1738  0.0015
12012W        W28273   2.345  16.540   0.151 -0.0079 -0.0601 -0.0687
12013W        W28274   1.583   8.202  13.217  0.2861 -0.0246  0.1839
12014W        W28275  11.859   6.741  15.353  0.2810  0.1769  0.2948
12015W        W28276  18.430  12.157  14.044  0.0006 -0.0711  0.2914
12016W        W28277  12.665   1.758   1.196 -0.2389  0.1834  0.2503
12017W        W28278  11.095  18.192   4.233  0.0779 -0.1204 -0.0471
12018W        W28279   5.843   7.666   5.775  0.0682 -0.1421  0.2369
12019W        W28280  16.510  14.427   2.354 -0.1308 -0.3777  0.1740
12020W        W28281  10.437   1.881   1.816 -0.4367  0.1375  0.1418
12021W        W28282   0.737   6.883   2.620 -0.2436  0.0007  0.1150
12022W        W28283  17.902   1.765   0.778 -0.2741  0.1079  0.2882
12023W        W28284  16.119   9.063   2.264  0.1753  0.0393  0.0198
12024W        W28285  13.025  14.388   5.463 -0.0393 -0.1179  0.0727
12025W        W28286   8.430  16.694  15.756  0.1345  0.0600 -0.0670
12026W        W28287   8.682   8.719   0.552  0.1070 -0.2586  0.1066
12027W        W28288   8.279  16.894   1.830  0.0965  0.0017 -0.1242
12028W        W28289   3.551   2.028  14.838  0.2341  0.1573  0.3578
12029W        W28290   4.158  12.526   1.052 -0.0930  0.0742 -0.1986
12030W        W28291   2.501  11.268  12.212  0.0289  0.0300 -0.2114
12031W        W28292   8.622   6.413  11.967 -0.0267 -0.1471 -0.0165
12032W        W28293  12.777  13.131  15.302 -0.1395  0.0484 -0.0094
12033W        W28294  12.596  13.388   2.075 -0.0505  0.1340 -0.0746
12034W        W28295  17.409   8.457   2.924 -0.0778 -0.1732 -0.0929
12035W        W28296   6.607  14.588   2.589  0.0125 -0.2475  0.1676
12036W        W28297   4.544   6.343   5.720 -0.0132  0.3553 -0.0435
12037W        W28298  10.108   0.077   3.002  0.1845  0.1974  0.1855
12038W        W28299  15.039  13.154  12.158 -0.0075  0.1416 -0.2166
12039W        W28300  11.172   2.064  16.131  0.1014  0.0228  0.0205
12040W        W28301   2.689   2.299   1.651  0.1299 -0.2393 -0.0910
12041W        W28302  14.938  10.244  11.425 -0.1773  0.1729 -0.2613
12042W        W28303   5.359   1.398   1.443  0.3444  0.0404  0.0193
12043W        W28304  12.856   0.965  12.139  0.5374  0.0663  0.1895
12044W        W28305  12.343   0.750   3.948 -0.1520 -0.0600 -0.1906
12045W        W28306  17.013   1.703  10.083  0.0163 -0.7549 -0.0495
12046W        W28307   4.528  12.831   0.383  0.1810 -0.1056 -0.3105
12047W        W28308  14.034   5.483  12.994  0.1845  0.1023  0.2245
12048W        W28309   1.777   0.064  14.679 -0.2601 -0.3612  0.0641
12049W        W28310   0.442   3.073  13.887  0.1480  0.0842  0.1070
12050W        W28311   0.245  11.063  13.974  0.2535 -0.1367  0.1300
12051W        W28312  17.500  10.865   2.269 -0.1631  0.4104  0.0286
12052W        W28313   9.557   1.174  11.987  0.2840 -0.0657  0.0117
12053W        W28314  18.348   0.646  15.140 -0.1717 -0.0638  0.3094
12054W        W28315  10.628   1.314  13.192  0.1760 -0.2770 -0.1152
12055W        W28316   2.930   2.703   2.559 -0.4874  0.0301 -0.0319
12056W        W28317  14.358   0.869   0.872 -0.1197  0.1161 -0.0190
12057W        W28318   8.996  15.708   1.568 -0.1080  0.2942  0.3762
12058W        W28319  12.479   5.588   3.804  0.2748 -0.2020 -0.0937
12059W        W28320   8.963   1.360  14.153 -0.0314  0.1649 -0.0719
12060W        W28321  11.880  13.939   2.468 -0.0523  0.2747  0.0473
12061W        W28322   0.733  18.406  11.666 -0.0463 -0.0499 -0.0783
12062W        W28323   8.709  14.797  11.565  0.0600  0.2298  0.0649
12063W        W28324   1.068   4.335  14.308 -0.1097 -0.1533 -0.0017
12064W        W28325   7.432  15.106   2.247  0.0480  0.4337 -0.4130
12065W        W28326   4.832   0.569  14.852 -0.1465  0.0127  0.0112
12066W        W28327  11.417   5.222  14.690  0.2301  0.2948  0.1144
12067W        W28328  15.062   5.757  15.179 -0.0411 -0.1862  0.2459
12068W        W28329  13.374   5.056  11.923  0.0096 -0.2563  0.0449
12069W        W28330   1.283   8.594  11.033  0.1454  0.3022 -0.0159
12070W        W28331   2.802   0.742   6.171  0.0970 -0.0651 -0.0744
12071W        W28332   3.246   4.805  16.115  0.5556 -0.1818  0.0628
12072W        W28333  10.403  10.145   5.302  0.3179  0.0414  0.0288
12073W        W28334  12.628  16.781  15.743 -0.0231  0.0345  0.1914
12074W        W28335   2.830  10.267  13.405  0.0958 -0.1698 -0.0987
12075W        W28336   4.692   6.929   1.184  0.2407 -0.0474  0.0853
12076W        W28337   0.279   3.226   2.404  0.0142 -0.0919 -0.1922
12077W        W28338   1.660   7.681   2.994  0.3672  0.1458  0.1002
12078W        W28339  13.620  18.179   3.652  0.2402  0.0156 -0.2008
12079W        W28340  15.123   2.596  11.616  0.1428 -0.1953  0.2826
12080W        W28341  11.697  16.036   1.196 -0.0865 -0.0327  0.1059
12081W        W28342  15.598   5.365  16.039  0.5316  0.0728 -0.0106
12082W        W28343   2.373  11.752   2.649 -0.1258 -0.1494 -0.1497
12083W        W28344  17.888   1.880   5.158 -0.2401 -0.3124 -0.0294
12084W        W28345   1.106  16.307  14.558 -0.0046  0.0326  0.2069
12085W        W28346   2.611   8.040  15.260  0.1382  0.1539  0.1420
12086W        W28347  16.745   0.454   0.925  0.0099 -0.1139 -0.2000
12087W        W28348  11.368   5.904   3.558 -0.0857  0.1977  0.0361
12088W        W28349  14.527  15.247   3.553  0.3862  0.3062  0.1148
12089W        W28350   5.854   1.493   1.120  0.0896 -0.0915 -0.1743
12090W        W28351  14.161  17.920   1.592  0.2239 -0.2550 -0.1501
12091W        W28352   9.946   4.176   0.041 -0.0828 -0.0050  0.2381
12092W        W28353   6.531  10.562   1.288 -0.2937 -0.2415 -0.1916
12093W        W28354   6.825   9.359   1.133  0.0288  0.0682  0.0500
12094W        W28355  13.197   4.822   3.884 -0.4127  0.3503  0.0092
12095W        W28356   3.587  13.695   4.361 -0.0480 -0.1535  0.0851
12096W        W28357  10.620  18.398   0.635  0.1194 -0.1711  0.0358
12097W        W28358  15.886  14.649  10.382  0.1302 -0.3239  0.2019
12098W        W28359  13.245  18.126  15.364 -0.2203 -0.1213 -0.0330
12099W        W28360  10.251   2.502   4.353 -0.1877  0.1821 -0.0678
12100W        W28361   3.259  16.663   5.505  0.2757  0.1193  0.0988
12101W        W28362   9.684   6.087   4.755  0.3426 -0.2122  0.1359
12102W        W28363  11.363   0.498   2.323 -0.3045  0.3399 -0.0555
12103W        W28364   3.424  11.237  12.796 -0.2128 -0.0677  0.4662
12104W        W28365  18.171   2.875   0.728 -0.0477 -0.2079  0.1301
12105W        W28366   9.719   2.822   1.881 -0.4968 -0.0764  0.3073
12106W        W28367  11.496  14.816   1.310  0.7330 -0.1611 -0.1967
12107W        W28368  17.694  18.387  13.626  0.2557  0.3381 -0.3411
12108W        W28369   4.400  10.139   6.380 -0.1117  0.0759 -0.1096
12109W        W28370  17.455   1.310   0.176 -0.1027  0.1563 -0.0841
12110W        W28371  15.727  10.425  13.930  0.0441  0.1193  0.1231
12111W        W28372   6.440   8.743   0.282  0.4083 -0.0839  0.1132
12112W        W28373   1.061  12.982  11.952  0.0311  0.1474 -0.1230
12113W        W28374  14.327   8.014  12.087  0.0233  0.0894  0.1706
12114W        W28375   8.157   6.597   6.786  0.2543  0.2154  0.2541
12115W        W28376  14.327   9.537   0.706  0.1240  0.2450 -0.0349
12116W        W28377  18.012   1.732  15.857 -0.0193  0.1496 -0.1268
12117W        W28378   8.876   8.135   5.413  0.2998 -0.4514  0.1092
12118W        W28379  13.599  15.829  15.263 -0.0873 -0.0236 -0.3428
12119W        W28380  16.683  18.352   0.048 -0.1282  0.1303  0.0242
12120W        W28381   7.848   7.278  14.234 -0.1746  0.1066  0.0660
12121W        W28382   0.805  18.117  11.192 -0.0493 -0.1547 -0.3133
12122W        W28383   8.674   9.862   3.779 -0.2281  0.1111  0.0517
12123W        W28384   9.359  17.807  15.005  0.0597 -0.0145  0.0027
12124W        W28385   5.635   3.241  11.967  0.0381  0.1249 -0.1321
12125W        W28386  14.449  13.627  13.089 -0.3069  0.0403 -0.4508
12126W        W28387   4.514   4.036   0.872 -0.0056 -0.1068  0.1763
12127W        W28388   5.254   5.701  11.893  0.1224 -0.0471  0.2900
12128W        W28389   5.660  15.596  14.015 -0.0140  0.2548  0.2173
12129W        W28390   2.513   4.352   2.405 -0.3690 -0.0476  0.1738
12130W        W28391  11.639  13.184   2.752 -0.2434 -0.1175 -0.1351
12131W        W28392  16.838  17.058  15.713 -0.1972 -0.1187 -0.1555
12132W        W28393  11.578   4.801  14.346  0.2070  0.1663 -0.0832
12133W        W28394   3.448   1.026   3.817  0.0223  0.2849  0.0320
12134W        W28395  12.126  13.587  10.782 -0.1087 -0.3452  0.1442
12135W        W28396  18.224  13.091   2.854 -0.1829 -0.0691  0.0717
12136W        W28397  13.393   8.580   1.474  0.1554 -0.0598  0.3101
12137W        W28398  16.411  14.449  10.942 -0.0110 -0.1729 -0.1626
12138W        W28399  10.696   8.255   1.481  0.3878  0.1310 -0.2275
12139W        W28400   7.328   1.739  13.129 -0.3540 -0.3034  0.2549
12140W        W28401  14.890  16.942   0.007 -0.1010 -0.0393 -0.0090
12141W        W28402  11.733  12.837  14.115 -0.4992 -0.2102 -0.0195
12142W        W28403  11.581   9.240  14.971 -0.2670  0.2579 -0.1044
12143W        W28404  16.231  14.731   2.654 -0.1591 -0.1228 -0.4059
12144W        W28405  15.912   6.535   4.509 -0.0496 -0.1250 -0.0988
12145W        W28406  12.778  17.585  12.002 -0.4002  0.1924  0.2318
12146W        W28407   1.520   1.875   5.732  0.1920 -0.0507 -0.0474
12147W        W28408  16.956  10.240   1.870  0.2532  0.1926  0.0432
12148W        W28409  16.980   3.630   3.770 -0.0841 -0.0286  0.0923
12149W        W28410   8.918   1.474   4.101 -0.0475 -0.2881  0.2386
12150W        W28411  14.572  18.223   1.519  0.1542  0.0506  0.0044
12151W        W28412  12.887   2.539   0.777 -0.3187  0.2154  0.2507
12152W        W28413   6.109   2.869  14.650 -0.0661 -0.1443 -0.0771
12153W        W28414  11.306   6.634  11.964 -0.1188  0.2429 -0.1436
12154W        W28415  15.142  12.039  13.608 -0.3192  0.0714 -0.1844
12155W        W28416  16.686  17.790   4.369  0.0156 -0.2584 -0.4086
12156W        W28417  15.685  14.819  15.504  0.1345 -0.0981  0.1107
12157W        W28418   8.512  16.799   5.293  0.2954  0.1087 -0.2298
12158W        W28419   2.358   5.175  16.116 -0.0441  0.0693 -0.1584
12159W        W28420   5.797   4.902  14.574 -0.0218 -0.1073 -0.1369
12160W        W28421  15.175  12.599   3.185  0.1690  0.1261  0.2120
12161W        W28422   0.187   2.956  15.759  0.2044 -0.1964 -0.0526
12162W        W28423  17.698   0.801   0.211  0.1765  0.1744  0.0533
12163W        W28424  17.781   6.545   4.818  0.1398 -0.2796 -0.0318
12164W        W28425  18.171   7.439   5.632  0.1450  0.2862  0.2961
12165W        W28426  12.912  17.012  11.080 -0.0862 -0.1379 -0.1123
12166W        W28427   6.341  17.049  12.665 -0.3153  0.0865  0.0056
12167W        W28428   6.792   4.567   1.014  0.0324  0.5219  0.1139
12168W        W28429   7.583   4.962  15.440 -0.0143  0.1627  0.1244
12169W        W28430   6.827   7.268   1.415  0.3299 -0.1216  0.1217
12170W        W28431   3.746  16.735  16.080 -0.1539 -0.0192  0.1689
12171W        W28432  14.380  11.205  16.135  0.1898  0.1931 -0.0905
12172W        W28433  11.540   7.616   2.587  0.0523  0.3612  0.1488
12173W        W28434   2.506  11.735  14.200  0.0684 -0.2278 -0.1284
12174W        W28435   8.628   2.170  12.000  0.4643  0.1740 -0.0105
12175W        W28436   6.701  11.689  11.187 -0.2892 -0.0640 -0.0206
12176W        W28437   2.361   8.605  12.002 -0.0046 -0.0239  0.0261
12177W        W28438   5.681   6.041  15.231 -0.0180 -0.0586  0.1576
12178W        W28439  16.859   9.348  11.860 -0.1279  0.2815  0.3817
12179W        W28440   0.630   9.822   4.301  0.0915  0.3484 -0.2891
12180W        W28441  16.838   4.209   1.739  0.0515 -0.4255  0.2737
12181W        W28442  11.386   7.030   0.615 -0.1636  0.2004  0.0768
12182W        W28443   7.447   6.085   4.899  0.0378 -0.1931  0.1626
12183W        W28444   0.200   4.024   3.832  0.0250  0.1557 -0.2873
12184W        W28445  16.464  16.485  14.873  0.1808  0.0399  0.0422
12185W        W28446  14.412   4.532   2.310  0.1826 -0.0240  0.3353
12186W        W28447   3.423   7.881   4.222 -0.0437 -0.4330 -0.1962
12187W        W28448   9.536  10.943   3.862 -0.1938  0.1372  0.0319
12188W        W28449  14.894  11.284  11.472  0.0889  0.1709  0.2357
12189W        W28450   1.598   3.740  12.381  0.0752  0.0199 -0.4946
12190W        W28451   3.357   0.196   3.836 -0.0817  0.0112 -0.1196
12191W        W28452  12.366   7.588  14.390  0.2964  0.1128  0.0158
12192W        W28453  15.302   9.585  11.939  0.2168  0.1037  0.1393
12193W        W28454  14.947  17.715   3.705  0.0718 -0.2164  0.0863
12194W        W28455  18.000   8.556  11.823 -0.2110 -0.4172 -0.2322
12195W        W28456   6.573   6.722   4.063 -0.0250  0.3393  0.3152
12196W        W28457   7.771   9.069  12.579 -0.2551  0.1132 -0.0544
12197W        W28458   7.521  10.239  14.640 -0.0711  0.0853 -0.2151
12198W        W28459   6.531  10.018  11.427 -0.0859 -0.1782  0.0171
12199W        W28460   7.586  14.552   4.732 -0.0793 -0.0293 -0.2445
12200W        W28461   2.867   9.450   4.363  0.2077  0.2793 -0.1120
12201W        W28462   7.276  11.019   2.542  0.0669  0.0045  0.2467
12202W        W28463   7.464  11.596   0.234  0.1240  0.1059  0.1755
12203W        W28464  10.437   8.212  12.552 -0.1633  0.0227  0.2512
12204W        W28465  12.913   2.358  15.459  0.1631 -0.1013  0.1095
12205W        W28466  12.016   8.920  10.703  0.0717  0.1229 -0.3259
12206W        W28467  11.227  11.257   4.851  0.0992 -0.1567 -0.3557
12207W        W28468   4.529   1.562   2.019 -0.2289 -0.1376  0.3556
12208W        W28469   9.951   7.762   2.692 -0.0311  0.1348  0.1330
12209W        W28470  15.996  15.295   2.202 -0.2131 -0.0718  0.0054
12210W        W28471  11.259  16.582  13.213 -0.0417  0.0256  0.0809
12211W        W28472   1.969   8.027   4.827  0.1503  0.1310 -0.2047
12212W        W28473   8.175   4.823  15.949  0.3635 -0.3975  0.2699
12213W        W28474   6.155   5.011   0.683 -0.2955  0.0905 -0.1065
12214W        W28475  17.020   3.528  11.297  0.0913 -0.1836  0.0548
12215W        W28476  13.754   5.425  15.614 -0.1251 -0.1590 -0.2071
12216W        W28477  11.106   9.682   4.274  0.2894 -0.2279 -0.1195
12217W        W28478  17.134   1.683  14.567  0.0813 -0.0998  0.1143
12218W        W28479  17.226   1.150   4.312 -0.1060 -0.2816  0.0412
12219W        W28480  11.696   5.380   6.063  0.1684 -0.0524  0.3475
12220W        W28481   5.495  15.394  11.255 -0.2510  0.3463  0.1054
12221W        W28482   1.979  15.392   4.664  0.0154 -0.3170 -0.2293
12222W        W28483  10.678   8.870   6.074 -0.0419  0.3051  0.2059
12223W        W28484   8.872  10.613   1.536 -0.3525 -0.2232 -0.2727
12224W        W28485  16.391   6.042   1.416 -0.1294 -0.3643  0.4142
12225W        W28486   1.414  14.450  16.179  0.1223 -0.2916 -0.0162
12226W        W28487  12.102   7.750  13.956 -0.0811 -0.2115 -0.1682
12227W        W28488   4.414  10.239  13.355 -0.0808 -0.1509  0.2059
12228W        W28489  18.080  17.408   1.066  0.1558  0.0426 -0.2330
12229W        W28490   4.001   5.580  11.806  0.1457  0.2390  0.1365
12230W        W28491   9.569   9.165   5.963 -0.5525  0.3991 -0.0212
12231W        W28492   7.080  12.638   0.701 -0.0050  0.0095  0.0985
12232W        W28493  12.462  17.332   3.633 -0.0863 -0.0164  0.4022
12233W        W28494  17.306  17.676   1.708  0.0546  0.2474 -0.0036
12234W        W28495   5.695  15.220  12.571  0.0301  0.0381 -0.0388
12235W        W28496  11.073  11.485  15.694 -0.2134  0.1519 -0.1440
12236W        W28497  13.789  12.237   1.850 -0.1487  0.1267 -0.0389
12237W        W28498  15.363  12.222   2.875 -0.4220  0.1657  0.0317
12238W        W28499  10.911   6.855  12.347  0.1299  0.0724  0.0007
12239W        W28500   9.414  13.717  12.801 -0.1178  0.1611 -0.1552
12240W        W28501  10.087   6.044  11.274 -0.2778 -0.2882 -0.3523
12241W        W28502   1.688   4.732   0.456  0.2719  0.0961  0.1752
12242W        W28503   3.110  17.665   4.314  0.0948 -0.2327  0.2580
12243W        W28504   9.366  11.492  12.138 -0.3340 -0.1678  0.2072
12244W        W28505  13.662   4.118  14.895  0.2423 -0.1372  0.0047
12245W        W28506   5.377   9.427  12.013  0.2248  0.2631 -0.1232
12246W        W28507  12.057   5.780  15.831  0.3640  0.3399  0.2702
12247W        W28508  17.209  17.220  13.767 -0.0412  0.0041 -0.3160
12248W        W28509  17.538   9.129  13.023 -0.0801 -0.0847 -0.1799
12249W        W28510   4.880  12.338  15.246 -0.2488  0.0470  0.2128
12250W        W28511   2.468   8.508   2.103  0.0998 -0.1914 -0.0695
12251W        W28512   9.467   2.921   4.749 -0.1035  0.0673  0.1284
12252W        W28513  15.232   9.927  14.364 -0.1310  0.1536  0.2942
12253W        W28514  10.765  11.038   6.205  0.0894 -0.2829  0.0577
12254W        W28515  14.855  17.023   4.002  0.3765 -0.0788 -0.2111
12255W        W28516   1.446   9.989  14.543  0.3521  0.3293  0.0669
12256W        W28517  13.768  13.294  10.490 -0.0494 -0.4919 -0.2130
12257W        W28518   9.726   0.874   1.410  0.0220  0.2439 -0.2827
12258W        W28519   9.686   4.748   2.463  0.2731 -0.0604 -0.1500
12259W        W28520   8.463   2.220  15.343 -0.4466 -0.0536  0.0942
12260W        W28521  14.513  16.495   4.072  0.2815  0.1873 -0.1111
12261W        W28522   5.571  14.117  13.140 -0.1374 -0.2542  0.0116
12262W        W28523   3.309  14.137   5.111  0.3944  0.1479  0.0672
12263W        W28524   9.878   2.218   4.209 -0.1563 -0.1573 -0.2201
12264W        W28525   4.147   8.816  12.018  0.1168 -0.2223  0.0096
12265W        W28526  15.533  13.015   3.945  0.1392 -0.2140 -0.2728
12266W        W28527   7.836  11.254   3.042 -0.2625 -0.5129 -0.1183
12267W        W28528   5.863   9.456  13.647 -0.0519  0.0893  0.0455
12268W        W28529  13.531  12.022  14.080 -0.1717  0.2897 -0.0129
12269W        W28530  11.206  13.719   3.557 -0.1882 -0.3071 -0.2682
12270W        W28531   4.034   3.336  12.092  0.2206 -0.0266 -0.1131
12271W        W28532  13.761  10.967  11.734  0.2060  0.2290 -0.4678
12272W        W28533  15.959  15.885   2.217 -0.1667 -0.1024 -0.0891
12273W        W28534   2.550  16.317   5.379 -0.0015  0.2100  0.3387
12274W        W28535   5.913   9.932   1.522 -0.2054 -0.0301 -0.1133
12275W        W28536   6.613  13.147  12.372  0.0148  0.3097 -0.1377
12276W        W28537  15.275  10.932   4.304  0.1640  0.0487 -0.1978
12277W        W28538   9.104   6.637  15.190 -0.0109 -0.0768  0.0451
12278W        W28539  18.404   8.545  15.983 -0.0026 -0.0865 -0.4940
12279W        W28540  15.363  12.086   2.151  0.1237 -0.0043 -0.1302
12280W        W28541   6.890  17.629   0.392  0.3571 -0.0700  0.0379
12281W        W28542   1.576   7.887   1.312  0.0489 -0.2230  0.1013
12282W        W28543   6.685   4.766   4.885  0.0768 -0.0031 -0.3636
12283W        W28544  17.561   5.399  14.078 -0.1574 -0.1400 -0.1527
12284W        W28545   5.503   0.094   1.451  0.1932 -0.0794 -0.1913
12285W        W28546   5.497  14.396   5.877  0.3912  0.1258 -0.1037
12286W        W28547   0.827   2.470  13.562  0.0928  0.0840  0.0638
12287W        W28548   9.071   3.051   3.500 -0.0688  0.0328 -0.1534
12288W        W28549   7.913   0.469  15.501  0.1059 -0.0435 -0.3501
12289W        W28550   6.845   3.949   5.367  0.0812 -0.0282 -0.2238
12290W        W28551  16.736  18.113  12.565  0.1680  0.0573  0.0465
12291W        W28552   7.668   7.131   4.879  0.0660  0.1422 -0.2190
12292W        W28553   5.440   6.409  12.389 -0.2043  0.2122 -0.1752
12293W        W28554  10.326   7.974   0.727  0.0095  0.1714 -0.1474
12294W        W28555   9.589  16.164   3.202  0.0240 -0.0251 -0.0350
12295W        W28556   5.672   3.152  14.795 -0.0693  0.0728  0.0542
12296W        W28557  17.075   1.172   1.931 -0.4563  0.2064  0.2460
12297W        W28558   4.875  12.084  13.712 -0.3334 -0.4903  0.2536
12298W        W28559   3.623  15.371   2.710  0.2389 -0.0289 -0.4081
12299W        W28560  13.770   5.889  15.906 -0.2365 -0.0287  0.1412
12300W        W28561  16.654   2.151   0.092  0.0318 -0.0210  0.0192
12301W        W28562  15.116   8.369  16.000 -0.0314 -0.0403 -0.0658
12302W        W28563   1.491  16.152   0.144  0.0882 -0.1179 -0.2557
12303W        W28564   1.753  16.354  12.165  0.1831  0.0002  0.2588
12304W        W28565  15.174  13.946  13.375  0.0583 -0.3274  0.1018
12305W        W28566   2.713  16.211   0.465  0.2360  0.0121  0.1569
12306W        W28567  10.977  13.196  13.606  0.2015 -0.0271  0.2080
12307W        W28568  18.038  15.228   3.629 -0.0518  0.0507  0.1496
12308W        W28569   4.632   0.120   3.679  0.0826 -0.0822  0.1504
12309W        W28570   3.713  13.586  14.237 -0.3523 -0.0071 -0.0902
12310W        W28571   9.497  13.933   0.839 -0.0360 -0.0828  0.0866
12311W        W28572   5.454  12.763   1.986  0.4120 -0.0998  0.1114
12312W        W28573  15.208  15.325  12.281  0.0324  0.0474  0.1866
12313W        W28574   2.548  15.005   0.592 -0.2723 -0.0772 -0.0908
12314W        W28575   0.291  11.057   0.924  0.1257 -0.1790  0.0491
12315W        W28576  15.244   5.828  12.491 -0.0035 -0.0076 -0.0753
12316W        W28577  13.790   9.214   3.842  0.1749 -0.1772  0.0022
12317W        W28578   3.306   8.117   2.719 -0.0542 -0.1788 -0.1757
12318W        W28579   5.711   2.939   2.476  0.0481 -0.1528 -0.0716
12319W        W28580   6.777   7.898  14.483  0.0639 -0.3882 -0.1322
12320W        W28581   4.363  11.799  14.236 -0.0661 -0.0605  0.2124
12321W        W28582  15.768  17.464  13.932 -0.0095 -0.1846 -0.0987
12322W        W28583   2.096   6.309  12.049 -0.1803 -0.0343 -0.0676
12323W        W28584   1.249  17.884  11.372  0.0418 -0.2376  0.0214
12324W        W28585  14.712  14.546  10.938  0.1217  0.0327 -0.0722
12325W        W28586   9.369  15.836   2.325  0.1293 -0.0062  0.0666
12326W        W28587  16.539  15.199   1.025  0.5190 -0.1697 -0.1117
12327W        W28588   8.890   4.518  13.500  0.0339  0.1096  0.2098
12328W        W28589   2.915   7.840  12.715 -0.1036 -0.1760  0.1855
12329W        W28590  14.872   4.382   3.183  0.2253  0.0761 -0.0270
12330W        W28591   6.108  14.437   3.403 -0.1065 -0.0075  0.3706
12331W        W28592   7.780  13.915   5.349  0.3350  0.1210  0.0914
12332W        W28593  17.241   2.976  15.481  0.0040  0.3304  0.1680
12333W        W28594   7.381  11.665   2.302 -0.1711  0.0119 -0.1267
12334W        W28595  16.161  11.168   5.144  0.1546  0.1049  0.0825
12335W        W28596  17.016   7.788  10.796  0.2319 -0.1949  0.1079
12336W        W28597   8.201  11.761  13.690  0.4008 -0.0588  0.0654
12337W        W28598   2.775  11.825   5.301 -0.1074 -0.2658  0.0901
12338W        W28599  17.188  17.682  13.952  0.0259 -0.0332  0.0066
12339W        W28600   7.004   1.565   5.989  0.4123 -0.0124  0.1515
12340W        W28601   0.205  13.412   5.496 -0.0730  0.1140 -0.0836
12341W        W28602  18.422   5.353   1.004  0.3524  0.1682  0.0282
12342W        W28603   9.317  12.739  14.504 -0.0923 -0.0064 -0.3009
12343W        W28604  12.001   7.561   3.417  0.1073  0.4507 -0.1953
12344W        W28605   9.421   7.294  13.655 -0.0757 -0.2981 -0.1876
12345W        W28606   6.882   6.234  11.637 -0.0988  0.0818  0.0080
12346W        W28607   5.567  10.506   3.976  0.0646 -0.2592  0.0376
12347W        W28608   9.412  14.772   4.947 -0.1669  0.1898 -0.2504
12348W        W28609   9.925  14.459   3.996  0.0071  0.0227 -0.1230
12349W        W28610   6.063   7.316  13.262 -0.2097 -0.1243  0.0377
12350W        W28611   8.987  16.193   1.671 -0.0044 -0.3145 -0.2521
12351W        W28612  10.898  16.581   1.990  0.0878 -0.0079  0.0430
12352W        W28613   6.166  12.059   0.505  0.2280 -0.0818 -0.0223
12353W        W28614  14.663   0.834  11.248 -0.0149 -0.1286 -0.3574
12354W        W28615   3.902   3.150   5.411  0.0493 -0.3026  0.1769
12355W        W28616  14.705   4.739  12.944  0.0633  0.0553  0.0078
12356W        W28617  10.336  17.076   4.073  0.3265  0.2487 -0.1706
12357W        W28618  14.436   1.500   4.085  0.1584  0.0360 -0.3123
12358W        W28619   5.798  17.221  15.654 -0.0570 -0.1103  0.0765
12359W        W28620   2.155   6.528  14.253 -0.1148 -0.1995  0.0123
12360W        W28621   1.777   0.352   2.941 -0.0493  0.1164 -0.0134
12361W        W28622  10.649   3.754   0.373  0.1144  0.0870  0.2795
12362W        W28623   7.415  10.774   3.795  0.0415 -0.0677  0.0679
12363W        W28624   0.915  14.583   4.821 -0.0311  0.3119 -0.0178
12364W        W28625  13.452   6.205  14.214  0.3664 -0.2573 -0.0596
12365W        W28626  15.351  18.148  15.615 -0.0007 -0.2319  0.2595
12366W        W28627  16.815  17.254   3.719  0.0131  0.0901 -0.1593
12367W        W28628  15.777   6.024  11.225 -0.1472  0.0292 -0.1579
12368W        W28629   7.011   9.784  11.706  0.0666 -0.0759 -0.1216
12369W        W28630   0.776   6.886  14.618  0.2576  0.0891 -0.2222
12370W        W28631  17.649  18.367  12.806  0.1828  0.0386 -0.2487
12371W        W28632   6.717  10.204  14.771  0.0258  0.4466 -0.2117
12372W        W28633   7.622   9.776   1.371  0.0290  0.2702 -0.1921
12373W        W28634   2.405  11.897  13.740  0.1030  0.0928  0.1588
12374W        W28635   1.313  14.559   1.042  0.3945 -0.0657 -0.3697
12375W        W28636   7.670   4.118   5.282  0.2011 -0.0862  0.2015
12376W        W28637   7.717   5.438  15.591  0.2251  0.2920  0.1441
12377W        W28638  14.272  17.591  15.152  0.0237 -0.0516  0.1849
12378W        W28639   3.738   7.473   5.170 -0.1168  0.0001  0.2291
12379W        W28640  15.469  12.444   3.945 -0.0093 -0.1154 -0.2432
12380W        W28641  17.640  17.178   4.691 -0.0131 -0.1789 -0.1101
12381W        W28642  18.232  12.687   4.931  0.0925  0.1175 -0.1909
12382W        W28643  11.385   1.383   0.149  0.0875  0.1114  0.0931
12383W        W28644  14.407   4.125   1.047  0.4417  0.3314  0.0474
12384W        W28645   8.839   5.865   1.346  0.1388 -0.0363  0.0913
12385W        W28646   2.559  13.588   0.314  0.1936  0.1652 -0.0115
12386W        W28647  17.265  12.700   4.267  0.0788 -0.2974 -0.1179
12387W        W28648   6.956  18.324  14.912  0.0034 -0.1130 -0.3906
12388W        W28649  10.070   6.201   4.342  0.0680 -0.2146 -0.0702
12389W        W28650  10.040  10.468  13.703 -0.1647  0.1876 -0.3982
12390W        W28651   9.843  15.280   5.497  0.0247  0.0608 -0.0519
12391W        W28652   9.081  16.361  15.346 -0.3122  0.0129 -0.1429
12392W        W28653   7.576   8.353   5.744  0.1360 -0.4022  0.1513
12393W        W28654   0.635  16.664   1.743 -0.0648 -0.2633 -0.0846
12394W        W28655   4.963   9.270  12.272  0.2657  0.2800 -0.2989
12395W        W28656  13.751  13.616  13.075  0.1453 -0.0990  0.0058
12396W        W28657  12.284  16.790  15.239 -0.5597 -0.0798 -0.1310
12397W        W28658   0.546   7.520  11.823 -0.1618  0.3401  0.1122
12398W        W28659  16.453   5.172  13.773  0.0399  0.2499 -0.0352
12399W        W28660  14.702   3.465   0.549  0.1433 -0.0009  0.1122
12400W        W28661   3.580   6.033   5.269  0.0265 -0.1531  0.1169
12401W        W28662   5.423   9.680  10.779  0.0083  0.1591 -0.2646
12402W        W28663  14.286  15.527  10.988 -0.1817 -0.4308 -0.0254
12403W        W28664  12.662  14.431  15.080  0.0925  0.1249 -0.3769
12404W        W28665   2.412  14.013  15.564  0.0791  0.0406 -0.2117
12405W        W28666   7.476   4.428  15.293 -0.1622 -0.0385 -0.0170
12406W        W28667  13.542   4.330   4.406 -0.1156 -0.1702 -0.1723
12407W        W28668   3.840  16.532   0.814  0.2671 -0.0544 -0.1122
12408W        W28669   1.678  15.976   1.162 -0.1278  0.0362 -0.1757
12409W        W28670  12.638  17.762   2.721  0.1090  0.5711 -0.1245
12410W        W28671  13.659   0.784   1.427  0.1707  0.1385 -0.0050
12411W        W28672  10.269   6.014  14.619  0.0026 -0.0228 -0.2525
12412W        W28673  12.058  14.158  10.850  0.1086  0.1126 -0.0888
12413W        W28674   3.835   4.468  12.694  0.0292  0.2923  0.1231
12414W        W28675  10.612   1.133   1.161 -0.2816 -0.1967 -0.1987
12415W        W28676  14.765   5.717   3.137  0.1799 -0.1862 -0.1471
12416W        W28677   2.600   6.500   3.921 -0.0257 -0.3647 -0.1572
12417W        W28678  18.039  18.004  12.775 -0.0275  0.1474  0.2185
12418W        W28679  15.256   9.095   0.481  0.1373  0.0087  0.0021
12419W        W28680   1.984   0.183  15.564  0.0738 -0.0060 -0.1028
12420W        W28681  14.467  14.754  15.421 -0.0687  0.2159  0.0941
12421W        W28682   2.067  14.554   2.001 -0.1514 -0.3270 -0.0924
12422W        W28683   8.324   4.947   1.223  0.2058  0.2633 -0.0884
12423W        W28684  16.217   9.669  13.064  0.1843  0.1236 -0.0286
12424W        W28685  18.388   9.209   5.557 -0.3042  0.0578 -0.2118
12425W        W28686   9.903  10.112   3.971  0.1589  0.0431 -0.1252
12426W        W28687  10.862  14.763  12.799 -0.0082 -0.0707  0.1502
12427W        W28688   8.777  12.612  11.862  0.0985  0.2049  0.1909
12428W        W28689   0.917   3.471   3.798 -0.0920 -0.1628 -0.1250
12429W        W28690   5.144  12.370   2.055 -0.0429  0.3432  0.0076
12430W        W28691   7.381  11.554   1.361  0.2658 -0.1483  0.2113
12431W        W28692  15.318  11.084   4.806  0.1815  0.0707  0.0014
12432W        W28693  14.424   8.596   1.413  0.2050  0.0560  0.2357
12433W        W28694  17.695  12.361   1.678  0.0410  0.2900 -0.3710
12434W        W28695   8.952   0.521   0.881 -0.0229  0.1085  0.1718
12435W        W28696   1.613   3.660   6.102 -0.4277 -0.1590  0.1037
12436W        W28697   9.503   2.613  12.094 -0.2960 -0.0290  0.1617
12437W        W28698   0.915  11.603   5.340 -0.1021  0.0950  0.1786
12438W        W28699  10.197   8.997   4.477  0.0877 -0.3003 -0.0993
12439W        W28700   9.395  16.460   3.509 -0.2955 -0.3978 -0.3443
12440W        W28701  12.508   4.373   1.924 -0.3441  0.2917  0.1604
12441W        W28702   5.779  17.763  15.569  0.2723 -0.1785  0.2424
12442W        W28703   9.238   6.052   5.874 -0.1323 -0.1288  0.1676
12443W        W28704   0.009  15.396   3.521  0.0060 -0.1403  0.3610
12444W        W28705   3.094   1.402  15.421  0.0110  0.1954  0.2366
12445W        W28706  13.265  16.739  13.675  0.0381  0.1010  0.0877
12446W        W28707   6.245  16.416   0.382 -0.2170 -0.0523  0.0855
12447W        W28708  13.497   4.977  15.893 -0.0777  0.3984  0.0642
12448W        W28709   7.493   7.994   0.675  0.0015  0.0181  0.1101
12449W        W28710   9.455  14.748   3.214 -0.0226 -0.0202 -0.1731
12450W        W28711  12.193  13.787   2.069 -0.0282 -0.0168 -0.1373
12451W        W28712   6.876  13.214   3.630  0.2159  0.0964 -0.3656
12452W        W28713   4.190  13.929   1.263  0.1727  0.1357  0.2456
12453W        W28714  14.789  17.426  16.087 -0.1399 -0.0367  0.0768
12454W        W28715   7.475   6.078  12.679 -0.0239 -0.0505 -0.2779
12455W        W28716   6.727   5.483  12.970 -0.0006  0.2474 -0.2604
12456W        W28717  13.106  17.870   5.562  0.1305 -0.0276 -0.3684
12457W        W28718   8.686   4.329  15.629 -0.2387  0.0771  0.1111
12458W        W28719   2.346   3.519   4.230 -0.2011  0.0990  0.1503
12459W        W28720  17.853  10.278   0.499 -0.3165  0.1148 -0.3753
12460W        W28721  11.972  14.909  14.363 -0.0172  0.1758  0.2696
12461W        W28722   1.016   6.011   3.307  0.0944 -0.1435  0.0707
12462W        W28723  10.086  10.681  13.109  0.1044  0.1528 -0.1181
12463W        W28724  12.608  15.477  15.318 -0.1189  0.0872  0.1409
12464W        W28725  14.976   4.458  13.262 -0.0464 -0.1132  0.0952
12465W        W28726  18.404  14.457   3.981 -0.2300  0.2348 -0.1847
12466W        W28727   0.359  10.915  13.533  0.3679  0.1960 -0.0539
12467W        W28728   3.191   4.393  15.378  0.0380 -0.0550  0.0453
12468W        W28729  13.183   1.949   3.058 -0.1798  0.1415 -0.0126
12469W        W28730   9.691   3.076   3.574  0.0815 -0.0671  0.1748
12470W        W28731   3.264   6.462  12.052 -0.2734  0.3331 -0.0339
12471W        W28732  10.365   3.224   2.040 -0.3771 -0.1612 -0.4023
12472W        W28733   0.269   4.486   4.039 -0.0251 -0.2020 -0.1302
12473W        W28734  14.892   5.088   4.233 -0.0138 -0.2403 -0.1005
12474W        W28735  16.197   9.982   5.326  0.0055 -0.0033  0.0139
12475W        W28736   0.140   1.453   1.470 -0.3091  0.2660  0.2033
12476W        W28737  13.562   2.926  15.169  0.1863  0.1817 -0.2663
12477W        W28738   1.149  16.513   0.376 -0.0409 -0.0187  0.1367
12478W        W28739  16.320  12.372   2.701 -0.0680  0.0342 -0.0579
12479W        W28740   7.428   2.697   2.621  0.0077 -0.0994  0.3584
12480W        W28741  11.484   7.509   6.267  0.3455 -0.0667  0.0741
12481W        W28742  16.883  14.029  10.726  0.1733 -0.0353  0.2471
12482W        W28743  14.815  15.332   0.775  0.0238  0.0357  0.1194
12483W        W28744  15.651  12.925  11.523  0.0058  0.3178 -0.2277
12484W        W28745  16.027   7.353  11.915 -0.3651 -0.2229 -0.0554
12485W        W28746  14.482  10.956   3.858  0.1815 -0.2019 -0.0801
12486W        W28747  12.122   9.010   4.137  0.0171 -0.1741 -0.2685
12487W        W28748  16.572   6.695  11.509 -0.0185  0.0863  0.4788
12488W        W28749   3.471   9.171   1.692  0.4078  0.4204  0.0936
12489W        W28750   1.285   6.718   2.753  0.1448  0.2888  0.0597
12490W        W28751   0.037  11.865   1.764  0.0083  0.0680 -0.0917
12491W        W28752   3.194   3.323   1.143  0.0885 -0.1169  0.3370
12492W        W28753  10.766  15.227   5.089 -0.1000  0.1237  0.2018
12493W        W28754   2.868  11.873   2.794 -0.0139 -0.2162 -0.2129
12494W        W28755  11.072   0.802   0.450 -0.0639  0.3509 -0.3124
12495W        W28756   9.876   3.880   2.771 -0.4546  0.3111  0.0565
12496W        W28757   8.535   9.042  15.390  0.1222 -0.2105 -0.0359
12497W        W28758   3.313  17.951   5.845 -0.2042 -0.1148 -0.3399
12498W        W28759  12.146  11.338  13.933  0.1105 -0.1273 -0.1342
12499W        W28760   2.932   2.607  13.979  0.2198 -0.0965 -0.0218
12500W        W28761   9.818   1.749   0.091  0.1891  0.2418 -0.1671
12501W        W28762   8.511   4.541   2.702  0.1842  0.1442 -0.0953
12502W        W28763   8.599   6.793   2.188 -0.0608 -0.4397 -0.0627
12503W        W28764   1.924   2.187   3.297  0.3517 -0.1899 -0.1563
12504W        W28765   4.298  17.330   5.442  0.0151  0.0899 -0.2082
12505W        W28766  17.061  11.311   2.267  0.3233  0.0420 -0.0255
12506W        W28767   1.450  12.947  16.149  0.1872 -0.0701 -0.1961
12507W        W28768  16.974  16.330  14.827 -0.1522 -0.1455 -0.0256
12508W        W28769  13.356   0.967   2.265  0.1345 -0.0014  0.0084
12509W        W28770  18.268  15.488  15.101  0.0056  0.2084  0.2601
12510W        W28771   1.427  15.612   2.734  0.1425 -0.0554 -0.2204
12511W        W28772  14.164   7.976   5.123  0.0456  0.0541  0.2459
12512W        W28773  15.848  11.704   5.708  0.1280  0.2874 -0.0971
12513W        W28774   3.060  18.418  12.975 -0.0800 -0.0384  0.1830
12514W        W28775   7.589  15.577  12.912 -0.0135 -0.2291 -0.2682
12515W        W28776   2.496   0.923  13.973  0.0669  0.0555  0.0045
12516W        W28777   3.481  17.511   5.423  0.0985 -0.2700  0.0202
12517W        W28778  14.177  13.513   4.335  0.1826 -0.0072  0.0344
12518W        W28779   6.496   2.933   2.987 -0.0271 -0.1223 -0.2762
12519W        W28780   8.524  12.588  13.977  0.1505 -0.1652  0.1626
12520W        W28781  11.438  10.263  14.235  0.0230 -0.2887  0.2575
12521W        W28782  12.782   8.009   2.030  0.1627 -0.2225  0.1542
12522W        W28783   2.719   7.688  11.850  0.1983 -0.0144  0.3028
12523W        W28784   3.724   8.633   3.209 -0.0245  0.2933 -0.2611
12524W        W28785   5.637  12.262   4.761  0.1297  0.0020  0.1551
12525W        W28786   3.932   2.091  13.656  0.1453  0.1105 -0.0921
12526W        W28787  12.610   4.921   0.021 -0.3151 -0.0151  0.0542
12527W        W28788   3.741  12.661  13.469 -0.1916 -0.0622 -0.1247
12528W        W28789   2.371   6.047  14.092  0.2433 -0.0088  0.2970
12529W        W28790  10.966  15.393   5.503 -0.2882  0.1291 -0.1497
12530W        W28791  14.613   5.847  13.579  0.0750  0.1228 -0.1432
12531W        W28792   7.052  12.799  13.963 -0.0892 -0.0091 -0.2106
12532W        W28793  14.700  10.525   2.108 -0.0370 -0.2114  0.4101
12533W        W28794  10.035  14.488   1.305 -0.0285 -0.2973  0.0712
12534W        W28795  10.137  15.138   0.465  0.3927  0.2524 -0.1092
12535W        W28796  17.899   0.424   4.639  0.2263  0.2029 -0.0782
12536W        W28797  14.414  15.741   0.179 -0.1237 -0.2373 -0.0212
12537W        W28798  15.299   1.827  15.807 -0.2213  0.2866  0.1887
12538W        W28799   5.773   9.078  11.920  0.2935  0.0543  0.2337
12539W        W28800  13.891  15.928  12.422 -0.3178  0.1977  0.0753
12540W        W28801   3.315  12.833  13.958  0.2765 -0.0867  0.1932
12541W        W28802   8.980   9.404   4.923  0.2633  0.0399  0.1036
12542W        W28803   7.493   0.586   3.987 -0.1797 -0.0243  0.1641
12543W        W28804   4.771  15.205  12.551  0.0418  0.0741  0.2856
12544W        W28805  16.870  18.289  13.367  0.1925  0.2070  0.3794
12545W        W28806   4.956  15.759   4.150  0.1691 -0.1526  0.1584
12546W        W28807  17.375   9.029   2.451 -0.2311 -0.0341 -0.0239
12547W        W28808   0.922   7.406   1.967 -0.1639  0.0691 -0.0198
12548W        W28809   4.284   8.618  15.409  0.3878 -0.1201 -0.3363
12549W        W28810   3.971  16.719  14.717  0.2733  0.0583 -0.2731
12550W        W28811  15.041   0.725   2.773 -0.2979 -0.4143  0.1790
12551W        W28812   3.738  12.822  15.496 -0.1214 -0.0653 -0.2562
12552W        W28813   9.067   9.055   6.172  0.2834 -0.0705  0.5315
12553W        W28814  12.368   9.282   0.731 -0.0568  0.1096  0.3638
12554W        W28815   1.568  10.219  15.430 -0.0642 -0.2207 -0.1345
12555W        W28816  10.386  14.791   2.999 -0.2583  0.1907  0.0509
12556W        W28817   5.410  11.407   5.644  0.0139  0.1240 -0.2525
12557W        W28818   8.058  13.010   3.774 -0.1728 -0.1491 -0.3305
12558W        W28819  11.727   9.575   2.550  0.0657  0.3124  0.0495
12559W        W28820   1.366   5.145   4.706  0.2292  0.1760 -0.1085
12560W        W28821  17.149   7.481   1.211  0.2294 -0.0975 -0.1600
12561W        W28822  13.605   9.971  15.729 -0.0132 -0.2112 -0.1710
12562W        W28823  14.829   8.291   2.294 -0.0907  0.3574  0.0596
12563W        W28824   4.737   8.569   5.714  0.0621  0.1266  0.0890
12564W        W28825   2.509   7.062  13.789  0.1424 -0.2694  0.2668
12565W        W28826   3.007  12.965   4.040 -0.2197  0.3164  0.2817
12566W        W28827  16.211  11.230  16.128 -0.0567 -0.6263 -0.0203
12567W        W28828  12.128  16.060   0.739 -0.1584 -0.0229 -0.2376
12568W        W28829   7.030  10.554  11.958  0.1479 -0.4431 -0.3955
12569W        W28830   6.139   4.243  12.475  0.0510 -0.4080 -0.1732
12570W        W28831  11.271   4.190  12.022  0.1306 -0.1564 -0.0464
12571W        W28832  14.367  13.225  11.453  0.0752  0.2865 -0.1825
12572W        W28833  16.159   7.862   2.362  0.1062  0.0745 -0.2451
12573W        W28834   9.283  16.479  15.791  0.0911  0.1200 -0.3319
12574W        W28835  11.696  13.926   0.135 -0.0221  0.0064 -0.2269
12575W        W28836   7.108  18.017  10.747 -0.1251 -0.2507  0.0656
12576W        W28837  10.711   2.586  11.419 -0.0397  0.2383  0.1822
12577W        W28838   3.002  12.305  10.424 -0.0799 -0.1581  0.3816
12578W        W28839  10.535   8.980   4.137 -0.1138  0.2552 -0.0499
12579W        W28840   2.314   1.359  14.691 -0.0168 -0.4252 -0.2636
12580W        W28841  16.090   0.845  12.454  0.5478  0.0169 -0.3483
12581W        W28842  12.414   9.371  13.871 -0.1179 -0.2252  0.4311
12582W        W28843  16.370  16.402   1.371 -0.0972 -0.2752  0.0597
12583W        W28844  16.924  14.761  13.763 -0.0384 -0.0541 -0.4002
12584W        W28845  14.743   6.815  15.237 -0.2584 -0.1880 -0.0785
12585W        W28846   7.950   6.185  15.091 -0.1701 -0.2582 -0.1965
12586W        W28847  16.973  12.986  12.401  0.1388  0.0703  0.0081
12587W        W28848   0.825  10.302  11.884 -0.2858 -0.0386 -0.1254
12588W        W28849  16.784  16.921  12.144  0.1495  0.0301 -0.2175
12589W        W28850  12.239   3.299   5.534 -0.0401 -0.0847  0.3235
12590W        W28851   1.634  17.969  13.422 -0.0428  0.0839 -0.1033
12591W        W28852   4.498   0.086  11.688  0.2283 -0.0657 -0.4760
12592W        W28853   6.159   7.665  12.873  0.1814 -0.0299  0.0647
12593W        W28854   4.685  16.403   4.283  0.0686 -0.0278 -0.3374
12594W        W28855   4.872   2.491   2.950  0.1700 -0.1285  0.2231
12595W        W28856  18.122  15.162  15.525 -0.0019 -0.0034  0.2895
12596W        W28857  17.214  17.193   2.273 -0.0485 -0.0914 -0.0504
12597W        W28858  15.003  17.015   1.172 -0.4715  0.0926  0.2493
12598W        W28859  16.174  17.794   4.654  0.0945  0.5115 -0.2926
12599W        W28860  12.498   5.096  14.843 -0.1594 -0.3325 -0.1634
12600W        W28861   0.005  15.329  12.824 -0.1267  0.1973  0.1613
12601W        W28862  17.432   4.565   4.052  0.0891  0.1159  0.0529
12602W        W28863   1.423   5.813   2.520  0.0673  0.0536  0.1314
12603W        W28864  17.396  10.392   2.048  0.1483 -0.0827  0.1979
12604W        W28865  10.787  15.821   0.192 -0.0603 -0.0491 -0.4637
12605W        W28866   3.264  15.538   5.179 -0.2397 -0.2506 -0.0016
12606W        W28867   0.875   8.700   3.459 -0.0473  0.1460  0.0374
12607W        W28868   3.001   4.703  13.998  0.0970  0.1889 -0.0460
12608W        W28869  14.277   7.983   0.706  0.3934  0.0905  0.1800
12609W        W28870   0.239  16.442   0.561  0.0890  0.2389 -0.1638
12610W        W28871  10.762   0.722   0.866 -0.1667  0.0886 -0.2471
12611W        W28872   0.627  16.124  14.211 -0.3464  0.0419 -0.1358
12612W        W28873  16.800   4.413  14.247  0.2021  0.2166  0.3380
12613W        W28874  15.030   8.605  11.592 -0.0793 -0.1557 -0.1439
12614W        W28875   8.681   0.309  15.238 -0.3390 -0.1299  0.0895
12615W        W28876   0.493   9.398   0.499  0.1827  0.0337 -0.1210
12616W        W28877   9.249  16.096   2.882  0.3319 -0.1059  0.2489
12617W        W28878  17.486   6.994   4.095 -0.1914 -0.0345  0.0080
12618W        W28879  11.609   9.723  13.834 -0.0330  0.0290 -0.0503
12619W        W28880   2.377   6.153   5.958  0.1457  0.3033 -0.3158
12620W        W28881   0.933   5.040   2.589  0.1852  0.0857 -0.1340
12621W        W28882  12.085  14.001   1.551 -0.3491 -0.0724  0.2302
12622W        W28883   3.172   8.431  15.856  0.0235  0.0167  0.1750
12623W        W28884  17.706   3.908   2.723  0.2464  0.1303 -0.0761
12624W        W28885   7.739   5.173  12.129 -0.0244  0.0605  0.1414
12625W        W28886   2.472   8.157   4.466 -0.1002 -0.0420  0.0912
12626W        W28887   6.764  17.021   5.609 -0.3091  0.1504  0.1137
12627W        W28888   4.821  14.343   4.620  0.1964 -0.0975 -0.1328
12628W        W28889   7.585  16.725  15.382 -0.1855  0.1542 -0.0871
12629W        W28890   7.987   5.975  13.620  0.3498  0.0740 -0.0405
12630W        W28891  13.511  11.888   2.674  0.1700  0.0205  0.0712
12631W        W28892  13.621   5.007   1.962  0.1154  0.1777 -0.1836
12632W        W28893   9.330  11.056   5.175  0.3146  0.0154 -0.1007
12633W        W28894  11.063   0.932  16.151  0.0322 -0.2190  0.0493
12634W        W28895   0.503  11.232  15.115 -0.0476  0.0628  0.4797
12635W        W28896  16.171  14.554  12.930  0.0170  0.1711 -0.0363
12636W        W28897   6.741   0.146  12.116 -0.0399  0.0067  0.1989
12637W        W28898  18.016   0.786   2.343 -0.4018 -0.1124  0.2171
12638W        W28899  11.425   8.929  13.092  0.2457  0.0396 -0.1422
12639W        W28900  10.924   5.777   1.672 -0.4206 -0.1605 -0.1978
12640W        W28901  16.372  11.452  15.644 -0.1130 -0.0287 -0.1499
12641W        W28902  16.506  13.658  14.564  0.1836  0.3107  0.1871
12642W        W28903  12.436  15.344  15.800 -0.0234  0.0583  0.0606
12643W        W28904  11.125  16.289   4.782 -0.2552  0.3002  0.3073
12644W        W28905   4.698   5.103   6.474  0.1296 -0.1032 -0.1739
12645W        W28906   0.323   9.838  14.185 -0.1899 -0.0849  0.1218
12646W        W28907   4.164   6.687   1.428 -0.0350 -0.1125  0.2345
12647W        W28908  18.342   3.278  12.144  0.1057  0.0389 -0.2640
12648W        W28909  11.213  11.465  14.417 -0.3552 -0.0003  0.0290
12649W        W28910   8.989   1.959   2.667 -0.1639  0.1783 -0.0149
12650W        W28911  13.063   9.528   0.401  0.0078 -0.1253  0.1155
12651W        W28912  16.497  12.913  11.588  0.3648 -0.3567 -0.3079
12652W        W28913  13.280   7.827  14.573 -0.1908  0.1775 -0.0706
12653W        W28914   4.646  15.678  15.760  0.1078 -0.2411 -0.0003
12654W        W28915   2.532   2.538  14.241 -0.0458  0.0839  0.1401
12655W        W28916   8.337   8.279  15.842 -0.0585 -0.0588  0.0657
12656W        W28917  14.647   2.332  13.912  0.1949 -0.4218  0.1231
12657W        W28918   4.578   5.228   0.218  0.2910  0.0605 -0.2093
12658W        W28919   4.635  17.796   5.305 -0.1036  0.3077 -0.1039
12659W        W28920  14.679  13.555   4.322 -0.0378  0.3496 -0.1374
12660W        W28921  14.297   2.133  13.591  0.4060 -0.1288  0.0014
12661W        W28922   7.675  16.409  14.904 -0.1100  0.4392  0.2144
12662W        W28923   3.320   4.910  12.784 -0.0450  0.1639 -0.0704
12663W        W28924   6.445   3.882   3.957  0.0336  0.2058 -0.2422
12664W        W28925   4.801  18.229   3.188 -0.0503  0.3277 -0.1166
12665W        W28926  11.239   6.367  13.726  0.1367 -0.0584  0.0279
12666W        W28927   1.671   1.734  13.623  0.0255  0.0466  0.1227
12667W        W28928   0.847   8.975   0.760 -0.0296 -0.0013  0.0414
12668W        W28929   6.725   9.583   2.927 -0.4165 -0.0369  0.0459
12669W        W28930  13.388  17.938  10.966  0.1875 -0.2416  0.0493
12670W        W28931  17.147   9.979  11.354  0.0339 -0.1087  0.2173
12671W        W28932  16.650  12.148  11.159 -0.0512  0.2082 -0.0133
12672W        W28933  18.248  10.721  12.786 -0.1019 -0.0822 -0.0631
12673W        W28934  16.089   3.488   4.199 -0.0037 -0.2302  0.0378
12674W        W28935  17.078   2.407   6.077 -0.0236 -0.1416 -0.2387
12675W        W28936  17.574  18.107  15.759  0.2501  0.1429  0.1854
12676W        W28937  13.026  10.175   3.575  0.0294 -0.0665 -0.0512
12677W        W28938  12.467   9.526  12.393 -0.0119 -0.1106 -0.2487
12678W        W28939   9.706  14.117   3.708  0.3259  0.1850  0.1206
12679W        W28940   6.833  15.734   0.950 -0.0026 -0.1503 -0.2105
12680W        W28941   7.201  11.902  14.423 -0.0645 -0.3130 -0.0642
12681W        W28942   2.019   7.087   1.045  0.2939  0.0719  0.1395
12682W        W28943  11.538   7.884   4.077  0.1977 -0.1457  0.4342
12683W        W28944   1.124  17.841  13.720 -0.1561 -0.0034  0.0384
12684W        W28945   6.904   6.827   4.428  0.0032 -0.1672 -0.1584
12685W        W28946   8.816   5.412   4.654  0.1558 -0.2204  0.3644
12686W        W28947   1.083   7.339  14.383  0.0525 -0.0107 -0.2006
12687W        W28948   0.990   6.490   3.571  0.1394 -0.0443 -0.0113
12688W        W28949  15.153  12.229   5.317  0.1276 -0.0743  0.0321
12689W        W28950   1.930  15.450   2.960  0.0578 -0.0490 -0.0758
12690W        W28951   8.442   9.728  11.722  0.2313 -0.0609 -0.0494
12691W        W28952   2.905   1.463  15.857 -0.2099  0.4164 -0.0782
12692W        W28953   2.465   1.117  15.090  0.0334  0.2145 -0.2501
12693W        W28954   8.438   8.607   5.037 -0.1514 -0.1488 -0.2464
12694W        W28955   0.206   3.442  13.150  0.0999 -0.0177  0.0436
12695W        W28956  11.876  12.034   0.721 -0.2771  0.2311 -0.1286
12696W        W28957   5.735  13.608   3.689 -0.0251  0.3753  0.0659
12697W        W28958  12.555   6.703  15.783  0.2715  0.2671 -0.0203
12698W        W28959   3.820   7.775   3.902 -0.0323 -0.0796  0.2955
12699W        W28960   4.533  17.749  12.249  0.0737 -0.1173  0.5515
12700W        W28961  17.263  10.401   1.498  0.3395 -0.1773 -0.0927
12701W        W28962  15.852  18.132   2.204 -0.1213  0.0621 -0.3291
12702W        W28963  11.290   1.343   2.975  0.2233  0.2483  0.1929
12703W        W28964  18.260  17.911   3.387  0.1404 -0.2188  0.0702
12704W        W28965  16.238   2.293  11.674 -0.0227  0.4186 -0.1324
12705W        W28966  12.185   4.998   3.936  0.1577  0.2452  0.2662
12706W        W28967  15.970   1.906  12.457 -0.1154  0.0218  0.1532
12707W        W28968  17.023  11.673  10.831  0.0704  0.1984  0.0444
12708W        W28969   7.539   6.702  12.694  0.0262 -0.0216 -0.1094
12709W        W28970  15.293  14.554   4.764  0.1713  0.1477  0.1360
12710W        W28971   5.853  18.110  12.325 -0.3360  0.2138  0.0546
12711W        W28972  14.062  16.439   2.668 -0.1202 -0.0384  0.2347
12712W        W28973   8.254   5.770  12.344 -0.1958 -0.0712  0.2400
12713W        W28974   1.654  14.537  12.963 -0.0924 -0.2003  0.2686
12714W        W28975  17.316   5.057   1.664  0.2038  0.0883 -0.1624
12715W        W28976   5.030   3.999   0.934 -0.1218  0.1348 -0.0880
12716W        W28977  15.852  17.077   0.663  0.3101  0.1126  0.1739
12717W        W28978  12.397   3.438  14.935  0.1602 -0.1558  0.2365
12718W        W28979  14.489   5.240  12.506 -0.1101 -0.0925  0.0465
12719W        W28980   2.208  15.194  11.862 -0.1330  0.2098  0.0941
12720W        W28981   0.484   7.324  11.359 -0.0872  0.0862 -0.0348
12721W        W28982  15.011   8.271   0.877 -0.2456  0.2237 -0.2525
12722W        W28983  13.480   5.045  14.427  0.2863  0.0018  0.0436
12723W        W28984   4.043   6.587   6.749 -0.1824  0.0704  0.0317
12724W        W28985  11.514   3.911   0.782 -0.1840 -0.5594  0.2614
12725W        W28986   1.916   6.883   5.386 -0.0418 -0.0145  0.1089
12726W        W28987   1.574   4.557  12.266  0.0967  0.1257  0.1351
12727W        W28988  10.955   9.568  15.523 -0.1252 -0.1608  0.2405
12728W        W28989   4.413   0.064  16.043  0.2159  0.3295 -0.0970
12729W        W28990  14.677   6.481   1.195 -0.0609  0.0593  0.0240
12730W        W28991   4.436   4.126   1.943  0.2205 -0.1900  0.2608
12731W        W28992  11.228   0.783   4.158  0.1136  0.4220 -0.4601
12732W        W28993   6.437  15.503   4.035 -0.2072 -0.2282  0.1337
12733W        W28994  11.710   5.822   0.172  0.0673 -0.4109  0.2828
12734W        W28995   2.730   5.156  14.319  0.2305 -0.0695  0.0578
12735W        W28996   5.798   5.509  16.124  0.1864 -0.0516 -0.1179
12736W        W28997  11.116  13.501   5.765  0.4461  0.1130  0.2988
12737W        W28998  13.680   7.961  12.554 -0.2194 -0.0009 -0.3554
12738W        W28999  11.841   1.813   3.115 -0.1310 -0.2409  0.2015
12739W        W29000  11.123  10.821   0.371 -0.1985 -0.1307 -0.2358
12740W        W29001   6.982   8.875  14.296  0.0623  0.0363  0.2369
12741W        W29002  17.030   9.265  14.596  0.3164 -0.0322  0.2456
12742W        W29003  18.123  17.020  15.554  0.3813 -0.0562 -0.1868
12743W        W29004  14.902  13.761   0.279 -0.2137 -0.0169  0.0964
12744W        W29005   4.703   7.662   1.537  0.1377 -0.1475 -0.4283
12745W        W29006  10.280   1.634   1.360  0.1494  0.1625 -0.0580
12746W        W29007  14.501   0.019  10.905  0.0450 -0.4385 -0.3887
12747W        W29008   8.400   2.822  14.825  0.1544 -0.2836 -0.1033
12748W        W29009  18.095  11.274  10.709  0.1676 -0.1912  0.1659
12749W        W29010   0.923  10.164   2.597 -0.0668  0.0896  0.7781
12750W        W29011  15.349  17.293  15.392 -0.1472 -0.0239  0.1672
12751W        W29012   8.412   4.781  15.519 -0.1488  0.1340  0.4656
12752W        W29013  10.817  14.446  13.211 -0.2854 -0.2643  0.1902
12753W        W29014  11.499  12.019   1.013  0.4116 -0.0977 -0.0980
12754W        W29015   6.524   7.242   6.330 -0.2118 -0.1808  0.0977
12755W        W29016   2.962   6.927  13.726  0.1856 -0.2908 -0.1900
12756W        W29017   3.488  12.545   1.946  0.0537 -0.3594  0.2095
12757W        W29018   6.198  17.908   2.854 -0.0412  0.1178  0.0433
12758W        W29019  18.099  13.153   4.239  0.4811  0.0050  0.3386
12759W        W29020   9.281  16.685   2.688 -0.2639  0.0300  0.2823
12760W        W29021   6.800   5.512   0.852 -0.1548  0.3546  0.0664
12761W        W29022   8.617   1.673   0.864 -0.3049 -0.3511 -0.0006
12762W        W29023  17.699  14.060  10.872 -0.1580 -0.0871  0.3067
12763W        W29024  16.181   0.657   1.863  0.3009 -0.1429  0.1974
12764W        W29025  17.507  15.519  14.351  0.0221 -0.0199 -0.3309
12765W        W29026   5.545  15.726   5.006  0.2463 -0.4714  0.2158
12766W        W29027   0.264  15.745  12.318 -0.2640  0.0119 -0.2994
12767W        W29028  14.264  13.261  14.412  0.2630 -0.2433  0.1733
12768W        W29029   9.370   5.424   3.512  0.1879  0.3097  0.0868
12769W        W29030  17.833  10.404   2.463  0.1097 -0.0216 -0.0409
12770W        W29031  13.471   1.334  13.614  0.1128 -0.0763 -0.1078
12771W        W29032   5.177   5.652   1.335 -0.1841  0.1330 -0.0437
12772W        W29033   7.372   2.514   0.756  0.2271 -0.0512 -0.1082
12773W        W29034  14.453   2.594  15.756  0.0430  0.1052 -0.1087
12774W        W29035  13.597   3.876   1.210 -0.1918  0.2902 -0.0683
12775W        W29036   7.152  11.973   3.589  0.0433 -0.5157  0.1835
12776W        W29037  14.092  14.846  11.642 -0.0918  0.2304  0.3791
12777W        W29038   3.347   9.055  13.317 -0.1090  0.0429  0.0449
12778W        W29039   6.869   6.059   4.843  0.2962 -0.3693  0.0909
12779W        W29040  16.788   7.017  12.709  0.3841  0.0883  0.0213
12780W        W29041   6.824  10.154   5.208 -0.0701 -0.0849  0.2146
12781W        W29042   5.405   9.303   5.251  0.4059  0.2274 -0.3821
12782W        W29043   5.181   2.795   0.724  0.0509  0.1133  0.0974
12783W        W29044  13.676  12.661   0.708 -0.0832 -0.1929  0.1200
12784W        W29045  16.548   9.052  11.505 -0.2734 -0.0351 -0.0256
12785W        W29046   7.359   7.484  16.165  0.0332 -0.3099 -0.1200
12786W        W29047   4.719  14.974  13.564  0.0601 -0.6104 -0.0990
12787W        W29048  13.288   9.805  15.418  0.0824  0.0470 -0.2046
12788W        W29049   0.114   0.413   4.375 -0.1531  0.0289  0.1361
12789W        W29050  18.399   0.963  11.920  0.0493  0.0081  0.1303
12790W        W29051  15.791  10.609   9.573  0.1621 -0.3034  0.0901
12791W        W29052   4.029   1.735  14.306 -0.3312  0.0748 -0.2060
12792W        W29053   7.089   1.525   2.157  0.1171 -0.1431 -0.2015
12793W        W29054   0.272   3.001   3.685  0.1554  0.3177 -0.1130
12794W        W29055  13.457  14.422   3.474 -0.2865  0.1970 -0.1504
12795W        W29056   3.713  10.766  13.439  0.0390 -0.2866 -0.0807
12796W        W29057  17.904  10.687   0.231 -0.5073 -0.2270 -0.1017
12797W        W29058   7.734  13.075  12.921  0.1000 -0.1731 -0.2082
12798W        W29059   7.682  11.367  10.282  0.1993 -0.0729  0.2115
12799W        W29060  15.819   4.183  12.059  0.3517  0.1569  0.0110
12800W        W29061   9.504  14.663  11.654  0.2580 -0.1227 -0.0328
12801W        W29062  14.426  15.934   4.033  0.1103 -0.0720  0.0570
12802W        W29063   5.475  11.486   5.024 -0.1879 -0.0528 -0.1715
12803W        W29064  16.604   5.219   5.212  0.0287 -0.0997 -0.3883
12804W        W29065  12.132   3.399  11.546 -0.1586  0.2094 -0.1389
12805W        W29066  12.964  16.564  10.911  0.0243 -0.0468  0.1833
12806W        W29067  12.305   2.439   2.149 -0.1880  0.0575  0.6533
12807W        W29068   6.617  12.190   3.666 -0.0478 -0.3190 -0.1384
12808W        W29069   6.405   0.772  13.206 -0.0739  0.2959  0.0184
12809W        W29070  17.831  16.751  15.906 -0.1731 -0.1611 -0.2067
12810W        W29071   3.284   7.113   0.194  0.1962  0.0940  0.1950
12811W        W29072  14.081   5.564  16.111 -0.0239  0.4004  0.1486
12812W        W29073  14.029  13.588  11.268 -0.3015 -0.1996  0.1439
12813W        W29074  17.295   8.466  11.708  0.0059 -0.1937 -0.4749
12814W        W29075   4.040  10.452  11.387  0.0946  0.0704  0.3097
12815W        W29076  13.049  17.579   3.576 -0.0624 -0.2394 -0.0687
12816W        W29077   4.654   7.434  13.040 -0.2210  0.4233 -0.1953
12817W        W29078   7.138  15.521   2.637  0.3079  0.2207 -0.2441
12818W        W29079  10.829   5.484   5.280 -0.2335 -0.3885  0.0634
12819W        W29080   5.945   4.751  12.653 -0.3660  0.1885 -0.0376
12820W        W29081   0.933  15.344  14.630  0.1142  0.2416 -0.2216
12821W        W29082  16.719   9.067  15.509 -0.1630 -0.1236  0.0599
12822W        W29083   6.288   3.195   0.737 -0.1028  0.3176 -0.3511
12823W        W29084  11.217  13.714  14.593  0.0202 -0.0454 -0.1165
12824W        W29085   6.972   1.503   3.112  0.1486  0.1068  0.4298
12825W        W29086   1.944   3.100  14.563 -0.0396  0.4301 -0.0172
12826W        W29087   7.520   1.100  10.967 -0.2113 -0.2353 -0.1296
12827W        W29088  17.624   9.385  11.645  0.0614 -0.2513 -0.1576
12828W        W29089   9.379   1.390   0.267  0.2650  0.0309  0.0260
12829W        W29090   3.033   7.230   3.887 -0.1691 -0.0935  0.1909
12830W        W29091   1.855  15.582   0.828  0.0822  0.0436 -0.2941
12831W        W29092   1.796  17.726   2.049  0.3191 -0.1846  0.0493
12832W        W29093   3.219   0.256  14.331 -0.0158  0.0970  0.0397
12833W        W29094   3.852  11.696  14.311 -0.4005 -0.1273 -0.1143
12834W        W29095   3.131  13.012  14.449 -0.0738 -0.1237  0.2213
12835W        W29096  15.612   6.174   0.883 -0.0593 -0.1528 -0.0858
12836W        W29097   8.715   5.851   5.706 -0.3929 -0.0374  0.2514
12837W        W29098  11.454  14.185  12.041  0.1081 -0.0728  0.0540
12838W        W29099   1.221   1.787   5.263  0.0877  0.1458 -0.2307
12839W        W29100   2.892  12.866   4.584  0.0736  0.0048 -0.1114
12840W        W29101  11.140  17.086  11.956  0.2147 -0.0637  0.2440
12841W        W29102   8.149   2.224  14.717 -0.2004  0.1589  0.3227
12842W        W29103   7.346  13.769  14.447 -0.1591  0.0958 -0.0570
12843W        W29104  10.432  10.710  13.960  0.2170  0.0440  0.1357
12844W        W29105  11.270   5.015  15.711 -0.0480 -0.0345  0.0029
12845W        W29106  11.377  10.346  15.635 -0.2008 -0.3068  0.0354
12846W        W29107  12.087  18.135  13.401  0.1228 -0.0173  0.1454
12847W        W29108  16.114  15.921   1.266 -0.1389 -0.2201 -0.0895
12848W        W29109  12.242   7.603  12.067  0.3174 -0.1303  0.0752
12849W        W29110   5.636   4.079  13.284  0.1657  0.0701  0.0195
12850W        W29111  12.865  17.879  10.993 -0.0869 -0.0793  0.3555
12851W        W29112   9.530   3.237   0.282  0.3653 -0.0998  0.0959
12852W        W29113   2.256   0.173   0.224 -0.1400 -0.1292 -0.1509
12853W        W29114   0.273  12.114  12.543  0.1370 -0.1983 -0.3378
12854W        W29115   6.599   9.776   5.841 -0.1778  0.1231 -0.2798
12855W        W29116  12.794   7.970   6.272  0.1809  0.5442  0.2674
12856W        W29117   3.305  12.182  15.670  0.0975 -0.0491  0.1102
12857W        W29118   8.025  12.289   3.175 -0.3788  0.1940 -0.1114
12858W        W29119   9.476  18.412   3.876  0.0943  0.1625  0.0039
12859W        W29120   0.316  17.240   3.107 -0.2090  0.0098 -0.1089
12860W        W29121  16.948  18.026  12.994 -0.2651  0.1909 -0.2010
12861W        W29122   2.964   6.081   3.722  0.1088 -0.1187 -0.2758
12862W        W29123  15.361  15.355   1.137 -0.1724 -0.0507  0.2568
12863W        W29124   5.949   0.186   4.758 -0.1606 -0.0158 -0.0031
12864W        W29125  15.816   5.689   0.573  0.1238  0.3961 -0.2360
12865W        W29126  11.533   8.993   4.409  0.0848  0.2310 -0.1609
12866W        W29127  17.533   0.697  13.375  0.0452 -0.1032 -0.0389
12867W        W29128   8.315  17.932  12.991 -0.0017 -0.0748  0.3579
12868W        W29129  11.585   0.609   4.560 -0.0389  0.4417 -0.1630
12869W        W29130  10.311  15.903   2.473 -0.0596  0.0003  0.0073
12870W        W29131  15.336  14.395  13.186  0.0818 -0.0454 -0.1813
12871W        W29132  11.967  11.406  12.610  0.0358 -0.2547 -0.1645
12872W        W29133   4.880   1.194   1.310 -0.1545  0.1106  0.1959
12873W        W29134   9.646   9.618  11.839  0.2734  0.1917 -0.2189
12874W        W29135  10.737  13.489   3.633 -0.0831 -0.1952  0.3482
12875W        W29136  10.637   8.031   3.893  0.0596 -0.2773 -0.0943
12876W        W29137   2.117  15.518   5.174  0.2601  0.0819 -0.0982
12877W        W29138  17.122  16.285  10.885 -0.2545  0.2578 -0.1021
12878W        W29139  17.388   6.604   0.832  0.2096 -0.0849  0.1824
12879W        W29140  10.240   0.074  11.997 -0.0242 -0.4207 -0.3796
12880W        W29141  15.250   1.777  14.766 -0.1923  0.0103 -0.1734
12881W        W29142  14.105   4.909   4.198 -0.1179  0.0381  0.1342
12882W        W29143  17.401  16.230   4.943 -0.0684  0.2898 -0.1212
12883W        W29144  12.653   4.207   4.126  0.0362 -0.1187 -0.2714
12884W        W29145   0.177  15.070  13.272  0.1644  0.1237  0.0960
12885W        W29146  16.250  13.755  15.039 -0.2140 -0.1309 -0.0257
12886W        W29147  12.354  12.592   4.806 -0.3183  0.0912  0.0298
12887W        W29148   3.717   7.370   3.020 -0.3991 -0.1465 -0.0299
12888W        W29149   2.758  17.403  12.628 -0.3544 -0.0127  0.1899
12889W        W29150   4.831   7.219  12.576  0.6282 -0.3852 -0.0629
12890W        W29151   5.887   4.325   3.300  0.1206 -0.1387  0.3868
12891W        W29152   7.518   2.310  12.461 -0.1900  0.3157 -0.1712
12892W        W29153  10.658  11.934  12.810 -0.1015  0.0509  0.0075
12893W        W29154  17.922   8.767   3.119 -0.0644 -0.0535 -0.0028
12894W        W29155  17.329   2.920  15.975  0.1086 -0.4456 -0.0006
12895W        W29156   2.604  14.741  13.668 -0.0194  0.3510  0.3620
12896W        W29157   4.144   2.207   3.241 -0.0089 -0.1188  0.0132
12897W        W29158   9.124   7.788   0.313 -0.0019 -0.1713 -0.0296
12898W        W29159   8.581   2.594  10.936 -0.0968  0.2383  0.3279
12899W        W29160   6.701  15.453   3.155 -0.1215 -0.0512  0.0102
12900W        W29161   3.444   8.739  14.288 -0.1489 -0.1120 -0.1460
12901W        W29162  10.260  13.748  15.390 -0.3197  0.3522 -0.1007
12902W        W29163   2.376   3.562   4.907  0.3322 -0.1778  0.0659
12903W        W29164  16.451  11.590  13.608  0.1457 -0.0615 -0.0350
12904W        W29165  15.958  11.906   3.390  0.1159 -0.5397 -0.0097
12905W        W29166  14.986  16.693   1.655 -0.1067 -0.1700  0.0120
12906W        W29167  11.875   7.413  14.248 -0.1042  0.2143  0.2464
12907W        W29168  17.330  12.086   3.056 -0.0962 -0.1011  0.2594
12908W        W29169  13.229   3.395   0.363  0.1592  0.4074 -0.0414
12909W        W29170  15.879  11.359   4.705  0.0841 -0.2257  0.2829
12910W        W29171  12.660   6.294   5.871  0.1933 -0.1233 -0.1839
12911W        W29172   7.059  11.467   3.675 -0.0501 -0.0305  0.0303
12912W        W29173   6.047   2.018   0.454  0.1148  0.5248 -0.1453
12913W        W29174  12.340  15.292   4.411  0.1245  0.1542  0.0078
12914W        W29175   3.278  10.135  16.042 -0.0182  0.1096  0.1128
12915W        W29176  10.487   4.067  14.680 -0.1664  0.0327  0.2082
12916W        W29177  14.648  16.412  10.705 -0.0970 -0.0209  0.0782
12917W        W29178  15.141  10.717  11.222 -0.1652  0.2284  0.0119
12918W        W29179   0.616   7.576  16.060 -0.0307  0.2739 -0.0879
12919W        W29180   9.484  10.844  15.464  0.2506  0.0654  0.1852
12920W        W29181   1.230   3.032   2.572  0.0993 -0.0381 -0.2053
12921W        W29182  11.648   9.395  12.960 -0.2148  0.2820  0.0096
12922W        W29183   9.415  11.944  15.758  0.3866  0.0689  0.1563
12923W        W29184  16.522   9.790   0.809  0.1602 -0.1871  0.1015
12924W        W29185  15.924  15.073   4.931 -0.0342  0.2957 -0.3378
12925W        W29186   3.711  14.373  14.576  0.1867  0.1830  0.1516
12926W        W29187   3.439   1.956  12.892  0.1464 -0.0019  0.1694
12927W        W29188  15.534   0.952   2.474  0.0412 -0.1607 -0.1238
12928W        W29189   8.700   4.064   1.176 -0.1961 -0.3016  0.0321
12929W        W29190   7.236  10.984   4.271 -0.0964  0.3703 -0.0950
12930W        W29191  15.266   6.569  13.417  0.1981  0.2421 -0.0452
12931W        W29192  15.354  16.793  13.052  0.2245 -0.0659  0.1339
12932W        W29193   8.332  16.041  12.872 -0.3774  0.1064  0.0151
12933W        W29194  17.196  15.361  15.301  0.0349  0.1764 -0.0719
12934W        W29195   3.732   4.937  13.047 -0.2558  0.0203 -0.0648
12935W        W29196  15.155   5.689   3.465  0.4900 -0.1856  0.1604
12936W        W29197  11.543   8.402  10.897 -0.0332  0.1751  0.3314
12937W        W29198   4.910  18.176  15.214 -0.0573  0.2857  0.0264
12938W        W29199  15.575   8.728   2.109  0.2633 -0.1278 -0.1332
12939W        W29200   4.268  14.595   4.416  0.1378 -0.2925 -0.0664
12940W        W29201  11.684  13.072   4.629  0.3329 -0.0583  0.0014
12941W        W29202  11.788   2.602   2.413 -0.2632  0.4346  0.0384
12942W        W29203  16.460  17.652  11.181  0.1022 -0.1742 -0.0193
12943W        W29204   5.514  12.086  15.118  0.1122  0.0923 -0.3004
12944W        W29205   6.045   8.488  16.074  0.3549 -0.2114  0.2804
12945W        W29206   1.669   3.970   0.205  0.0799 -0.1510 -0.1478
12946W        W29207   5.046  10.144  15.536 -0.1440  0.1147  0.0975
12947W        W29208  11.842   0.322   2.640 -0.4399 -0.0570 -0.3638
12948W        W29209   6.980   9.533  12.586  0.0374 -0.0897  0.0478
12949W        W29210   7.452   3.140  15.023  0.0875  0.1392 -0.2353
12950W        W29211   9.023  18.227   2.461  0.2138  0.1945  0.2022
12951W        W29212   4.725   7.030   3.030  0.3539 -0.2384  0.2714
12952W        W29213  13.176   9.316  10.005 -0.1154 -0.3280 -0.0389
12953W        W29214   0.708   0.839   5.701  0.1051 -0.0167  0.0621
12954W        W29215   8.575  12.869  15.127  0.0381  0.0093  0.3077
12955W        W29216   5.738   4.087  15.026 -0.0940  0.1963 -0.3089
12956W        W29217  15.558   6.192  12.422  0.0075  0.2073  0.3063
12957W        W29218  16.554   6.139   5.120  0.1674 -0.0952 -0.1940
12958W        W29219  11.574  14.980   3.359  0.1073 -0.3107  0.0043
12959W        W29220   0.234  13.205   4.243  0.0327  0.2755 -0.5130
12960W        W29221   0.847  16.449   0.749  0.1227 -0.0639  0.0073
12961W        W29222  10.609  14.921  13.223 -0.0008 -0.1034  0.3755
12962W        W29223   5.114   7.865   5.468  0.1205 -0.0420  0.0194
12963W        W29224   0.223   8.119   0.474  0.0577 -0.3339  0.0783
12964W        W29225   9.964   5.183   4.418  0.1873  0.2095 -0.0566
12965W        W29226  17.430  15.210   4.105 -0.1657 -0.0095  0.2075
12966W        W29227   5.605   6.769   5.415  0.0289  0.2583 -0.0095
12967W        W29228   1.733   0.901  13.096  0.1037  0.2425 -0.0096
12968W        W29229  16.704   1.665   0.314 -0.0536 -0.0269 -0.0560
12969W        W29230   3.912   1.282   2.562 -0.0396 -0.0051  0.0196
12970W        W29231  12.112  11.006   1.150  0.2047  0.0919  0.2171
12971W        W29232   7.415  10.044  15.600  0.0694 -0.0722 -0.1921
12972W        W29233  10.848  16.698   4.987 -0.0207 -0.1455 -0.4774
12973W        W29234   1.369  10.615   5.307 -0.1385  0.3019  0.2204
12974W        W29235   5.053  11.611   1.532  0.0088 -0.3158 -0.3857
12975W        W29236  11.588   6.240   1.403  0.1181  0.1421 -0.0313
12976W        W29237  16.160   3.360  15.690 -0.2719  0.2214  0.0331
12977W        W29238   9.405  15.669  13.012  0.0004  0.0361 -0.0765
12978W        W29239  18.314  12.513  15.843 -0.1229  0.1083 -0.1292
12979W        W29240   9.645  16.506  15.416 -0.1920  0.0594  0.1217
12980W        W29241   0.558  13.725   2.875  0.1738  0.1456 -0.3264
12981W        W29242  16.460   6.583   4.468  0.0775 -0.1815  0.0917
12982W        W29243  13.622   9.479  15.643 -0.1052  0.1523  0.1870
12983W        W29244  11.256  18.361   1.189 -0.0706 -0.3216 -0.2340
12984W        W29245   6.236  10.231  14.511 -0.0860 -0.0234  0.0977
12985W        W29246  12.269   5.420   4.744  0.1984  0.1337  0.2466
12986W        W29247   6.344  11.726  15.387  0.0514 -0.0806  0.2273
12987W        W29248   5.492  10.013  15.247 -0.1486  0.1860  0.1161
12988W        W29249   7.209   7.015  14.337 -0.2415 -0.0908 -0.5384
12989W        W29250   9.899  15.959   2.801  0.0499  0.3384  0.0292
12990W        W29251  11.803   9.586  11.666 -0.3006 -0.4159 -0.0551
12991W        W29252   6.024  16.085  12.937  0.1865 -0.1123  0.1517
12992W        W29253   8.882   9.643   2.052  0.0571 -0.0043  0.4927
12993W        W29254   4.725   6.826   2.141  0.2385 -0.0001  0.3284
12994W        W29255   2.172  11.265  12.576  0.0482 -0.1001 -0.0725
12995W        W29256  16.495  15.109   3.502 -0.0498 -0.1965  0.1457
12996W        W29257   4.238  15.370   2.665 -0.3629 -0.7608  0.1435
12997W        W29258   5.316   1.511   6.964  0.1169 -0.0074 -0.1120
12998W        W29259   7.650   1.055   3.748 -0.1379 -0.1417  0.1746
12999W        W29260   6.486   6.753   2.771  0.1806 -0.2229  0.0215
13000W        W29261   9.603  16.615  12.305 -0.0349 -0.1251  0.1614
13001W        W29262   1.268   6.574   4.008  0.0122 -0.0411 -0.2016
13002W        W29263   6.144   3.537   2.734  0.0539  0.0905  0.1491
13003W        W29264   1.288   2.873   3.420  0.1650 -0.2035  0.0833
13004W        W29265   1.045   0.990   1.537  0.0659 -0.0389  0.1982
13005W        W29266   0.191   6.968  14.392  0.3600 -0.0367 -0.2556
13006W        W29267  14.436   2.493   3.268 -0.1493  0.1343 -0.0376
13007W        W29268  13.643  14.067   4.896 -0.1995 -0.1033  0.0054
13008W        W29269   4.648   4.434   6.702 -0.1006 -0.1891 -0.1979
13009W        W29270  11.793  18.269   2.476  0.1617  0.2048  0.1061
13010W        W29271  16.518  15.081  12.365  0.1622  0.1692  0.0446
13011W        W29272   8.386   7.503   3.776  0.3384 -0.1597  0.3112
13012W        W29273  11.749  13.057   3.299 -0.1843 -0.1508  0.0201
13013W        W29274  16.166  13.140   1.093 -0.1013  0.0748  0.1307
13014W        W29275  10.936  10.866   3.205  0.1250 -0.0498 -0.0481
13015W        W29276  17.922   0.863   1.550  0.1533 -0.2297  0.0669
13016W        W29277   1.035  11.389  14.359 -0.3338  0.1978 -0.2759
13017W        W29278   1.228   1.328  14.163 -0.2674 -0.0090 -0.0724
13018W        W29279  11.646  11.835   3.656  0.1975  0.0688  0.1693
13019W        W29280  17.232   4.158  14.394  0.0021  0.0014  0.0452
13020W        W29281   2.052   2.774   4.672  0.1249 -0.0530 -0.0090
13021W        W29282   6.402   9.782  15.625 -0.2927 -0.1932 -0.1707
13022W        W29283  15.647  13.755   4.249 -0.4612  0.3596 -0.2573
13023W        W29284   3.812  10.974  11.434  0.4033 -0.0007  0.1175
13024W        W29285  14.400   1.445   2.625  0.1317 -0.0998 -0.2569
13025W        W29286  12.544   9.577  11.850  0.2760  0.0374  0.1235
13026W        W29287  14.339   0.913   4.023 -0.3535 -0.0352  0.0458
13027W        W29288  17.904   1.784   4.179 -0.2094  0.0931 -0.0516
13028W        W29289  14.146  13.681  12.369 -0.3812  0.3749  0.0396
13029W        W29290  11.509   2.289  14.294 -0.2714 -0.2927  0.2656
13030W        W29291  13.113  12.569   3.669 -0.0109  0.1643  0.4052
13031W        W29292   8.422   9.173  13.311 -0.2427  0.0595  0.0815
13032W        W29293   9.439   3.870  11.646  0.1739  0.0055  0.0483
13033W        W29294   0.416   6.737   4.183 -0.0024 -0.1626  0.1828
13034W        W29295   6.118  13.195  14.884  0.0205  0.0048 -0.1583
13035W        W29296  12.994   3.560   5.508 -0.2208 -0.1478  0.0664
13036W        W29297  10.286  16.290   3.972 -0.2911 -0.4176  0.0958
13037W        W29298   6.183   6.408   4.181  0.0469 -0.1119 -0.2621
13038W        W29299   0.158  12.689   1.758 -0.0351  0.1138 -0.0808
13039W        W29300  18.092  13.538   1.710 -0.2722  0.1189 -0.1774
13040W        W29301  15.711  17.220   3.737  0.1037 -0.1404 -0.0666
13041W        W29302  14.818  14.543  13.882  0.4090 -0.0701  0.3050
13042W        W29303   3.801   6.036   4.399  0.5043 -0.1155  0.0226
13043W        W29304  11.772   4.313   4.440  0.2511  0.0403  0.1301
13044W        W29305   5.101  12.157  12.207 -0.1368 -0.2377 -0.3189
13045W        W29306   7.950  16.374  16.060 -0.4728  0.1016 -0.1135
13046W        W29307  18.012   4.007  15.538 -0.0822 -0.0177  0.4761
13047W        W29308  12.738   8.316   0.744  0.1925  0.3814  0.3458
13048W        W29309  10.776   3.522   0.806  0.1882  0.1436  0.1205
13049W        W29310  12.590  13.267   0.359 -0.0800 -0.0560  0.3802
13050W        W29311   8.557   9.907  12.208  0.1068 -0.1242 -0.0810
13051W        W29312  12.510   5.743   4.328  0.0791  0.0563  0.1796
13052W        W29313  11.382   0.382   2.954 -0.1140 -0.2114 -0.2197
13053W        W29314  17.008   6.637  12.999  0.2292  0.0954 -0.0032
13054W        W29315   8.691  17.513   0.771  0.0045 -0.1051 -0.1930
13055W        W29316  12.856  10.876  14.598 -0.3370  0.1452  0.3202
13056W        W29317  14.049   8.735  11.242  0.0546  0.2056  0.0759
13057W        W29318  11.457   2.355  13.807  0.2391  0.0611  0.0235
13058W        W29319  11.644   4.331  11.733 -0.0614 -0.1998  0.2459
13059W        W29320  13.525  15.565  13.967  0.1357  0.0751  0.0913
13060W        W29321  14.920   1.406   5.119 -0.2078 -0.1218  0.1841
13061W        W29322   8.786   4.559   5.590  0.5505  0.2118  0.1362
13062W        W29323   4.406   5.479   6.632  0.2779 -0.1143  0.4835
13063W        W29324   0.667  18.035  14.026  0.0385 -0.0127 -0.1873
13064W        W29325   0.791   0.606  12.525 -0.1397 -0.1671 -0.0895
13065W        W29326  17.882   1.618   0.300 -0.2639  0.1098  0.1658
13066W        W29327   1.479   6.881   3.709  0.0769  0.0691  0.1200
13067W        W29328   9.449   0.366  11.363 -0.1359  0.2917  0.2322
13068W        W29329   0.760  17.211   1.111  0.1464 -0.1251  0.3708
13069W        W29330  15.592   5.661  13.792  0.0094  0.1465 -0.1438
13070W        W29331   4.057   7.188   4.787  0.1868 -0.1597 -0.1583
13071W        W29332   5.917   7.285   1.882  0.0620 -0.1364  0.1096
13072W        W29333  13.108   6.479   2.919  0.0242 -0.0148 -0.2137
13073W        W29334  13.595  14.729  13.858  0.1458 -0.0832 -0.2239
13074W        W29335  11.053  15.130   1.506 -0.1455  0.0525 -0.3108
13075W        W29336   0.967  11.530  15.812  0.2292 -0.0961 -0.0094
13076W        W29337  15.886  16.273   3.938  0.0899 -0.1703 -0.0949
13077W        W29338   3.465  13.817   3.172  0.1668  0.0289 -0.1104
13078W        W29339  13.023  12.915  10.994 -0.1797  0.0624  0.3843
13079W        W29340   5.660  11.380   0.676 -0.2389  0.0903  0.3334
13080W        W29341   9.557  17.703  15.464 -0.1859 -0.3788  0.0144
13081W        W29342  10.979  10.835   1.684 -0.1036 -0.3757  0.1487
13082W        W29343   4.704  12.174   5.614 -0.0575  0.0707  0.2686
13083W        W29344   9.707   8.687   0.892  0.1114  0.0224 -0.2727
13084W        W29345  13.437   7.077   1.497  0.2079  0.1487  0.2366
13085W        W29346   9.534   1.668  14.359  0.2385 -0.2052 -0.0168
13086W        W29347   0.116   5.426  10.405 -0.3659  0.0950 -0.1116
13087W        W29348   9.224  14.846   6.158 -0.3756 -0.0024  0.0096
13088W        W29349   2.839   3.230  11.696  0.0377 -0.0398 -0.2992
13089W        W29350   5.612   3.030   0.533 -0.3414  0.1333  0.0843
13090W        W29351   4.467   5.157   1.711 -0.5163  0.2018  0.2392
13091W        W29352   4.632   7.631  15.168 -0.0267  0.1368 -0.0459
13092W        W29353   0.735  18.274   3.229  0.2180 -0.2453  0.2597
13093W        W29354   6.416  11.252   2.442 -0.2821  0.0638  0.3546
13094W        W29355  18.017   5.491   1.291 -0.0589 -0.0401  0.1753
13095W        W29356  11.925   2.000  10.466  0.2261 -0.0638 -0.0511
13096W        W29357  16.957   1.688   0.774 -0.0974  0.1063 -0.3739
13097W        W29358  14.642   5.759   1.746  0.2521  0.1221  0.2151
13098W        W29359  13.204   6.884   5.528 -0.1527  0.3217 -0.2657
13099W        W29360   4.348  12.536  12.024  0.1515  0.1657  0.1476
13100W        W29361  11.350   8.141   5.126  0.1913  0.2164  0.0311
13101W        W29362   2.225  15.732  11.684 -0.0416  0.0613 -0.0361
13102W        W29363  11.801   1.872   0.879 -0.1271  0.1554 -0.1714
13103W        W29364   2.428  16.848  13.268  0.1636  0.3042 -0.0555
13104W        W29365  14.374  16.153   2.373  0.3003 -0.2620 -0.2059
13105W        W29366  17.989  16.067  14.063 -0.0276  0.0190 -0.1509
13106W        W29367  11.878  15.907  12.182  0.1321  0.2326 -0.1363
13107W        W29368  15.172  12.924  10.052  0.2534 -0.2028  0.1414
13108W        W29369   0.700   2.929  15.249  0.2364  0.0321 -0.0189
13109W        W29370  10.145  13.337  10.649 -0.0282  0.1628  0.0350
13110W        W29371   8.324  16.252   0.419 -0.0262 -0.1412 -0.0501
13111W        W29372   1.518  17.482   0.043 -0.0323  0.0086 -0.1802
13112W        W29373  13.419  16.363   1.682  0.1302  0.2772 -0.1472
13113W        W29374  16.655   4.983   3.065  0.0366 -0.0851 -0.0130
13114W        W29375  13.562   1.456   4.352 -0.1123  0.1974 -0.1689
13115W        W29376   3.657  11.830  14.839 -0.0521  0.1429  0.0414
13116W        W29377   0.566   0.810   1.401  0.2036 -0.2042  0.0266
13117W        W29378   5.966   4.450   4.324  0.1343  0.1613 -0.1492
13118W        W29379  18.363  16.298   4.513 -0.1908 -0.2862  0.3666
13119W        W29380   5.505  13.047   4.222  0.1833 -0.2932  0.0176
13120W        W29381  17.096   7.116  15.925 -0.0440 -0.4344  0.0594
13121W        W29382   0.476   0.703  10.660  0.1355 -0.0781 -0.0072
13122W        W29383  10.088   2.735   4.770  0.0902  0.1343  0.2655
13123W        W29384  17.051  15.391  10.394  0.2178 -0.0368  0.1337
13124W        W29385  10.407   3.153  13.637  0.0366 -0.2890 -0.2338
13125W        W29386  11.205  14.747  15.386  0.3214  0.3787 -0.3271
13126W        W29387  11.017  18.220  13.999  0.2630 -0.0482 -0.2520
13127W        W29388  11.406  15.928   4.557 -0.0084  0.2618  0.1396
13128W        W29389   3.749   8.281   4.998  0.1487  0.0292  0.0439
13129W        W29390   7.806   3.661   2.775 -0.1698 -0.0369  0.3902
13130W        W29391  13.175   7.724   6.051  0.1133 -0.0335  0.1371
13131W        W29392   4.382  13.347   3.206  0.1049  0.2376 -0.1057
13132W        W29393   2.817  16.398   1.399  0.0537  0.0446 -0.0624
13133W        W29394   2.262  13.900   2.756  0.5569 -0.0602 -0.0870
13134W        W29395  18.307   2.218   4.203  0.3322  0.2644 -0.0341
13135W        W29396   6.869  15.885  15.301  0.2705  0.1404  0.0034
13136W        W29397   5.714  16.556   4.458 -0.0900  0.0257 -0.1348
13137W        W29398   1.534  12.540  14.890  0.1738 -0.2255 -0.1249
13138W        W29399   6.776  13.511  12.007  0.0804 -0.0691  0.1975
13139W        W29400  12.324  16.066  12.797 -0.0799  0.1088 -0.3024
13140W        W29401   2.600  11.434  11.154 -0.1561  0.1406 -0.3083
13141W        W29402   4.933  12.131   1.404  0.0430 -0.0571  0.2554
13142W        W29403   2.391   6.376   5.175 -0.0889 -0.0119  0.2826
13143W        W29404  15.886  10.464   0.935 -0.5051 -0.2779 -0.1816
13144W        W29405   0.301   5.112   1.272 -0.2061 -0.1379 -0.0288
13145W        W29406  12.450  15.322  13.002 -0.1239 -0.4377  0.1153
13146W        W29407  14.571   6.600  13.923  0.0324 -0.2892  0.0134
13147W        W29408  12.353   1.171   3.589  0.1473  0.1788  0.1637
13148W        W29409   0.698  13.683   4.935 -0.3290  0.1312 -0.0443
13149W        W29410   5.722  14.269   2.572  0.0867 -0.3218  0.0351
13150W        W29411  12.780  16.007  11.948 -0.0987 -0.0731 -0.2797
13151W        W29412  11.691   2.122  12.042 -0.0179  0.1184  0.3517
13152W        W29413   3.593   5.926   2.798 -0.1046 -0.1902 -0.0328
13153W        W29414   7.420   6.375   4.203  0.0022  0.0791 -0.1348
13154W        W29415   4.328  10.886  12.214 -0.2155 -0.2415  0.1885
13155W        W29416   3.741   2.675  12.481 -0.0356  0.2068  0.2476
13156W        W29417  12.611  11.733   1.633  0.0857 -0.0371  0.1299
13157W        W29418  12.672   6.017   3.547  0.2547  0.0709 -0.0545
13158W        W29419   0.751  15.762  13.918 -0.3278 -0.1666 -0.0076
13159W        W29420  18.112  13.576   4.982 -0.0481 -0.1416 -0.0946
13160W        W29421  10.885   3.280   0.215  0.2123  0.1178 -0.1535
13161W        W29422   6.400   5.812   4.941 -0.4385 -0.0105 -0.0753
13162W        W29423  16.409  14.192   4.715 -0.0085  0.0864  0.1743
13163W        W29424   7.691   1.372   3.309 -0.2900  0.3461  0.0569
13164W        W29425   6.538  15.158  14.870 -0.0569  0.0315 -0.1288
13165W        W29426  18.272  15.113   5.679  0.1545 -0.0991 -0.0044
13166W        W29427   8.140  15.978   0.046  0.0943 -0.0205 -0.2125
13167W        W29428   8.909  16.740  15.630 -0.0651 -0.0756  0.2543
13168W        W29429   1.020   0.537  12.993  0.0667 -0.1803 -0.1495
13169W        W29430  18.234  10.286  13.049  0.2465  0.0708  0.1067
13170W        W29431   4.000  14.172   5.623  0.0159 -0.1052 -0.1098
13171W        W29432  13.136   2.940  14.339 -0.1679  0.2009  0.2740
13172W        W29433  17.393   1.476  11.012 -0.3928  0.2521  0.2255
13173W        W29434   5.125   1.612   0.754 -0.1228 -0.3366  0.0689
13174W        W29435  17.019   0.440  11.276  0.0411  0.3862 -0.2984
13175W        W29436   3.977  16.787   3.299 -0.0467  0.2022  0.4577
13176W        W29437  17.562  13.233  14.496  0.1419  0.1116 -0.0067
13177W        W29438  11.575   2.291  10.633  0.0193 -0.0204 -0.0998
13178W        W29439  16.691   0.647  15.271  0.0306  0.3083  0.1626
13179W        W29440   5.916   8.993  13.359 -0.3246 -0.1806 -0.3194
13180W        W29441   7.196  10.953  13.895  0.0194  0.0381 -0.3785
13181W        W29442   8.812   4.634  12.603  0.1579 -0.2034  0.0139
13182W        W29443  15.521  12.474  12.023 -0.2778 -0.0416 -0.3105
13183W        W29444  15.633  13.251   1.939  0.1457  0.0782  0.0616
13184W        W29445   0.555   9.845  13.159 -0.0191 -0.1156  0.3432
13185W        W29446  10.554  10.529   0.524 -0.0525  0.1362  0.0355
13186W        W29447  15.882   0.441  11.492  0.0000  0.0993  0.3250
13187W        W29448   0.077  14.312  14.185  0.1841 -0.2293  0.1266
13188W        W29449   8.235   7.192   4.697  0.2985 -0.0706  0.1763
13189W        W29450  16.777   5.236  12.564 -0.1079 -0.2603 -0.0019
13190W        W29451  15.410  17.854   0.379  0.1438 -0.2827 -0.0554
13191W        W29452   8.026  11.732   1.849 -0.2316  0.0212  0.3048
13192W        W29453   2.312   9.740   4.467  0.0832 -0.0710 -0.1882
13193W        W29454  12.591   6.300   4.536  0.2245  0.2864  0.4606
13194W        W29455  15.297  16.182  12.837  0.1528  0.4039 -0.2200
13195W        W29456  13.981  17.853   0.738 -0.1853 -0.2074  0.3150
13196W        W29457   6.605   2.516  13.244  0.0820 -0.1174 -0.1471
13197W        W29458   6.828  13.775   1.121  0.3151 -0.0947 -0.4110
13198W        W29459   4.587  16.021   3.948  0.2934  0.4015  0.0182
13199W        W29460  10.580   3.004  14.974 -0.0934 -0.1524  0.0928
13200W        W29461   7.037  12.962  13.205 -0.0400  0.1821  0.0238
13201W        W29462   8.968  10.580   5.329 -0.1998 -0.2741  0.1257
13202W        W29463  13.575   1.933  12.143  0.1811  0.2268 -0.0955
13203W        W29464   3.320   9.653  15.896  0.0326  0.1472 -0.2696
13204W        W29465   4.659   9.029  11.935 -0.0136  0.0079  0.0352
13205W        W29466   3.960  14.980  14.539 -0.2908  0.2195  0.0437
13206W        W29467  10.076  12.987   4.795 -0.2053 -0.1672  0.0325
13207W        W29468  15.717  11.474  15.876 -0.1212 -0.2908 -0.3132
13208W        W29469   8.186  13.597   2.596 -0.2705 -0.2908  0.2156
13209W        W29470   0.077  13.996   3.929 -0.0671 -0.0062 -0.0284
13210W        W29471   0.098   9.748   2.280 -0.0381  0.1535 -0.0868
13211W        W29472   9.970   5.407  16.096  0.2020 -0.0265  0.2439
13212W        W29473   8.729   4.007  16.004  0.2415 -0.0860 -0.0848
13213W        W29474   7.403  12.765  14.351 -0.0334 -0.1066  0.2350
13214W        W29475   0.828  13.189   4.006  0.1798 -0.3727  0.0528
13215W        W29476   7.880  16.370   4.266  0.3071  0.1757 -0.4514
13216W        W29477  11.640  15.538  15.162 -0.0205 -0.0519  0.0057
13217W        W29478   3.802   7.064  13.889  0.2585  0.0359 -0.3618
13218W        W29479   4.805  14.496  14.230  0.2064  0.3025 -0.0773
13219W        W29480   9.529   0.616  15.236 -0.0380  0.1293 -0.0359
13220W        W29481   4.503   7.284  11.615  0.1976 -0.0948  0.1614
13221W        W29482   2.711  12.782   2.370 -0.0629  0.4335  0.1650
13222W        W29483   3.811   3.068  13.892  0.0236 -0.2327 -0.1604
13223W        W29484   1.404  12.817  14.475 -0.5915  0.1226  0.1415
13224W        W29485  15.789  10.155   2.596 -0.2363  0.1750 -0.2856
13225W        W29486   5.104   3.332   3.025  0.3770 -0.0937  0.3317
13226W        W29487  17.640   2.646  11.985  0.0586  0.2344  0.0793
13227W        W29488  17.811   2.698  12.472  0.1362  0.0174  0.0366
13228W        W29489   6.344   1.081   0.347 -0.1228 -0.1389  0.0218
13229W        W29490  13.312   1.778  13.793 -0.0945 -0.0848  0.1109
13230W        W29491   2.234   3.071   2.915 -0.0758  0.2404  0.1399
13231W        W29492  12.830  16.434  13.966  0.3787  0.0258 -0.2873
13232W        W29493   3.031   3.489  13.916  0.2168 -0.2796  0.1234
13233W        W29494  10.617   6.721  11.444  0.0772  0.1083 -0.1108
13234W        W29495   1.524  16.755   3.712  0.0274  0.0015 -0.0008
13235W        W29496  11.461   7.818   4.633 -0.0251 -0.0060  0.1042
13236W        W29497  11.353  13.001   4.136 -0.0879  0.0080 -0.2435
13237W        W29498  12.431   5.482   1.994  0.0794 -0.0143 -0.3005
13238W        W29499  13.819   0.965  14.890  0.0617  0.0633 -0.1082
13239W        W29500   5.165   3.644  14.439  0.2342  0.0649  0.1398
13240W        W29501  13.324  14.941  10.411 -0.2196 -0.0760  0.0253
13241W        W29502   2.778  18.169  15.737 -0.0632 -0.0735 -0.1246
13242W        W29503  13.017  15.530   1.381  0.3880  0.0129 -0.0397
13243W        W29504  18.208   0.956  15.609  0.1583  0.1639 -0.1713
13244W        W29505   3.028  11.696   0.823  0.1369 -0.1680 -0.2340
13245W        W29506  15.285  17.143  11.931  0.2316  0.1462  0.0995
13246W        W29507  15.325  11.833  13.180 -0.0743 -0.1694 -0.0841
13247W        W29508  16.998  12.419   3.966  0.0371  0.0654  0.1065
13248W        W29509  12.233   1.812  11.326  0.0274  0.2011 -0.1039
13249W        W29510  15.732  17.970   3.007  0.4666  0.0812  0.0876
13250W        W29511   0.161   3.132  11.259  0.1493 -0.0087 -0.0924
13251W        W29512   7.337   4.018   5.614  0.1607  0.0000 -0.1205
13252W        W29513  17.828  11.851  13.373 -0.0845 -0.1421 -0.0778
13253W        W29514  17.517   7.531   4.612 -0.0557  0.1043  0.2801
13254W        W29515   5.247   7.029  13.987 -0.1410 -0.0065  0.1995
13255W        W29516  15.497   6.451  11.082  0.0952 -0.0563  0.0456
13256W        W29517   6.932  14.222   0.083  0.1873  0.1722 -0.0972
13257W        W29518   5.360   8.697   5.450  0.2023  0.4267 -0.1941
13258W        W29519  16.720   2.775   4.772 -0.1795  0.0654  0.0833
13259W        W29520   7.295   5.664   5.089  0.1731  0.3791 -0.0642
13260W        W29521   8.800   3.063   5.793 -0.0191 -0.4270  0.2319
13261W        W29522  16.156  13.357  11.439  0.0890  0.3064  0.0826
13262W        W29523  15.929   5.299  12.885 -0.0854 -0.1083  0.0806
13263W        W29524   5.248  15.834  14.228  0.0704  0.4015 -0.0388
13264W        W29525  15.721   1.290  13.767  0.2126  0.2692 -0.0986
13265W        W29526  10.336   4.383   1.057 -0.0264 -0.1419 -0.0319
13266W        W29527  12.625  15.093   0.116 -0.0348 -0.4616  0.3344
13267W        W29528  15.977  13.149  13.192  0.0527 -0.0391 -0.4057
13268W        W29529  12.198  18.127   1.503  0.0505  0.1191  0.4401
13269W        W29530   4.816   5.270  13.738  0.0238  0.0993  0.0332
13270W        W29531  14.819   9.063   2.038  0.0922 -0.2020  0.5190
13271W        W29532  16.017   1.515   4.877  0.2292 -0.5259 -0.1218
13272W        W29533   9.775  10.109   0.053  0.2212  0.0021 -0.1704
13273W        W29534   6.588   3.787  12.186 -0.0086  0.1472  0.2480
13274W        W29535  18.220   3.919   2.886 -0.0132 -0.2216  0.1889
13275W        W29536   3.399  13.722   0.250  0.2167 -0.0421  0.0362
13276W        W29537  11.885   1.371   2.318  0.3443  0.0288  0.1618
13277W        W29538   3.893   0.678   4.474  0.2284  0.1669 -0.0245
13278W        W29539  17.423  12.778  14.711 -0.0188 -0.2183  0.2127
13279W        W29540   9.576  10.256  13.751  0.0290  0.2953  0.0978
13280W        W29541   7.863   4.502   0.127 -0.1995  0.1636  0.0146
13281W        W29542   3.528   3.152  13.508  0.4620  0.0110  0.1481
13282W        W29543   2.534  13.568  13.467 -0.0197  0.3719 -0.2972
13283W        W29544  18.172   2.601  13.250 -0.1923 -0.1597  0.2202
13284W        W29545  10.822  13.320  10.869 -0.1577 -0.4448 -0.2221
13285W        W29546  10.501   5.591   1.957 -0.0476  0.0444  0.1520
13286W        W29547  15.198   3.105   2.567 -0.0392  0.1644 -0.0312
13287W        W29548   6.233   4.052  12.970  0.1040 -0.0830  0.0724
13288W        W29549  11.022  15.872   3.327 -0.2269 -0.0003 -0.1476
13289W        W29550  15.045   1.443   4.603  0.0804 -0.1537 -0.0140
13290W        W29551  12.556  18.150  15.357  0.0761  0.0567 -0.0348
13291W        W29552  10.600   2.527   2.627 -0.3226  0.1623 -0.1637
13292W        W29553  10.478   3.407  14.169 -0.0834  0.2250  0.2027
13293W        W29554   1.832   0.159  11.021 -0.0006 -0.2380  0.1614
13294W        W29555   8.859   0.681  13.134 -0.1824 -0.0452 -0.2127
13295W        W29556  14.580  14.392   4.380 -0.1846  0.2117 -0.3029
13296W        W29557  11.050  16.883  15.668 -0.0100 -0.0301 -0.0478
13297W        W29558  17.435   8.645  15.161  0.0788 -0.2209  0.1983
13298W        W29559  16.244  16.598  12.911 -0.0579 -0.2406  0.1805
13299W        W29560   7.285   0.362  13.446  0.0827  0.0183 -0.2072
13300W        W29561   0.447   9.669   5.654  0.0639 -0.0934 -0.0450
13301W        W29562  15.608  18.116   0.731 -0.0345  0.3556 -0.1450
13302W        W29563  10.427  15.045  12.603 -0.3546 -0.2331 -0.0784
13303W        W29564   8.031  15.342   3.025  0.0032 -0.0262  0.2376
13304W        W29565  14.995  18.405  14.089 -0.0850  0.0572 -0.1049
13305W        W29566  14.156  12.251   5.344  0.0234 -0.2408  0.1822
13306W        W29567  12.557   4.142  14.902 -0.1709  0.1563  0.0451
13307W        W29568   2.189   3.899   0.458  0.3046  0.0469 -0.1787
13308W        W29569   5.652   2.934   4.914 -0.1806  0.2055  0.1992
13309W        W29570  11.268   3.517  14.735  0.0670 -0.0702 -0.1614
13310W        W29571  16.655   3.972   2.936  0.0958  0.0278  0.4849
13311W        W29572  13.860   7.321   1.336  0.5128  0.1296  0.0115
13312W        W29573   2.798  14.243   2.850 -0.1792  0.2612  0.0073
13313W        W29574   5.103   8.622   1.086 -0.2356  0.0732  0.1422
13314W        W29575   8.375   4.653   0.223  0.0868  0.1514  0.3392
13315W        W29576   9.504   6.834  11.978  0.0077 -0.0473 -0.1932
13316W        W29577  10.726  13.594   4.328  0.0110  0.5403  0.5338
13317W        W29578   8.365   9.446  14.662  0.0667 -0.1771 -0.0890
13318W        W29579  16.934  12.289  16.014  0.0232  0.0652 -0.1848
13319W        W29580  11.788   1.935   2.306  0.2284 -0.0633  0.0597
13320W        W29581   6.493   0.943   2.674 -0.2084 -0.2675  0.2287
13321W        W29582   4.787   6.870  13.894  0.1378  0.0198  0.0022
13322W        W29583   8.715   7.517   0.368 -0.1006  0.1073  0.0846
13323W        W29584  14.192  17.245   2.186 -0.0998 -0.2492 -0.0297
13324W        W29585   8.584   8.018   0.420 -0.1560  0.2723  0.1822
13325W        W29586  12.109   9.116  15.779  0.0790  0.2389  0.2420
13326W        W29587  15.646   9.930   1.155  0.2220  0.2409 -0.1293
13327W        W29588  14.155  15.123  15.604 -0.0588 -0.1585  0.3206
13328W        W29589   8.550   5.125   0.007  0.1790  0.2473 -0.1709
13329W        W29590  12.291  13.197  13.443 -0.2090 -0.3019  0.2420
13330W        W29591  10.808   4.833  12.578 -0.2726  0.0345  0.0964
13331W        W29592   2.903   7.283   0.562 -0.3931 -0.0253 -0.2386
13332W        W29593  10.743   1.883  15.369 -0.0165 -0.4135 -0.0330
13333W        W29594  11.730  14.970  16.107  0.0684 -0.0542  0.1645
13334W        W29595   3.554  13.138  15.910 -0.0919 -0.1309 -0.2317
13335W        W29596   3.814   3.878  12.963 -0.0697  0.2422  0.0760
13336W        W29597  14.700   7.308  13.284  0.1251  0.1331 -0.0950
13337W        W29598   6.285   1.802   5.311 -0.0344 -0.3250 -0.0965
13338W        W29599   6.382  13.928  13.603  0.0658 -0.2982  0.2125
13339W        W29600   3.157  11.780   1.822  0.2635  0.4669  0.0404
13340W        W29601   1.524   9.155   5.411 -0.0286 -0.3652  0.0794
13341W        W29602  13.934   8.298  12.234 -0.1275  0.0204  0.1452
13342W        W29603   2.327   9.672   3.922  0.1117 -0.0548  0.1132
13343W        W29604   8.463  14.022  15.731  0.0024  0.1567  0.3424
13344W        W29605   9.426   6.054  13.744 -0.0924 -0.0019  0.0791
13345W        W29606   5.402   5.179  14.865 -0.1604 -0.2185  0.1153
13346W        W29607   1.767  14.572   0.783  0.1213 -0.2000 -0.2836
13347W        W29608   3.794  17.199   3.061 -0.0870 -0.3255 -0.0354
13348W        W29609   5.247   2.286   1.466 -0.0566 -0.0487 -0.1927
13349W        W29610   3.893   2.846   3.066  0.0316 -0.2627  0.3238
13350W        W29611   9.831   3.988  15.261 -0.0708 -0.2812 -0.2424
13351W        W29612   1.379   0.443  14.716 -0.1827  0.2687  0.3340
13352W        W29613   7.429   5.008   0.449 -0.4058  0.0807  0.0151
13353W        W29614   5.204  15.213   0.707  0.2819 -0.2721  0.0161
13354W        W29615  12.940  13.619   4.632  0.1654 -0.1071  0.0791
13355W        W29616  16.791   0.612   1.906  0.1491 -0.3236  0.1327
13356W        W29617  17.328  18.159  11.546  0.3286  0.0868 -0.2001
13357W        W29618   5.329  13.314   5.478 -0.3155  0.2008 -0.0445
13358W        W29619   5.822  12.684  11.925 -0.0752 -0.0660 -0.1249
13359W        W29620   6.643  15.476   1.679  0.0225  0.1004 -0.2511
13360W        W29621  18.159  12.352   3.707  0.2490  0.0176  0.2559
13361W        W29622  14.521   5.502  13.911  0.0093 -0.0639 -0.0531
13362W        W29623   7.232  14.873  15.423 -0.1640  0.0511 -0.0759
13363W        W29624  16.522  17.525  15.818 -0.3974 -0.3240 -0.2327
13364W        W29625  12.188  10.229   4.623  0.0184  0.0487 -0.0181
13365W        W29626  14.610   0.474   4.850 -0.0797 -0.4231  0.0539
13366W        W29627   0.974   0.661   5.346  0.0672  0.0572 -0.2217
13367W        W29628   7.421   9.422  12.895 -0.2268 -0.0037 -0.0611
13368W        W29629   4.793  14.078   2.096  0.1800  0.0418 -0.1681
13369W        W29630  15.689  15.519  15.336 -0.1051 -0.1816 -0.0520
13370W        W29631   2.928   8.050  15.626 -0.2139 -0.0892 -0.2677
13371W        W29632  14.487  14.832  14.142 -0.1119 -0.0388 -0.0566
13372W        W29633   8.343  11.599  12.523  0.0948 -0.2033 -0.0171
13373W        W29634  10.767   6.094   2.021  0.0186  0.0757  0.1421
13374W        W29635  10.430   5.806  10.982  0.0511 -0.3873  0.2399
13375W        W29636   1.635   7.716   1.803 -0.0834 -0.1556 -0.1128
13376W        W29637   7.545  11.463   3.419  0.0904  0.1815  0.1282
13377W        W29638   5.878  16.969   2.288 -0.0442  0.0889 -0.0029
13378W        W29639   5.159  14.149  11.610  0.1947  0.2195 -0.1377
13379W        W29640   3.214  14.323   2.506 -0.2843  0.2257  0.1510
13380W        W29641   4.027  10.389   5.480  0.3019 -0.4322 -0.1611
13381W        W29642   9.188  15.737  13.959  0.2440  0.2735  0.3208
13382W        W29643  15.996  12.308  15.884  0.2677  0.0505 -0.0886
13383W        W29644   8.320   5.778   0.950 -0.1607 -0.0782  0.2269
13384W        W29645   1.049   9.697   3.896 -0.2905  0.1264 -0.1504
13385W        W29646  12.081  12.628   3.723  0.3817 -0.0070 -0.0003
13386W        W29647   7.602   6.836   2.498 -0.2122 -0.0530  0.6425
13387W        W29648  15.243  14.372  13.697  0.0609 -0.2029 -0.2965
13388W        W29649   6.103  13.887  12.895 -0.0352  0.1772 -0.0225
13389W        W29650  16.475  15.126  15.486 -0.2371 -0.0006 -0.0171
13390W        W29651  11.645  13.975  11.024  0.3819 -0.3955 -0.1209
13391W        W29652   7.309   9.408   4.928 -0.1879  0.5044 -0.0041
13392W        W29653   2.878  16.908   1.435  0.0384  0.4203 -0.0137
13393W        W29654   6.903  15.325   2.103 -0.0145 -0.0828 -0.1528
13394W        W29655   8.074   3.051   1.416 -0.0893  0.3785 -0.3379
13395W        W29656   4.496  15.257   6.106 -0.2193  0.4717  0.1101
13396W        W29657  13.536   0.547   3.902 -0.0541  0.0707 -0.0737
13397W        W29658   1.759   8.402  12.278 -0.2768 -0.0489 -0.0739
13398W        W29659   8.335  15.680   4.599 -0.0671  0.0666 -0.1164
13399W        W29660   3.905  14.054   3.239  0.0833  0.0667 -0.1222
13400W        W29661   6.880   5.884  15.644 -0.2804 -0.4533 -0.0336
13401W        W29662   8.005   3.063  14.662  0.4153  0.0729  0.2014
13402W        W29663  17.442  14.365  15.947 -0.0010 -0.2141  0.2728
13403W        W29664   8.187   8.520   1.477  0.0620  0.0926  0.0254
13404W        W29665   4.594   7.013   5.036  0.0042  0.2845  0.1950
13405W        W29666  13.583   1.710   3.104 -0.1007  0.1984 -0.0475
13406W        W29667  12.571  13.051  10.153 -0.2742 -0.3740  0.0138
13407W        W29668   5.342   1.618  15.503 -0.1236  0.5278  0.1053
13408W        W29669   6.125   8.904  14.442  0.4547  0.5988 -0.3760
13409W        W29670   3.710   2.390   3.004  0.0979  0.2127 -0.1874
13410W        W29671   8.607   6.369   5.812  0.2290  0.1126  0.3552
13411W        W29672  14.165  10.808  14.017  0.0211 -0.4741  0.0488
13412W        W29673  12.803  18.065   1.660  0.1526 -0.2253  0.2084
13413W        W29674  14.809   4.631   4.093 -0.0782 -0.0629  0.1040
13414W        W29675   7.372   0.925  13.357  0.0064  0.1031 -0.4025
13415W        W29676   6.613  12.374   0.890 -0.1630 -0.1159 -0.2235
13416W        W29677  13.650   5.358  16.149 -0.0677  0.1589  0.0120
13417W        W29678  18.421   5.908  13.396  0.4733  0.0543 -0.1759
13418W        W29679  15.697   8.804  13.067  0.0691  0.1580  0.3305
13419W        W29680  10.620   4.276   6.461  0.2056 -0.0711 -0.0515
13420W        W29681   4.538   2.759  15.236 -0.3103  0.0608 -0.0234
13421W        W29682  15.572   8.385   1.714 -0.0935 -0.4760 -0.0117
13422W        W29683  17.232  14.527   0.156 -0.1592  0.2155 -0.1276
13423W        W29684  17.154   6.943  14.849  0.1623 -0.1523  0.1803
13424W        W29685   0.448  12.493   4.508  0.2274 -0.1125 -0.0496
13425W        W29686   2.203   5.400  15.248  0.1749 -0.2912 -0.1148
13426W        W29687  12.480   1.764  12.653  0.0526  0.1032  0.0789
13427W        W29688  17.248   0.555   0.865 -0.2365 -0.1143 -0.1823
13428W        W29689   2.521  17.230   1.754 -0.0269  0.0556  0.5940
13429W        W29690  15.876   9.439  15.297  0.2243  0.2077  0.0210
13430W        W29691  17.741   0.064  11.189  0.1475  0.2581  0.0509
13431W        W29692  10.860   8.445  13.470  0.0288 -0.0342  0.2546
13432W        W29693  16.452   2.090  12.561  0.1973 -0.4172 -0.0268
13433W        W29694   2.016  11.614  14.108  0.0560 -0.1900 -0.2357
13434W        W29695   3.832   8.418   5.555 -0.0676  0.0436 -0.0963
13435W        W29696   3.254   8.628  12.975 -0.1059 -0.1251 -0.1152
13436W        W29697   6.087  12.611  14.783  0.4174 -0.1624  0.0391
13437W        W29698   2.987  11.375   4.935  0.2181 -0.1268 -0.3016
13438W        W29699  15.308   0.407   1.272 -0.0551  0.0211 -0.1522
13439W        W29700   6.761  17.275   2.620  0.3756  0.1319  0.2528
13440W        W29701  10.591   7.344  15.026 -0.2251  0.3938  0.0020
13441W        W29702   1.537  16.375   1.576 -0.1152 -0.1675 -0.1144
13442W        W29703   4.615   3.266   5.971 -0.0249 -0.2458  0.2529
13443W        W29704   0.467  17.116   2.459 -0.2180 -0.2878 -0.0141
13444W        W29705  14.064   6.754  14.097 -0.0582 -0.1814  0.0571
13445W        W29706  17.019  11.884  12.235 -0.0136 -0.0053 -0.0503
13446W        W29707   9.408   7.591   2.007  0.1001  0.2792  0.1266
13447W        W29708   0.605   0.306   2.548 -0.0991 -0.0440  0.0928
13448W        W29709   3.872   6.726  15.023 -0.0008  0.0266 -0.0413
13449W        W29710   3.339   3.931  16.059 -0.0756  0.0622  0.2691
13450W        W29711  16.040   8.471  15.379  0.0746  0.1854  0.0871
13451W        W29712  10.025  10.170  15.055  0.0964 -0.2299  0.1984
13452W        W29713  11.289   0.651   1.394  0.0151  0.2990  0.0936
13453W        W29714   3.935   2.513   4.586  0.1285 -0.3894  0.1754
13454W        W29715  17.347   9.283   5.775  0.0286  0.3000 -0.2725
13455W        W29716   1.221   1.722  11.681  0.0344  0.0309 -0.0676
13456W        W29717  13.122   2.202  13.583  0.2529 -0.1539  0.0916
13457W        W29718  16.390   7.337  12.546 -0.0283  0.0194  0.0548
13458W        W29719  15.676  12.247   4.364  0.3405  0.0052  0.0578
13459W        W29720  18.326  17.778   0.860 -0.1322 -0.4039 -0.3858
13460W        W29721   3.239  12.027  13.167 -0.1242  0.5133  0.1017
13461W        W29722   1.513   2.836   2.978  0.3787  0.0043 -0.1742
13462W        W29723   7.462   0.947   2.475  0.1061  0.0427  0.3474
13463W        W29724  12.870   0.138   0.364  0.1365  0.2918  0.2262
13464W        W29725   3.066  14.452   4.402 -0.0427 -0.0495 -0.0625
13465W        W29726   1.115   7.104  13.860  0.2684  0.0867  0.1307
13466W        W29727   5.679   0.479   0.120 -0.2469  0.1144 -0.0787
13467W        W29728   8.161   1.802  15.504  0.0280  0.2036  0.0056
13468W        W29729   1.943  16.015   2.989 -0.0323 -0.1141 -0.0785
13469W        W29730  16.073   3.871  14.567 -0.2784  0.1729  0.1130
13470W        W29731   3.143  11.994   4.009 -0.1126 -0.0840  0.0336
13471W        W29732  13.038  18.231   2.525  0.2065 -0.0771  0.1776
13472W        W29733   5.573   0.334   2.901  0.1388 -0.2026 -0.3174
13473W        W29734   2.797   4.815  13.303 -0.0824 -0.0686 -0.1943
13474W        W29735  11.276   0.073  14.228 -0.0366 -0.0895  0.0837
13475W        W29736   3.084  14.351   1.839  0.0147 -0.0846 -0.3341
13476W        W29737  15.299   0.421  14.027 -0.1329  0.1926 -0.1873
13477W        W29738   7.415  14.396  12.856 -0.1187 -0.0346 -0.2289
13478W        W29739   2.511  11.261  14.270 -0.1127 -0.3331 -0.0672
13479W        W29740   6.208  14.732  14.123  0.0341 -0.2123  0.0469
13480W        W29741  15.780  15.554   4.510 -0.2385 -0.3041 -0.0431
13481W        W29742   4.121  13.301  14.680 -0.0581  0.0979 -0.0867
13482W        W29743   6.782  18.211  14.435  0.0028 -0.0817 -0.2038
13483W        W29744  14.448  18.143   3.175  0.2622  0.1293  0.0257
13484W        W29745  18.155  12.020  11.688  0.3003 -0.2225 -0.1983
13485W        W29746   3.724  11.262   2.605 -0.1465 -0.0424  0.3702
13486W        W29747   9.231   0.529  10.956 -0.2445  0.3651  0.1212
13487W        W29748   9.472  12.750  13.542  0.4764  0.0140 -0.1658
13488W        W29749   7.691   3.222   2.555 -0.0613  0.1088  0.2456
13489W        W29750   6.533  11.255  15.436 -0.1614  0.0710 -0.0560
13490W        W29751   5.996   9.515   3.973  0.0171  0.0802  0.0066
13491W        W29752   0.947  17.559  13.364  0.0231 -0.0376 -0.2497
13492W        W29753  15.888  15.735   3.975  0.1206  0.1807 -0.2261
13493W        W29754   2.557   8.478  15.042 -0.2585  0.1492 -0.2278
13494W        W29755   1.271  14.183   0.425 -0.1769  0.1124  0.1938
13495W        W29756   4.066   8.550  13.069  0.2330 -0.0767 -0.0095
13496W        W29757   0.962   3.074  12.376 -0.2541  0.3627  0.1520
13497W        W29758  10.761  11.966  15.463 -0.3187  0.0959 -0.1110
13498W        W29759   5.592  16.609  11.490 -0.0346  0.1184 -0.0845
13499W        W29760   3.979   9.389   0.874  0.0663 -0.0811 -0.0187
13500W        W29761   6.286   5.496   0.781 -0.0176 -0.4124 -0.0755
13501W        W29762   5.109   4.689  15.269 -0.1647 -0.2164  0.2437
13502W        W29763   6.703  15.308  13.612  0.0466 -0.0414  0.2557
13503W        W29764   5.139  13.513   0.770 -0.0555 -0.0008 -0.3454
13504W        W29765  13.571  11.546   0.318  0.0538  0.1515 -0.0090
13505W        W29766  10.734  10.906  11.776  0.2838 -0.6035 -0.1675
13506W        W29767  15.173  11.044   5.767 -0.1083  0.2848 -0.1774
13507W        W29768   1.841  15.371  11.552  0.0840  0.1805 -0.1055
13508W        W29769   8.319   9.533  11.130 -0.0672 -0.1077 -0.6210
13509W        W29770  10.702   9.346  13.303  0.0600 -0.0891 -0.4578
13510W        W29771   4.477   0.429  13.313  0.1248 -0.1725 -0.1118
13511W        W29772   3.681   0.247  12.547 -0.1708 -0.1076 -0.3975
13512W        W29773   1.471   9.648  12.818 -0.0787 -0.0642 -0.0255
13513W        W29774   3.574   0.281   5.803  0.0336  0.0047  0.0376
13514W        W29775  14.582   6.556   3.428 -0.1908  0.0085 -0.4680
13515W        W29776   5.268   1.586  13.852 -0.1787  0.0081  0.1164
13516W        W29777   9.071   2.210  16.069  0.0194 -0.2387 -0.1050
13517W        W29778  16.242   1.046   4.761  0.1277 -0.0643  0.3154
13518W        W29779  16.848  16.743   1.488  0.0862  0.1843 -0.1289
13519W        W29780   6.035   6.946  12.425  0.1476 -0.0976  0.1565
13520W        W29781  10.513   3.161   4.161  0.3772 -0.4328  0.1895
13521W        W29782  14.772  16.137  12.700  0.1575  0.0283 -0.3417
13522W        W29783   0.636  17.201  13.461  0.4587 -0.1090  0.2077
13523W        W29784  17.949  13.882  12.712  0.2426  0.0138  0.0948
13524W        W29785   0.036   7.672  11.901  0.2993  0.3609 -0.2513
13525W        W29786   9.189  12.338   3.012 -0.2418 -0.0849  0.0492
13526W        W29787  11.821   5.278  11.805 -0.3726 -0.4114 -0.1016
13527W        W29788   9.607  11.274   1.273  0.1877  0.1070 -0.0178
13528W        W29789  16.523  10.109  13.889  0.2287 -0.0013  0.0315
13529W        W29790   8.113   2.138   2.861 -0.0721  0.1240 -0.5975
13530W        W29791   1.183   2.814  15.394  0.1297  0.2958  0.2457
13531W        W29792  13.481  17.800  14.310  0.0781 -0.1624  0.0615
13532W        W29793  10.008   3.464  11.741 -0.3243  0.0424 -0.1581
13533W        W29794   0.986   4.050  11.742  0.1157 -0.1838 -0.0573
13534W        W29795  17.630   4.314   0.211 -0.2295  0.1341 -0.2516
13535W        W29796   1.841  15.880   3.601  0.4903 -0.1254 -0.1170
13536W        W29797   9.720  17.672  13.935 -0.1275 -0.0879  0.1226
13537W        W29798   3.818   2.009  15.738  0.2042 -0.1161 -0.1822
13538W        W29799   2.587  18.022   5.774  0.0870 -0.0034 -0.0714
13539W        W29800  11.084   0.056   2.016 -0.1441 -0.2729 -0.2765
13540W        W29801   3.139   1.100   4.738  0.1744  0.2047  0.3346
13541W        W29802  12.500  13.321   3.093  0.0802  0.0863  0.0082
13542W        W29803   2.393   1.449   2.220  0.2368 -0.2566 -0.0424
13543W        W29804   2.473   8.313  13.600 -0.2081 -0.1155  0.1786
13544W        W29805   2.604  10.624   4.642 -0.1841  0.0474  0.0249
13545W        W29806   3.812   8.324   4.003 -0.1315  0.0735  0.0234
13546W        W29807  15.349   6.015  11.977  0.2683 -0.0657  0.2428
13547W        W29808  12.959  12.144   5.949 -0.0087  0.0223  0.0392
13548W        W29809   7.665  14.812   0.814  0.1320  0.2077  0.1180
13549W        W29810  15.108  14.556  12.728  0.0227 -0.4370 -0.1468
13550W        W29811  14.492   0.262  13.421 -0.0383  0.1017  0.1508
13551W        W29812   7.885  11.342  12.639  0.0736  0.0404 -0.1743
13552W        W29813   0.490   7.642   0.579 -0.2184  0.1621  0.2426
13553W        W29814   2.875   0.811   1.953  0.0015  0.0352 -0.0312
13554W        W29815  13.885  11.303  14.435 -0.2632 -0.2511 -0.0531
13555W        W29816  18.106   1.737   2.586 -0.0488 -0.0480 -0.1878
13556W        W29817   2.014   4.905  12.719 -0.1780  0.4729 -0.3109
13557W        W29818   7.695   9.594   0.186  0.3501  0.1332 -0.2389
13558W        W29819  16.076   6.822   5.316 -0.0673  0.1779  0.1961
13559W        W29820  11.356   8.214  14.043 -0.0331 -0.0871 -0.2345
13560W        W29821   2.826   8.898  13.349 -0.1016 -0.0010 -0.4515
13561W        W29822  14.190   9.761   0.263 -0.2753 -0.0219 -0.0907
13562W        W29823   8.944   0.609  15.547 -0.0758 -0.0357 -0.1078
13563W        W29824   3.919   6.408   5.122 -0.0615  0.0326 -0.1709
13564W        W29825   1.899  13.646   3.907 -0.1348  0.1065  0.2953
13565W        W29826  18.179  12.423   0.999  0.0859 -0.0776 -0.0466
13566W        W29827  10.219   5.348  15.639  0.0739  0.1829  0.2222
13567W        W29828  16.484  10.418   5.305 -0.1577  0.0693 -0.2841
13568W        W29829  15.979  16.182  14.023  0.2329 -0.2564 -0.0949
13569W        W29830  16.839  16.199   2.282  0.0387 -0.1257  0.0379
13570W        W29831   6.039   6.948   0.136 -0.0435  0.1345  0.2023
13571W        W29832   3.233   5.952   4.441  0.2881  0.2393  0.0929
13572W        W29833   8.897  14.424  12.445 -0.1236  0.3754  0.2944
13573W        W29834   7.018   5.689   2.142 -0.0551 -0.2006 -0.0917
13574W        W29835  16.615   0.431   4.318  0.1343  0.1991  0.0783
13575W        W29836  13.004  14.765   1.943  0.2473 -0.0056  0.0071
13576W        W29837  13.154  17.863  15.832 -0.1788  0.2755 -0.1581
13577W        W29838   5.793  14.468   4.980 -0.0212  0.1873 -0.2665
13578W        W29839   4.523   9.887   2.055 -0.0487  0.0138  0.1970
13579W        W29840  18.200   3.812   3.976  0.1606  0.5625  0.0102
13580W        W29841  13.883  14.827   2.252 -0.2146  0.0797  0.2583
13581W        W29842   7.059  14.842  11.919 -0.2214 -0.0154 -0.2773
13582W        W29843  15.208   2.854  14.703 -0.1386  0.0717 -0.1314
13583W        W29844   4.264   7.692  14.241  0.3179  0.0039 -0.1571
13584W        W29845  12.950  11.642   2.838  0.0268  0.1856 -0.1097
13585W        W29846   9.642  13.138   4.684 -0.0868 -0.0040  0.3006
13586W        W29847   2.800   7.840   0.919  0.0419  0.2412  0.1266
13587W        W29848   1.868   2.540   5.205 -0.2083 -0.0645  0.3610
13588W        W29849   2.397  13.484  12.917 -0.2219 -0.0825  0.1854
13589W        W29850   8.938   4.297   5.116  0.2014 -0.2966 -0.4088
13590W        W29851  11.918  11.865  11.981  0.3083  0.0570 -0.1239
13591W        W29852  13.819  16.383   0.484 -0.2247 -0.1585  0.0410
13592W        W29853   6.619  14.084  11.073 -0.0676 -0.0805  0.2389
13593W        W29854   5.526   2.503   3.318  0.0061 -0.1817  0.1137
13594W        W29855   9.064   4.279   4.427 -0.0380 -0.0893 -0.1305
13595W        W29856   1.686  11.258  10.824  0.1218  0.0412 -0.1565
13596W        W29857   6.824   7.964   1.506  0.3844  0.0175 -0.2115
13597W        W29858   7.204   6.226  13.184 -0.2728  0.0132 -0.0698
13598W        W29859  10.821   4.615  15.860  0.1408  0.0649  0.0813
13599W        W29860   0.176   3.016  14.719 -0.0496 -0.2721 -0.1929
13600W        W29861   1.269  12.189  10.895 -0.4512  0.1764 -0.2351
13601W        W29862  12.803  10.405  14.717  0.0055  0.2439 -0.0006
13602W        W29863   3.310   1.348  14.164  0.2806  0.2132 -0.0011
13603W        W29864  15.228  12.682  10.809 -0.2526 -0.3392 -0.0310
13604W        W29865   9.223  16.765  16.169 -0.1637  0.2066  0.0216
13605W        W29866   4.516  14.144   6.047 -0.2949 -0.2546  0.1285
13606W        W29867   4.140  11.237   1.167 -0.1833 -0.0934 -0.0169
13607W        W29868  11.637   3.584   1.251  0.1624  0.2358 -0.2586
13608W        W29869  14.515  15.421  13.327 -0.0481  0.0743  0.1618
13609W        W29870  11.511   2.632  15.214 -0.0266 -0.0419  0.0833
13610W        W29871  11.577  11.545  16.059 -0.0289 -0.1188  0.2949
13611W        W29872   2.146  12.816  14.011  0.5141 -0.0222 -0.1830
13612W        W29873  14.363   7.194  13.819 -0.0649  0.1580 -0.3661
13613W        W29874  18.017  17.336  14.187 -0.0719  0.4503  0.0303
13614W        W29875  17.358  17.684   1.105  0.0855 -0.1673  0.0284
13615W        W29876  16.509   7.780   0.611 -0.1492  0.2526 -0.2717
13616W        W29877   9.557   5.277   5.751 -0.0347 -0.1050 -0.0637
13617W        W29878  13.753  18.217  14.450 -0.2194 -0.2053  0.0489
13618W        W29879   2.548   5.593  13.863  0.0117 -0.0107 -0.2016
13619W        W29880  12.612  10.440   4.370 -0.0922 -0.1413  0.3152
13620W        W29881  12.712   2.746   2.141 -0.1330 -0.2095 -0.1355
13621W        W29882  16.054   7.716   0.492 -0.0003 -0.4535  0.3615
13622W        W29883  14.195  15.696   2.625 -0.0603 -0.2357  0.2290
13623W        W29884   4.141   2.321   2.087  0.2049  0.0331  0.0609
13624W        W29885   3.329   2.911   3.690 -0.2293 -0.3395 -0.0573
13625W        W29886   6.487   6.996  14.199  0.2602 -0.1207 -0.0709
13626W        W29887   5.475   2.268  11.103  0.0982 -0.2861 -0.0751
13627W        W29888   9.548   8.016  13.096 -0.1586 -0.0746  0.4033
13628W        W29889   6.529   7.849   5.481 -0.1529  0.0574  0.3243
13629W        W29890   3.672  11.058   0.649  0.0547  0.3080 -0.4007
13630W        W29891   2.642  11.727   3.799  0.1072  0.1841 -0.1621
13631W        W29892   1.461   1.920   1.292 -0.1761 -0.2723 -0.2185
13632W        W29893  18.451   6.762   3.476  0.0224  0.0753 -0.1385
13633W        W29894  15.133   6.868   1.564  0.1391  0.1837  0.1091
13634W        W29895  13.501  14.077  11.441  0.0136 -0.3399 -0.1747
13635W        W29896   6.191  17.440   4.973 -0.0157  0.4882 -0.0550
13636W        W29897  15.312  12.776   2.723  0.1284 -0.1321 -0.3272
13637W        W29898  13.319  17.234   2.686 -0.0393 -0.1492 -0.0938
13638W        W29899   5.646   4.877  12.236  0.2111 -0.1128  0.0764
13639W        W29900   3.801  10.968  12.546 -0.1448 -0.1620 -0.4235
13640W        W29901   0.013  13.107   5.126 -0.1992 -0.0685 -0.2010
13641W        W29902  18.401  14.156  13.134  0.3249  0.1359  0.2397
13642W        W29903   8.115   0.148   6.093  0.3538 -0.2781  0.3273
13643W        W29904   3.156   6.253   2.295  0.0159 -0.1472 -0.2745
13644W        W29905  12.196  18.028   0.447  0.2019 -0.2724  0.1369
13645W        W29906   2.140   8.413  13.090 -0.0957  0.4305  0.0527
13646W        W29907  16.560   5.500   3.174 -0.1774  0.0756  0.0029
13647W        W29908   7.187  13.382  12.184 -0.0871 -0.0552 -0.0112
13648W        W29909   4.199   0.678   6.769 -0.0154  0.2361  0.2394
13649W        W29910  17.280  13.982   0.299 -0.0415 -0.1665  0.2106
13650W        W29911  18.399   0.615   1.425  0.2718  0.1908 -0.2305
13651W        W29912   0.340   2.142   0.814  0.0673 -0.2524  0.1047
13652W        W29913  12.511  16.727  12.082  0.1674  0.0811  0.2559
13653W        W29914   2.304   8.380  15.490 -0.1462 -0.0739  0.4285
13654W        W29915  16.448   9.199  14.707 -0.2135 -0.1541  0.3881
13655W        W29916   0.060   4.280   5.506 -0.2401  0.0119 -0.1521
13656W        W29917   2.089  13.591   6.198 -0.1736  0.3389  0.3790
13657W        W29918  18.363  10.174  10.984 -0.0445  0.0172  0.0076
13658W        W29919  11.181  17.584  15.982 -0.0316 -0.1914  0.0115
13659W        W29920   1.453  15.217   3.071  0.2134 -0.3121 -0.1554
13660W        W29921   6.625   3.427   4.293  0.2053 -0.1169 -0.1852
13661W        W29922   3.295   4.921  13.680  0.3124  0.2493  0.1362
13662W        W29923  12.114   4.116   4.130  0.0494  0.3823 -0.2207
13663W        W29924   4.682   8.359   4.730 -0.0520 -0.3947 -0.1980
13664W        W29925   2.228   1.537  13.446  0.1881  0.0006  0.0887
13665W        W29926  15.936   2.203   2.066  0.1066  0.1177 -0.2541
13666W        W29927   7.082   5.387   6.385 -0.0596 -0.0035  0.2719
13667W        W29928   6.736  16.896   4.053  0.0866 -0.0015 -0.0748
13668W        W29929  14.455  17.748  16.185 -0.0601 -0.0753  0.0952
13669W        W29930   0.969   8.665  13.743 -0.1674  0.0786  0.1108
13670W        W29931   1.511   7.044   0.932  0.1849 -0.1406  0.0115
13671W        W29932  12.492  15.943   2.081 -0.2198  0.1578 -0.2110
13672W        W29933  14.019   2.421  14.794  0.2382 -0.1350  0.1140
13673W        W29934  11.028  16.318   3.391 -0.0845  0.1416 -0.1174
13674W        W29935  11.043  14.650  14.027  0.0664  0.2959 -0.0879
13675W        W29936  15.250  12.267  11.158 -0.1026  0.0016 -0.3626
13676W        W29937  10.286  10.187   1.944 -0.0151 -0.0437  0.2090
13677W        W29938  16.337  18.168   4.315 -0.2791  0.0896 -0.0924
13678W        W29939   2.131  12.602   6.043  0.0821  0.1583 -0.3907
13679W        W29940   5.682   9.433   0.817 -0.0069 -0.0016  0.2425
13680W        W29941  14.972   7.018  14.173  0.2082  0.1195 -0.0122
13681W        W29942  17.916  17.615  12.152  0.0143  0.1355  0.1521
13682W        W29943   1.631   5.737   3.684  0.0250 -0.0031  0.0251
13683W        W29944   5.277   2.791  15.018 -0.1528 -0.4240  0.0050
13684W        W29945   9.976   9.760  15.862 -0.1536  0.1077 -0.2892
13685W        W29946  12.038   5.748  15.309 -0.2022 -0.0996  0.3443
13686W        W29947   3.854   7.979  15.559 -0.2903 -0.2253  0.2518
13687W        W29948   8.325  10.529  10.933  0.2037 -0.1909  0.0076
13688W        W29949   2.573   5.922   3.388  0.0713 -0.1324 -0.0232
13689W        W29950  12.274  17.820   3.596 -0.0680 -0.1309  0.1517
13690W        W29951  12.511   8.348   4.569 -0.3671  0.0623  0.0481
13691W        W29952   8.644  17.455   4.745 -0.2595 -0.1393 -0.0203
13692W        W29953  14.576   2.471  13.433  0.0536  0.0067 -0.3944
13693W        W29954   6.664   8.929  12.648 -0.0534 -0.0396 -0.2100
13694W        W29955  12.022  10.968   3.293  0.1030  0.3635  0.0820
13695W        W29956  12.597  11.616   3.589 -0.0815 -0.0900 -0.1657
13696W        W29957   9.860  11.261  11.816  0.1732 -0.2576  0.2817
13697W        W29958  11.274  12.479  12.016 -0.0366  0.1630  0.0551
13698W        W29959  17.507   8.041   4.250 -0.0156 -0.2266  0.1435
13699W        W29960  18.352  10.545   1.756 -0.0967  0.4561  0.0002
13700W        W29961  12.801  18.426  10.556 -0.2062 -0.0354  0.2707
13701W        W29962   9.925  17.725  12.034 -0.1798 -0.3539  0.2179
13702W        W29963   0.756   8.075  14.784 -0.1255 -0.3360  0.1709
13703W        W29964  15.238   9.766   3.450 -0.0274 -0.2703  0.1245
13704W        W29965   0.386   4.902   3.717  0.3150 -0.0619 -0.0316
13705W        W29966  16.151   7.820   3.377  0.2153  0.0993 -0.0332
13706W        W29967  14.059   0.995   1.251  0.2022 -0.0041  0.0137
13707W        W29968   8.305   0.533   2.296  0.0425 -0.1660  0.2194
13708W        W29969  13.680   5.890   0.224  0.0118  0.0054 -0.3877
13709W        W29970  16.731  13.887  13.810 -0.0987 -0.1678 -0.0099
13710W        W29971   6.414  11.045   5.730  0.1269  0.1319  0.0440
13711W        W29972  17.173  16.348   1.744 -0.2120 -0.3316 -0.2646
13712W        W29973   3.741   4.270  13.656  0.1903 -0.0807  0.2409
13713W        W29974  16.121   2.751  10.817  0.0435 -0.1485  0.0362
13714W        W29975  17.280   3.452  14.624 -0.2011  0.1864  0.1883
13715W        W29976   2.173  11.725   1.030  0.2197  0.1011 -0.0281
13716W        W29977  15.519  13.432  12.135  0.1886  0.1480  0.1351
13717W        W29978   8.271   9.461   5.817 -0.1375 -0.3379 -0.3225
13718W        W29979  11.742  10.058  12.038 -0.0635 -0.2001  0.2367
13719W        W29980  12.837   2.870  10.891  0.0312  0.0609 -0.0538
13720W        W29981  16.624   1.682  13.415  0.0731  0.0807  0.1272
13721W        W29982   0.040  14.926   0.579  0.3006  0.1475  0.2243
13722W        W29983  14.131  15.291  13.598 -0.0569  0.2954  0.2328
13723W        W29984   4.985   0.569   5.836  0.2394  0.2544  0.0187
13724W        W29985   6.546   4.489  15.589  0.1725 -0.0460 -0.0373
13725W        W29986  13.025   5.856  14.369 -0.4136  0.1592 -0.1455
13726W        W29987  16.170   5.044  11.938  0.3834  0.2298  0.1230
13727W        W29988   4.206   7.115   2.233 -0.1252 -0.3462 -0.0984
13728W        W29989  14.196   0.811  16.068 -0.1864  0.0371 -0.0420
13729W        W29990   6.654   4.840   2.432  0.1056 -0.2180  0.3033
13730W        W29991   8.105  13.492  12.305 -0.0548  0.0623  0.2286
13731W        W29992  16.647   3.410  15.946  0.2990 -0.0771  0.1607
13732W        W29993   2.039  17.448   0.060 -0.3265 -0.1021  0.1794
13733W        W29994   1.215   6.274   1.898  0.1341  0.4890 -0.1241
13734W        W29995  17.211  12.643  10.583  0.0169  0.2066  0.1886
13735W        W29996   2.456   7.952  13.275 -0.0126 -0.0062 -0.0792
13736W        W29997   5.409   0.943   2.899  0.1142  0.0022 -0.0251
13737W        W29998  10.658  12.644  14.970 -0.1032  0.1491  0.4665
13738W        W29999   4.173   2.763   5.445  0.0659  0.3608  0.0098
13739W        W30000   5.612  14.371   1.549  0.3495  0.0020  0.0590
13740W        W30001  11.615  12.622   2.636 -0.0582 -0.1201 -0.1486
13741W        W30002   0.996   2.993  11.366  0.3036 -0.0456 -0.0368
13742W        W30003   8.074   6.634   2.733 -0.1045 -0.2315  0.0628
13743W        W30004  18.267  13.236  10.758 -0.2575  0.0437 -0.1388
13744W        W30005   2.623  14.804  11.593  0.3078 -0.4594  0.2307
13745W        W30006  12.628  12.941   5.084 -0.3797  0.0075 -0.4692
13746W        W30007   5.054  17.326  16.072 -0.1983 -0.0137  0.1164
13747W        W30008   9.708   4.439   0.943  0.2498 -0.4689 -0.1328
13748W        W30009  15.520   6.331   3.202  0.2386  0.0094 -0.1651
13749W        W30010  13.006  11.733   0.144  0.2038 -0.0663  0.0552
13750W        W30011  10.756   4.303   4.602  0.0828  0.1721 -0.1273
13751W        W30012   2.351  13.861   1.000 -0.2024 -0.1267 -0.2347
13752W        W30013  15.621   0.655   5.077 -0.3032  0.0053 -0.2410
13753W        W30014  17.496  13.821  13.351  0.0180  0.1613  0.3609
13754W        W30015  14.555  14.168   2.636  0.3335  0.1028  0.0112
13755W        W30016  18.413   8.617  15.102  0.0253  0.0893 -0.0148
13756W        W30017   1.483   7.784  13.804  0.0455 -0.1569  0.1345
13757W        W30018  14.401  15.245  11.684 -0.5844  0.1085  0.0660
13758W        W30019  17.946   4.841   0.540 -0.0981 -0.1030 -0.0314
13759W        W30020  11.135   9.963   2.006 -0.0144 -0.1430 -0.0028
13760W        W30021  11.612   0.119  15.589 -0.0543  0.2982  0.0005
13761W        W30022  15.310  13.299   0.847 -0.1603 -0.0462 -0.1865
13762W        W30023  11.863   5.524  12.723 -0.2066  0.1982  0.0365
13763W        W30024  12.587   3.726   4.271  0.1824  0.1510  0.3993
13764W        W30025   4.160  16.431  15.674 -0.1405 -0.2660 -0.1004
13765W        W30026  17.486  18.091  10.631  0.0339 -0.2154  0.1058
13766W        W30027   7.920  10.699  13.835 -0.0366 -0.0642 -0.2039
13767W        W30028   6.235  17.499  15.191 -0.3093 -0.0713 -0.1296
13768W        W30029   0.035  18.167  15.003  0.0701 -0.0102  0.3499
13769W        W30030   3.502  11.958  13.979 -0.3259 -0.1134 -0.1500
13770W        W30031  17.837   7.665  14.861  0.1961  0.3445  0.0723
13771W        W30032  12.916   2.160   3.897 -0.1808  0.0675  0.0585
13772W        W30033  17.396   4.192   4.430  0.0835  0.0984 -0.1894
13773W        W30034   8.003   4.008   0.163  0.2960 -0.4853  0.0763
13774W        W30035   2.786  16.209   2.690  0.0272 -0.1813  0.0120
13775W        W30036   0.751   5.024  13.932 -0.0545  0.2529  0.1865
13776W        W30037  10.095   0.661  13.666  0.0556 -0.2020  0.2341
13777W        W30038   4.355   9.803   5.877 -0.1474  0.1635 -0.1203
13778W        W30039  10.934   3.419  15.755  0.2440 -0.3086 -0.2225
13779W        W30040  15.106   0.878  10.950 -0.2713  0.0286 -0.0573
13780W        W30041   6.917   6.085   3.432 -0.1374 -0.1204  0.0148
13781W        W30042  10.187  17.012   1.617  0.0548  0.1548 -0.0218
13782W        W30043  18.388   4.548   1.570 -0.0251 -0.1063 -0.1184
13783W        W30044   6.989   1.183  14.455  0.0978  0.4513 -0.1620
13784W        W30045  14.263   1.959  14.039  0.1246 -0.3384 -0.0543
13785W        W30046  14.083  13.901   5.441 -0.2127  0.2976 -0.3091
13786W        W30047  12.262  17.031   4.850 -0.2245  0.3211  0.0179
13787W        W30048   4.374   2.259  15.108  0.1013  0.1255 -0.1498
13788W        W30049  15.786   4.919   4.063 -0.3322  0.0432  0.2655
13789W        W30050  18.411   5.477   2.581  0.1936  0.3675 -0.0067
13790W        W30051   6.059   8.391  10.540 -0.0345 -0.0218  0.3377
13791W        W30052  11.335   9.675  11.339  0.0228 -0.0001 -0.1696
13792W        W30053  13.810  15.526  14.385 -0.0155 -0.3273 -0.3839
13793W        W30054   2.891  12.172  15.096 -0.2987 -0.0852 -0.0447
13794W        W30055   2.031   1.544   2.573 -0.1642  0.1184 -0.1004
13795W        W30056  14.546  14.921   5.007  0.2330  0.1520  0.0317
13796W        W30057  17.372   8.926   1.343  0.0515 -0.2005  0.0139
13797W        W30058  13.070  10.677  10.675 -0.1761  0.1960 -0.3227
13798W        W30059  10.318  16.779  12.894 -0.0194 -0.0263  0.1146
13799W        W30060  11.924  10.925   1.615 -0.1858 -0.2197  0.2632
13800W        W30061  15.187   8.411   5.915  0.1099 -0.3290  0.4788
13801W        W30062  13.442   8.631   0.141  0.0341 -0.0720  0.1838
13802W        W30063  14.432   4.386   4.716  0.3956 -0.0128 -0.2277
13803W        W30064   3.275   2.259   5.106 -0.1922  0.1826  0.2025
13804W        W30065  17.164  13.179   3.315  0.1280 -0.2085  0.1706
13805W        W30066  16.374  15.649  15.410  0.0182 -0.0164 -0.1240
13806W        W30067   9.456   9.399  14.330 -0.1469  0.0393  0.3341
13807W        W30068   6.704   1.332   0.851  0.2717  0.2616 -0.0294
13808W        W30069   5.176  15.400   4.927  0.1498  0.1886  0.1195
13809W        W30070   7.975   5.038  13.635  0.1383 -0.0026  0.0743
13810W        W30071   6.516  15.850   4.455  0.2858  0.1628 -0.1338
13811W        W30072  15.805   1.920   2.756 -0.0736  0.0730  0.0056
13812W        W30073  17.756   7.385  12.898 -0.2451  0.1242  0.1768
13813W        W30074  11.166  14.097   2.062  0.0058  0.0313  0.1831
13814W        W30075   2.592   5.005   2.913  0.1808  0.2043  0.0670
13815W        W30076   2.947   5.950  14.075 -0.0830  0.1505 -0.1330
13816W        W30077   5.786   1.138   1.566  0.1222 -0.1534 -0.3301
13817W        W30078  14.141  11.974   1.567 -0.0264 -0.3119 -0.0652
13818W        W30079  15.067  15.227   9.831 -0.1200 -0.0977 -0.0141
13819W        W30080   6.756   5.494   4.303 -0.2890  0.1206 -0.3013
13820W        W30081  14.902   1.257  11.177  0.1337  0.2541 -0.0412
13821W        W30082   7.224  10.135   4.384 -0.4103  0.1028  0.1029
13822W        W30083   6.521   5.871  14.372  0.0466 -0.1929  0.0418
13823W        W30084  16.920  14.081   3.025  0.3499 -0.4404  0.0610
13824W        W30085   6.576   0.876  15.591  0.3037  0.0403 -0.1202
13825W        W30086  13.953  18.290   2.208  0.1985 -0.2247  0.0191
13826W        W30087  16.424   9.951  14.315  0.2161  0.1193 -0.1606
13827W        W30088   4.633   9.671  14.496  0.1842  0.1369  0.0957
13828W        W30089   7.370  12.883  14.987  0.1905  0.2301  0.0833
13829W        W30090   1.527  12.671   2.562 -0.0683  0.0284  0.1148
13830W        W30091  13.610   2.467  13.745 -0.1764 -0.0285 -0.1308
13831W        W30092  11.971   6.566   0.478  0.0406 -0.0318  0.1288
13832W        W30093   9.467  11.422   4.893  0.1452 -0.0819  0.3091
13833W        W30094  11.514   2.441   3.702 -0.2850 -0.0393 -0.0354
13834W        W30095   0.177   7.209   3.347 -0.0566 -0.0306 -0.0878
13835W        W30096   7.924   5.177   5.866  0.2627  0.1656  0.0845
13836W        W30097  12.244   0.859  15.390 -0.4211  0.2103  0.2807
13837W        W30098  11.888  11.270   2.909  0.2028  0.1527 -0.1625
13838W        W30099  13.916  11.378  11.511 -0.2357 -0.1786  0.0323
13839W        W30100   7.020   1.452   4.398  0.2290 -0.1866 -0.0613
13840W        W30101  17.196  11.999  15.633  0.5708  0.0871  0.3057
13841W        W30102   8.431   0.131  15.658 -0.0792 -0.1566  0.2048
13842W        W30103   6.613  17.444  11.732 -0.2301  0.0498 -0.1687
13843W        W30104  11.625   6.424  12.718 -0.0563 -0.2781  0.1726
13844W        W30105  17.837   2.301   3.068 -0.1202  0.0007 -0.0684
13845W        W30106   7.381   8.629  15.281  0.0600 -0.0555  0.1164
13846W        W30107  13.940   1.250   0.821  0.2168  0.0407 -0.0418
13847W        W30108  12.453   5.867   6.021  0.1575 -0.2760 -0.2280
13848W        W30109   3.462  10.098  15.001 -0.1002  0.2183  0.0077
13849W        W30110  16.545  15.281  10.507  0.1538  0.0250  0.0366
13850W        W30111   6.348  18.255   1.706 -0.1347  0.0011 -0.0120
13851W        W30112   8.808  11.154  13.723  0.1500 -0.0210 -0.1576
13852W        W30113   5.124   1.232   2.505 -0.1265  0.0138  0.2392
13853W        W30114   8.639  16.891  13.978 -0.0126 -0.1357 -0.2276
13854W        W30115  18.208   1.394   4.023 -0.0101  0.3097  0.2761
13855W        W30116   0.632   4.818   2.071 -0.3211 -0.0324  0.2676
13856W        W30117   3.557  14.102   4.047  0.2520  0.2033  0.3299
13857W        W30118  17.785   3.260  10.943  0.0469  0.1826 -0.2502
13858W        W30119  10.975   2.710  15.025  0.0529 -0.2584 -0.2672
13859W        W30120   2.658  14.557  11.134  0.2416  0.2291 -0.1429
13860W        W30121  13.535   7.294   0.871  0.2272  0.0016  0.1912
13861W        W30122   4.532  11.392   1.409  0.0878  0.3171 -0.3187
13862W        W30123   0.175  14.418   0.578 -0.4479  0.0328 -0.1178
13863W        W30124   6.247  15.397  12.309 -0.0827  0.2892  0.0296
13864W        W30125   4.729   8.765   5.023 -0.0062  0.1171 -0.2094
13865W        W30126   4.511  14.732  11.786 -0.2832  0.1278  0.0385
13866W        W30127  10.366   0.982  14.254  0.1548  0.1763 -0.1519
13867W        W30128   9.028  13.230   1.950 -0.0477 -0.1000  0.0267
13868W        W30129  14.793   9.316   0.379 -0.3289 -0.2063  0.0667
13869W        W30130  18.432  18.142   0.197  0.0079 -0.1431  0.3292
13870W        W30131   2.235  16.969   3.254 -0.2285 -0.1885 -0.2461
13871W        W30132   8.106  15.847   5.492 -0.3294  0.2268 -0.1437
13872W        W30133  17.141   9.310  12.530  0.0638  0.0682  0.2644
13873W        W30134  15.360  11.829   4.209  0.4555 -0.1115  0.0161
13874W        W30135   7.225   8.464  12.001  0.0179 -0.1057 -0.4404
13875W        W30136   5.292  17.065   5.453  0.1793 -0.0606 -0.0835
13876W        W30137  16.366   3.571  12.497  0.0666  0.1546 -0.0809
13877W        W30138  10.621   4.645   0.166 -0.0414 -0.0958  0.1956
13878W        W30139  17.262  16.761  15.618  0.2949 -0.0162  0.0294
13879W        W30140   7.665   8.369   3.105 -0.0909 -0.1299 -0.1774
13880W        W30141   0.741  13.708  16.015  0.1696  0.1534 -0.0359
13881W        W30142   5.908  13.272   0.212 -0.0893  0.1028  0.2231
13882W        W30143   7.367   2.731   3.468  0.1015  0.0640 -0.2556
13883W        W30144  17.828   0.828  13.808 -0.1700  0.1103 -0.2767
13884W        W30145  11.115  15.642   1.547 -0.2029  0.2257  0.1269
13885W        W30146   1.077  10.273   5.017 -0.1309  0.1594  0.4581
13886W        W30147   0.333  10.606  16.012  0.3518 -0.2044  0.1199
13887W        W30148  17.679   4.555   5.694  0.0473  0.1217  0.0226
13888W        W30149   7.081   5.852  15.158  0.1802 -0.1817  0.0078
13889W        W30150   5.828   1.177  12.457  0.2201 -0.1142 -0.3151
13890W        W30151   6.941  16.159   4.498 -0.0576 -0.1180 -0.2971
13891W        W30152   2.862  10.894   4.108  0.0236 -0.1219 -0.2695
13892W        W30153  12.553   1.273   4.112  0.2012 -0.2315 -0.1457
13893W        W30154  15.913  13.239  11.023 -0.1014  0.5051  0.3202
13894W        W30155   8.993  15.165   3.385 -0.1389  0.0844  0.3685
13895W        W30156  13.719   9.095   1.888 -0.0498  0.1094  0.1215
13896W        W30157  14.146   3.822   5.465  0.1300 -0.0323  0.0195
13897W        W30158   3.943   7.041  13.340  0.0330 -0.1146  0.0037
13898W        W30159   3.127  15.141   3.696  0.0726  0.0168 -0.3020
13899W        W30160   3.030   0.496   2.892 -0.1082 -0.0994 -0.1422
13900W        W30161   3.980   3.382   2.497  0.2299  0.2081 -0.3720
13901W        W30162  16.285  13.313   3.761 -0.1381  0.2307  0.3077
13902W        W30163   6.787  15.787   5.763 -0.1418  0.2838  0.1130
13903W        W30164  14.724   1.466   3.326  0.0136 -0.3093  0.1942
13904W        W30165   6.995   1.178   5.737 -0.1844 -0.0950 -0.0435
13905W        W30166  12.080  13.970   1.000  0.0493  0.2206  0.2361
13906W        W30167   2.515   5.224   2.052  0.2325 -0.0570  0.0352
13907W        W30168  14.336   1.950   9.835 -0.1845 -0.0563  0.0197
13908W        W30169   2.120   0.240   4.541  0.0897 -0.0808  0.1871
13909W        W30170  16.332   7.239  14.936 -0.0178  0.1737 -0.4689
13910W        W30171   6.150   0.243   5.280  0.4729  0.4260  0.1706
13911W        W30172   4.935   7.451   4.422  0.0546 -0.2249 -0.2358
13912W        W30173   3.306  14.887   3.331  0.0063  0.0777 -0.2987
13913W        W30174   9.374  13.823  14.436  0.1403 -0.1534 -0.0398
13914W        W30175   9.450  14.054   3.286 -0.0564  0.1473  0.4599
13915W        W30176  15.595   6.634   5.466 -0.1928  0.2460  0.1654
13916W        W30177  16.515  10.055   3.457 -0.1304  0.0355  0.1205
13917W        W30178  13.514   1.074   1.792 -0.1765  0.3699 -0.1105
13918W        W30179   6.978  15.241  12.230 -0.1926  0.2429 -0.0846
13919W        W30180   8.530   9.432  14.193 -0.0430  0.1326 -0.0078
13920W        W30181  14.894   1.568  12.314  0.0779  0.1857 -0.1141
13921W        W30182   7.769   0.547  13.614 -0.0456  0.2846  0.1975
13922W        W30183   9.622   8.781   2.582 -0.0190 -0.0779 -0.1276
13923W        W30184   8.577  16.906  13.017  0.0233  0.0908 -0.3624
13924W        W30185  11.494  11.070  12.899  0.2504 -0.1472  0.0052
13925W        W30186  17.598   1.804   2.332  0.0487 -0.0907 -0.0154
13926W        W30187   2.274   7.839   5.223 -0.0476 -0.2150 -0.2006
13927W        W30188   3.118  12.962   2.146  0.0498  0.0677  0.2270
13928W        W30189  13.764   2.566  12.844  0.1641 -0.0022 -0.0381
13929W        W30190  17.185   0.997  11.988 -0.1527  0.0426 -0.1335
13930W        W30191   4.648   6.230  15.024  0.0698  0.1906  0.0384
13931W        W30192   2.961   9.932   1.345 -0.2548 -0.4780  0.0689
13932W        W30193  15.523  11.037  11.956 -0.3043  0.0724  0.1356
13933W        W30194  17.218  10.272  14.802  0.1284 -0.0558  0.0578
13934W        W30195   2.976   0.248   4.211 -0.0558  0.3346  0.1011
13935W        W30196  17.422  12.322  15.226 -0.0283 -0.0803 -0.0618
13936W        W30197   7.475   9.585   5.619 -0.2140  0.0637 -0.0749
13937W        W30198  10.084   1.322  14.733  0.1558 -0.1680  0.2075
13938W        W30199   8.034   3.962   3.688 -0.1482  0.0029 -0.2289
13939W        W30200   3.538   7.265  12.510 -0.2931  0.0640 -0.1742
13940W        W30201  13.267  10.087   0.522  0.4643 -0.1856  0.3735
13941W        W30202  13.858  15.636   4.916  0.0576  0.0025 -0.0278
13942W        W30203  18.026  15.172  12.670 -0.2114 -0.3723  0.1801
13943W        W30204   2.068   9.157  15.600  0.1296 -0.0091  0.1431
13944W        W30205   1.285   3.701   0.962  0.5502 -0.3933 -0.0624
13945W        W30206  10.766   2.734  12.568  0.0836  0.2600  0.0120
13946W        W30207  11.666  15.297   9.517 -0.0683 -0.2895  0.2780
13947W        W30208  10.278   6.707   2.524 -0.2294  0.1196 -0.0646
13948W        W30209  14.896   9.061  11.644  0.0355 -0.0169  0.0354
13949W        W30210   9.439   9.964   4.302  0.1343  0.0132  0.1021
13950W        W30211   1.454  13.023   2.938  0.0998  0.1500 -0.1117
13951W        W30212  16.464  14.943   1.991 -0.1556 -0.0874 -0.5170
13952W        W30213   0.170   9.509  12.232 -0.1392 -0.0273 -0.3608
13953W        W30214  14.895   8.255   1.369  0.0575 -0.2982 -0.0981
13954W        W30215   3.021   4.465   0.591 -0.0622  0.0924 -0.3350
13955W        W30216  12.253  18.382   4.350  0.1465  0.2393  0.1610
13956W        W30217   1.195  15.288  15.777 -0.1714  0.0051  0.5560
13957W        W30218  13.305  14.196  13.595  0.0134 -0.1527 -0.2798
13958W        W30219  18.077  11.167  15.719  0.0127  0.1912  0.1283
13959W        W30220   4.830   5.301   4.237 -0.2790  0.2478  0.0433
13960W        W30221   9.141   9.200   0.091  0.3467  0.0154 -0.0038
13961W        W30222  11.322   9.486  14.589  0.3439 -0.2941  0.1013
13962W        W30223   7.668  11.686  15.150 -0.0120  0.1357 -0.2682
13963W        W30224  18.386  18.355  10.671 -0.0035  0.1851  0.5215
13964W        W30225  13.301  18.187  12.228  0.0980  0.1997 -0.0267
13965W        W30226   4.711   1.066  10.894  0.1289 -0.0355  0.1258
13966W        W30227   1.323   8.859   4.768 -0.2972  0.0730  0.0147
13967W        W30228   3.673  15.709  14.885  0.0492 -0.1082 -0.2227
13968W        W30229   0.228  12.321   1.200  0.1602 -0.2188 -0.0328
13969W        W30230  14.390  11.268  13.833  0.1371 -0.0443  0.1437
13970W        W30231  16.142   1.507   5.722  0.1338 -0.1449  0.0962
13971W        W30232  15.578   6.723  12.521  0.0086 -0.1674 -0.1490
13972W        W30233   5.192   7.164   3.910 -0.0999  0.0802 -0.3924
13973W        W30234  11.928   6.260  15.305 -0.2172 -0.1297  0.0817
13974W        W30235   4.584   7.614   4.124 -0.1479  0.0969  0.0154
13975W        W30236  12.270   7.223   1.905  0.0878  0.2646  0.5548
13976W        W30237   6.005  13.701  16.155 -0.1121 -0.4561  0.2064
13977W        W30238  12.557  11.295  12.259  0.1029 -0.2648  0.2622
13978W        W30239   6.151  10.444  11.345 -0.2345 -0.0175 -0.0524
13979W        W30240   3.715   6.964   1.593 -0.1499  0.2683  0.1431
13980W        W30241   2.442  13.158  13.739 -0.0575 -0.0086 -0.1050
13981W        W30242  15.821   8.584  15.857  0.3728  0.0394 -0.0318
13982W        W30243  17.860   0.613  12.385  0.1215  0.1262 -0.1185
13983W        W30244  10.278  17.179   2.549 -0.0005 -0.1825  0.3016
13984W        W30245  12.513  10.539  12.270  0.2540  0.0564 -0.0880
13985W        W30246  11.072  16.717   4.034  0.3148  0.0286 -0.1013
13986W        W30247   7.123   0.180  15.236  0.1466  0.3337  0.4781
13987W        W30248  16.359  11.255   2.830 -0.2783 -0.1813  0.0115
13988W        W30249  13.242  13.809  13.004 -0.1427 -0.0267  0.0239
13989W        W30250   2.520  17.283   0.192  0.0903  0.0507  0.1493
13990W        W30251   5.239  17.802  12.709  0.0084  0.3123 -0.1945
13991W        W30252   7.221  15.551  15.138 -0.3898 -0.0894 -0.0337
13992W        W30253   1.989  14.552   0.122  0.1306  0.1723  0.1268
13993W        W30254  16.514  15.562   3.079  0.0792  0.1289 -0.1636
13994W        W30255   8.816   1.500  13.630  0.0712  0.0076  0.2117
13995W        W30256   9.942   5.979  13.621 -0.1418 -0.1204 -0.0668
13996W        W30257  16.615   6.117   2.211 -0.1766  0.1308  0.1344
13997W        W30258   9.047   1.357  11.778  0.2415 -0.2991  0.3454
13998W        W30259  16.983  15.161   2.034 -0.2648  0.0209  0.0228
13999W        W30260   2.658   9.318   2.136  0.0281  0.2483 -0.1191
14000W        W30261  16.956   7.833   4.485  0.1040 -0.3050  0.1522
14001W        W30262   5.836   0.084  13.184  0.1587 -0.1300 -0.0484
14002W        W30263   6.990   0.123  15.737  0.0405  0.0346  0.1348
14003W        W30264  15.101  16.223  10.870 -0.2705  0.1404  0.0834
14004W        W30265  11.957  13.867  13.873  0.0623 -0.3310  0.1519
14005W        W30266   1.813  12.687   2.124 -0.2343 -0.1287  0.0220
14006W        W30267  13.408   1.056  10.194 -0.1253 -0.1139  0.0795
14007W        W30268  16.838  14.374  11.142  0.0142 -0.0293  0.1471
14008W        W30269  17.143  10.294   3.406 -0.1847 -0.0437 -0.3256
14009W        W30270  10.695  16.331  15.705  0.1307  0.0518 -0.2500
14010W        W30271  12.959   3.402  12.152 -0.1631  0.1928 -0.4694
14011W        W30272  14.273   6.406   3.831  0.4306 -0.0248  0.3543
14012W        W30273   9.155   5.771   0.019  0.2410 -0.0285 -0.0009
14013W        W30274  15.013   9.408  11.204 -0.0384 -0.3089  0.1553
14014W        W30275   7.394   1.690   4.612  0.0627  0.0043 -0.1685
14015W        W30276   5.919   8.900   4.646  0.2010  0.2683 -0.1600
14016W        W30277   9.704  10.043   1.452 -0.1246  0.3749  0.1797
14017W        W30278  14.807   2.595  12.016 -0.0897 -0.1668  0.2231
14018W        W30279   4.366   2.936   0.214 -0.0042  0.1546  0.0704
14019W        W30280   2.839  15.156   4.567  0.0399  0.0989  0.1318
14020W        W30281   7.615  11.878  14.696 -0.1789  0.3208 -0.0654
14021W        W30282   9.092   7.250  12.746  0.0463  0.0359  0.1319
14022W        W30283   2.417  17.177  12.323 -0.2155  0.0417 -0.0494
14023W        W30284  13.963   4.830  14.149  0.1766 -0.5853 -0.1721
14024W        W30285   7.798   7.478  11.984  0.1095 -0.3425 -0.1544
14025W        W30286  15.491   4.517   3.120 -0.0426  0.2184  0.1361
14026W        W30287  11.499   5.032   1.370 -0.0833  0.0632 -0.2636
14027W        W30288   7.233  13.171   2.417 -0.1000 -0.1866  0.0972
14028W        W30289   4.549  12.044  11.858 -0.1705 -0.3921  0.1343
14029W        W30290   8.980  11.221  14.154 -0.0874 -0.1289  0.1325
14030W        W30291   3.496  14.465   2.115  0.0762 -0.1774  0.1134
14031W        W30292   1.092  13.286   5.569  0.2119  0.3395  0.1708
14032W        W30293  12.237  11.382   4.516 -0.4049  0.0451 -0.1868
14033W        W30294  10.659  13.710   2.702  0.2892 -0.0332 -0.5560
14034W        W30295   9.103   0.160  14.418  0.2179  0.1764 -0.0479
14035W        W30296   8.778   5.765  14.550 -0.0528  0.1248 -0.1130
14036W        W30297  13.813  11.801  14.466 -0.2152 -0.5528  0.1927
14037W        W30298   4.787  18.135  13.394 -0.1002  0.0281  0.0197
14038W        W30299   3.109   8.398   3.412  0.1843  0.1092  0.4610
14039W        W30300   9.117   0.211  12.998  0.2897 -0.1417 -0.4820
14040W        W30301   8.013  15.636   2.445 -0.4175 -0.0014  0.0348
14041W        W30302  15.216   0.278  14.598  0.2368  0.2328  0.0841
14042W        W30303  14.608   7.959   4.889 -0.1900  0.2876  0.0366
14043W        W30304   7.278   4.143   4.466  0.0803  0.0842 -0.2426
14044W        W30305   4.845   0.470   1.983  0.0261  0.0690 -0.2641
14045W        W30306  18.380  14.805  12.859 -0.0081  0.0913  0.0364
14046W        W30307   9.163  13.920  12.381 -0.1197  0.1373  0.0022
14047W        W30308  18.368   3.928   0.667 -0.1560 -0.0874  0.0649
14048W        W30309   4.444   6.868   2.663 -0.2024  0.0867 -0.0469
14049W        W30310   8.086  14.930   3.761  0.0986  0.2790 -0.2439
14050W        W30311   9.838  15.303   4.155  0.0645  0.0339  0.1568
14051W        W30312   9.748   2.277   2.210  0.0349  0.1782 -0.2991
14052W        W30313  16.309  15.044   0.526 -0.3405 -0.1235 -0.3030
14053W        W30314   8.265  15.087   1.599 -0.0550 -0.1132  0.0455
14054W        W30315   4.671   3.631   6.517  0.1724 -0.0745 -0.1409
14055W        W30316  17.567   1.164  15.255 -0.3163  0.1865 -0.2685
14056W        W30317   3.880  15.847   0.319 -0.0071  0.2740  0.0233
14057W        W30318  15.972   1.754  15.169 -0.0831 -0.2175 -0.2404
14058W        W30319   8.544   2.405   2.944  0.2680  0.0091  0.0726
14059W        W30320  12.375  11.673   4.946  0.2886  0.1397  0.1180
14060W        W30321   0.305  12.987   5.676  0.0616  0.0424  0.0871
14061W        W30322   1.607   7.744   0.424 -0.1431  0.1043  0.0071
14062W        W30323  11.961   9.728   1.881  0.0992  0.1670  0.2132
14063W        W30324   6.419   8.693  12.296  0.2443  0.0692 -0.0195
14064W        W30325   2.893  18.410   0.342 -0.0430  0.0628  0.0374
14065W        W30326  17.704   8.222  12.648 -0.4379  0.0162  0.0037
14066W        W30327   7.917  13.151  14.975  0.0185  0.0392 -0.2455
14067W        W30328  11.361   9.034   5.433  0.1885 -0.2133  0.1763
14068W        W30329   0.174   9.265  13.923 -0.0966  0.0700 -0.0509
14069W        W30330  14.130   8.955  13.384 -0.0910 -0.3897 -0.1332
14070W        W30331  15.850  12.801  12.276 -0.1768  0.0138  0.1834
14071W        W30332   3.401   8.848  13.809  0.0754 -0.1642  0.1350
14072W        W30333   4.882  13.851  12.009  0.0510 -0.4305  0.3210
14073W        W30334  16.566   1.216  15.340 -0.1430 -0.3210 -0.2318
14074W        W30335   4.317  17.012  14.964  0.0039 -0.0183 -0.2811
14075W        W30336  14.517   1.052   1.355  0.0118  0.4501  0.0813
14076W        W30337  16.011  11.111  14.986  0.1705 -0.2568  0.0697
14077W        W30338   2.624  15.227   3.713 -0.0965 -0.2092 -0.3211
14078W        W30339   6.768  11.629  15.184  0.0295 -0.0672 -0.0538
14079W        W30340   5.491  15.550   3.467  0.0185  0.0343 -0.0878
14080W        W30341   4.328  15.454   3.236 -0.2373 -0.2632 -0.2536
14081W        W30342   8.573  10.015   0.422  0.1206 -0.0434  0.1684
14082W        W30343  13.881  15.955  11.086  0.1679 -0.1464 -0.0254
14083W        W30344  16.964   2.302  12.662 -0.1618 -0.1223  0.2918
14084W        W30345   5.366  15.073  10.755  0.1771  0.4047  0.0466
14085W        W30346   3.037   5.875   2.610  0.2936 -0.2348  0.2278
14086W        W30347   0.200   4.193  14.449  0.1741  0.1274 -0.1178
14087W        W30348   9.413  11.101  14.952 -0.2354  0.2014  0.3352
14088W        W30349   7.114  17.048   1.468  0.0469 -0.0713 -0.2839
14089W        W30350  13.642  14.345  11.921  0.2357  0.1729 -0.0463
14090W        W30351  17.417   1.630   5.192 -0.2870 -0.0163  0.0561
14091W        W30352  15.647  13.514   3.687  0.0024 -0.0307  0.2573
14092W        W30353   8.880  10.212   4.212 -0.2818 -0.1257 -0.0278
14093W        W30354   9.889   0.049  14.642 -0.0465 -0.0137  0.0606
14094W        W30355  15.450  10.228   0.126  0.0399  0.2715  0.1814
14095W        W30356   1.176   1.635   2.170 -0.0167  0.0072  0.0085
14096W        W30357  15.725   0.328   4.735  0.0777 -0.2782 -0.1907
14097W        W30358   5.152   7.037   2.086  0.1611 -0.1641  0.2472
14098W        W30359   2.214   8.415  12.463 -0.0314 -0.0143  0.1304
14099W        W30360   5.515  13.990  12.582 -0.0611  0.1615  0.1184
14100W        W30361  14.544  16.248  11.738  0.0105 -0.3407  0.1774
14101W        W30362   5.830   4.398  12.999  0.0965 -0.1709  0.2437
14102W        W30363  18.423  14.954   3.160  0.1609  0.1074 -0.0948
14103W        W30364   3.179   6.870  14.347 -0.1850 -0.1271  0.2263
14104W        W30365  11.481   6.562  15.693 -0.1694 -0.3233 -0.1274
14105W        W30366  17.564  14.949   9.656  0.0759 -0.1145 -0.3147
14106W        W30367   5.522  13.890   1.354  0.5133  0.1666  0.1367
14107W        W30368   4.178   5.402   4.049  0.0105 -0.0228  0.1234
14108W        W30369   1.440  15.383   4.827  0.1547  0.2372  0.1821
14109W        W30370   6.054  11.280  15.766  0.3527  0.1450 -0.2435
14110W        W30371   8.129   9.920  15.112  0.2715  0.0820  0.3204
14111W        W30372  10.175  17.195  15.251 -0.1442 -0.0186  0.1609
14112W        W30373   1.845   8.873  15.973 -0.1754  0.3043  0.0492
14113W        W30374  16.242   7.823  10.948  0.0460  0.0922 -0.0579
14114W        W30375   7.668  14.046   4.272  0.1056 -0.3001  0.1150
14115W        W30376  14.856  11.362  10.202 -0.3289 -0.0788 -0.4677
14116W        W30377   7.212   4.536   5.635  0.2725 -0.0035  0.5460
14117W        W30378   0.397   0.606  13.581  0.0304  0.2054 -0.0610
14118W        W30379   6.413  16.290  12.388  0.2654  0.0501 -0.0282
14119W        W30380   6.869   3.791  15.142  0.1553 -0.2612 -0.2306
14120W        W30381  16.586  14.662  12.091 -0.0272  0.1280  0.0896
14121W        W30382  13.413  16.414   4.542  0.0372 -0.1013  0.2774
14122W        W30383   9.370   8.636   5.397  0.1637 -0.2722  0.1203
14123W        W30384  12.727  13.543  15.563  0.0244 -0.1005 -0.0369
14124W        W30385  11.319  17.147  10.815  0.2229  0.1684 -0.1174
14125W        W30386   0.865   7.433  13.234  0.1191  0.0303  0.1036
14126W        W30387  17.692   8.108  14.515  0.0276  0.1556  0.2459
14127W        W30388  10.725  16.646   0.384  0.0264  0.2379  0.1527
14128W        W30389  16.646   6.244   2.797 -0.0446 -0.1468 -0.4549
14129W        W30390   5.435   9.141   2.628  0.1182 -0.1463  0.0257
14130W        W30391  13.630   9.120   3.321  0.0790 -0.0780  0.1676
14131W        W30392   3.901   7.885  13.830  0.0574 -0.4309 -0.0458
14132W        W30393  18.184  13.665  15.322  0.0330  0.3123  0.0731
14133W        W30394   1.816  18.398  14.185 -0.0560  0.4386 -0.1317
14134W        W30395   2.147  11.134   5.476 -0.0825  0.0720 -0.2697
14135W        W30396   8.597   7.320  13.862 -0.0596 -0.0289 -0.0405
14136W        W30397  16.402  16.745  14.220 -0.1991  0.0347 -0.1371
14137W        W30398  16.174   6.138   6.007 -0.2690  0.0149 -0.0496
14138W        W30399  17.943   8.907   4.438 -0.0327  0.1231  0.0318
14139W        W30400   7.040  14.908   0.788  0.3935 -0.2157 -0.2564
14140W        W30401   6.846   4.184  13.575 -0.0871  0.1607 -0.0672
14141W        W30402  11.283  13.116   9.927 -0.2613  0.0888 -0.1480
14142W        W30403  12.665   7.050   1.573 -0.0844 -0.1652 -0.2530
14143W        W30404  13.765   0.746   4.368 -0.1479 -0.1080 -0.1866
14144W        W30405  14.707  16.617   3.626 -0.2232  0.0676 -0.1170
14145W        W30406   1.555  12.184  12.678  0.2683 -0.0594 -0.2613
14146W        W30407   0.456  18.439  14.908 -0.2269 -0.0311 -0.1019
14147W        W30408   4.827  17.005  13.492  0.1153 -0.1151 -0.1043
14148W        W30409  17.981   9.073  14.260  0.1117 -0.0361 -0.1894
14149W        W30410   1.018  14.948  11.141 -0.0854 -0.2746 -0.0120
14150W        W30411   6.507  14.742  12.794  0.0046 -0.1436  0.2824
14151W        W30412  17.547  17.673   4.803 -0.0954  0.3219 -0.0116
14152W        W30413  13.256  17.263   0.757  0.0990  0.0266  0.0328
14153W        W30414  11.277   9.394   4.613 -0.3481 -0.2054 -0.2373
14154W        W30415  18.019  11.536   0.614  0.2427  0.4034  0.2462
14155W        W30416  17.191   1.109   2.713 -0.0613  0.0689  0.2363
14156W        W30417   5.258   8.727   2.773  0.0395 -0.3525  0.2882
14157W        W30418   2.930  17.277  15.466  0.3857 -0.1549 -0.0644
14158W        W30419   9.443  14.833  13.762  0.0973 -0.2775 -0.1247
14159W        W30420   8.964   0.131  15.705 -0.1231 -0.1845 -0.2201
14160W        W30421  17.384   6.099   0.563  0.0531  0.1397 -0.0475
14161W        W30422   0.211  18.383  12.289  0.0593 -0.0990  0.0967
14162W        W30423   2.135  14.067   4.659  0.2684  0.1437 -0.0346
14163W        W30424   3.472   4.370  15.824 -0.1014  0.2439 -0.0748
14164W        W30425   5.685  16.518  15.825 -0.2561  0.1888  0.1108
14165W        W30426   3.589  10.114   0.809 -0.1843  0.3559  0.2801
14166W        W30427  16.782   7.561   5.877  0.0041 -0.0320  0.0253
14167W        W30428   6.216  16.810  12.137 -0.2768  0.4029  0.0595
14168W        W30429  15.827   5.505  13.396 -0.1141  0.0120  0.4173
14169W        W30430   5.657   1.801   0.212  0.3076  0.3183  0.1608
14170W        W30431   9.817   0.926  12.701  0.1080  0.2371 -0.1368
14171W        W30432   4.110  10.015  12.659 -0.3526 -0.0359  0.2000
14172W        W30433   9.599  13.679   5.755  0.1711  0.1931  0.0441
14173W        W30434   7.684   4.147   4.043  0.0138  0.3130  0.0521
14174W        W30435   2.540  13.260  15.227 -0.2664 -0.0105 -0.1296
14175W        W30436  17.961   4.751  14.861  0.0186  0.1686 -0.2418
14176W        W30437  12.905  17.440  15.910  0.3151  0.1942  0.0927
14177W        W30438   8.464   0.559  10.207  0.0805  0.0238  0.0377
14178W        W30439  11.979   2.481  14.465 -0.0784 -0.1243  0.1258
14179W        W30440   4.481   9.111  13.976  0.0083 -0.0801  0.1364
14180W        W30441  18.299   5.122   2.237  0.0704 -0.0223  0.0288
14181W        W30442   8.296  13.219   1.863 -0.1260 -0.5161 -0.0207
14182W        W30443   4.585  18.289   4.417 -0.1389 -0.1712  0.0086
14183W        W30444   6.837  14.399  12.417 -0.1964 -0.2664 -0.0054
14184W        W30445   3.728   5.110  15.837  0.1210  0.4589 -0.1243
14185W        W30446   7.872   1.860   3.305 -0.1331 -0.2648 -0.0638
14186W        W30447  17.105   0.001  14.997  0.1153  0.0055  0.1238
14187W        W30448  17.156   4.901   3.826 -0.1378  0.1648  0.3590
14188W        W30449  10.661   7.550   5.221 -0.2401  0.1473 -0.1349
14189W        W30450   9.197   6.957   3.670  0.0416  0.0511  0.0540
14190W        W30451  16.415   0.180  13.297  0.1426  0.0968 -0.2742
14191W        W30452   6.895   7.972   2.891  0.0332  0.0081  0.0712
14192W        W30453  10.983  16.575   2.454 -0.0895  0.5004 -0.0639
14193W        W30454   6.500   1.373   3.016  0.0908 -0.0332  0.2788
14194W        W30455   9.911  14.520  11.834  0.0393 -0.0267 -0.0293
14195W        W30456  13.381   0.330  14.271  0.1063 -0.1381 -0.7645
14196W        W30457  17.009  14.378   2.551 -0.1037 -0.1540 -0.0637
14197W        W30458   4.649  15.759  13.526  0.0462 -0.0368  0.0863
14198W        W30459  13.693  11.475  10.982  0.1553  0.1018 -0.0280
14199W        W30460   8.730   1.022  15.865  0.3345  0.0567  0.2677
14200W        W30461  15.202  14.178   1.403 -0.1236 -0.3391  0.0226
14201W        W30462  17.128  15.505   3.784  0.2864  0.1475  0.0318
14202W        W30463  17.527  15.338  10.642 -0.5240 -0.1420  0.1750
14203W        W30464   3.146   3.141   6.199  0.1399 -0.0279  0.0392
14204W        W30465   3.254   8.596   4.804  0.0086  0.1957  0.2206
14205W        W30466  12.579  15.654   1.684  0.1085  0.2924 -0.1637
14206W        W30467   1.768  15.648   0.300  0.2195 -0.1086  0.3587
14207W        W30468  12.768   6.698  14.516  0.0962  0.0601 -0.0966
14208W        W30469  15.802  13.502  11.714 -0.0033 -0.0023 -0.1123
14209W        W30470  13.136  16.180  15.308 -0.1571  0.0915  0.0108
14210W        W30471   0.647  13.217  12.174 -0.2336  0.2609 -0.1202
14211W        W30472  12.438  14.658  13.663 -0.3384 -0.1485  0.3075
14212W        W30473   4.050  16.452  11.509  0.2668  0.0174  0.3350
14213W        W30474   5.049   2.565  14.628 -0.2082  0.1158 -0.4221
14214W        W30475   8.285  11.549   4.605  0.2672 -0.0215  0.0662
14215W        W30476   5.324  16.625   1.996  0.2453 -0.1391 -0.3179
14216W        W30477   3.394  12.971  14.954 -0.1563 -0.1619 -0.0432
14217W        W30478   1.488   6.379   3.564 -0.0307  0.0920 -0.2003
14218W        W30479   2.987   0.184   0.937  0.0599 -0.1529  0.1135
14219W        W30480   2.119   6.319   4.224  0.0559  0.1621  0.0267
14220W        W30481   1.188   5.770  11.928  0.3029 -0.1775 -0.0761
14221W        W30482   8.659   9.477   6.109  0.0255  0.4454 -0.2563
14222W        W30483   7.236   9.600   4.439  0.0679  0.0766  0.0491
14223W        W30484   9.629  15.666  11.572 -0.1679 -0.2672 -0.2669
14224W        W30485  18.156   2.458  11.893 -0.0426  0.0439 -0.0653
14225W        W30486   2.338   5.252   1.531 -0.3618 -0.0004 -0.2331
14226W        W30487   1.930  13.191   4.666  0.0322 -0.1960 -0.2085
14227W        W30488   2.664  10.486   0.860 -0.1748  0.2415  0.0281
14228W        W30489   2.560  11.342   2.924  0.2966 -0.1253 -0.0866
14229W        W30490  12.807   5.203  15.459  0.1074 -0.0159  0.0944
14230W        W30491  17.220   5.757  11.419  0.0103 -0.0879 -0.1916
14231W        W30492   3.403  10.226   0.353 -0.1760  0.0876 -0.1135
14232W        W30493   1.652   4.147  15.010 -0.0611 -0.4181 -0.0742
14233W        W30494  18.385   9.739  12.907 -0.1203 -0.5780 -0.0595
14234W        W30495  17.571   8.798   3.962  0.3482 -0.2564  0.1565
14235W        W30496   3.775   5.536   5.268 -0.0179 -0.2082 -0.1273
14236W        W30497   0.087   7.140   4.327 -0.1376  0.0261 -0.1911
14237W        W30498   7.939  15.321   4.706  0.1875 -0.1152 -0.0547
14238W        W30499  13.512   5.315   4.382  0.0710  0.0469 -0.0793
14239W        W30500   0.873  12.586   4.238 -0.1705 -0.3055  0.0003
14240W        W30501  14.210   2.894   2.295 -0.1408  0.1196  0.0172
14241W        W30502  12.549  14.523   4.587 -0.1824  0.1225 -0.0246
14242W        W30503  18.030  14.141   0.944 -0.1452  0.0244 -0.0689
14243W        W30504  10.833  12.981   4.741 -0.1694 -0.1701  0.2781
14244W        W30505  14.952   0.796  13.374  0.0361  0.0804 -0.0649
14245W        W30506  13.739  12.303  15.337 -0.3004  0.0718  0.2828
14246W        W30507   9.971   0.472  15.580 -0.0589 -0.1963 -0.1632
14247W        W30508   8.728  11.163   3.589  0.0867  0.1069  0.0531
14248W        W30509   9.384  17.050  12.410 -0.0277 -0.5164  0.2152
14249W        W30510   2.293  15.611   1.238  0.0971  0.0738 -0.0628
14250W        W30511   2.347   5.646   0.706  0.1135  0.0004 -0.3364
14251W        W30512  10.730   1.784   3.850 -0.4101  0.0437  0.0335
14252W        W30513  10.285  18.024   1.375 -0.1006 -0.2306  0.0063
14253W        W30514  13.605  10.832   4.741  0.2577 -0.0077  0.0924
14254W        W30515  12.859  11.092   2.801  0.0882  0.1090  0.1300
14255W        W30516  12.484  13.745   4.418  0.1084  0.0288  0.0424
14256W        W30517   9.861   2.622   3.882  0.1070 -0.1232  0.1410
14257W        W30518   5.130   2.093  14.798  0.2285  0.0100  0.2339
14258W        W30519   2.402  12.452  15.836 -0.1735  0.1033 -0.0499
14259W        W30520   4.107  13.678   4.295  0.0116 -0.0618  0.3055
14260W        W30521   1.289  17.105  13.912  0.0592 -0.2248 -0.1169
14261W        W30522   8.344  10.939  14.878 -0.2114 -0.1138 -0.0216
14262W        W30523   9.745  15.805  13.971  0.1049  0.0538 -0.2413
14263W        W30524  16.373   2.926   5.191 -0.0776  0.1080  0.1346
14264W        W30525   7.124  15.671   5.381  0.2098 -0.3352  0.0400
14265W        W30526   0.384  11.225   1.385  0.1171  0.3850  0.0170
14266W        W30527  10.518   0.352   1.654  0.2376  0.0129  0.2069
14267W        W30528  14.202  11.052   2.709 -0.0161 -0.2512 -0.0028
14268W        W30529   3.819  12.968   3.709  0.0131  0.2145 -0.0212
14269W        W30530  16.179   1.788  12.973  0.0132  0.0899 -0.2069
14270W        W30531  10.739  17.354  15.788  0.1322  0.0851 -0.1597
14271W        W30532   5.979   4.951  13.200 -0.2357 -0.1319 -0.2473
14272W        W30533  10.399   0.352   1.171 -0.2240  0.1160  0.0399
14273W        W30534   2.709   3.245   4.983 -0.2816 -0.0372  0.0960
14274W        W30535  18.441   0.917  13.556  0.1360  0.0654  0.1969
14275W        W30536   9.486  17.419  14.628  0.2734 -0.2204 -0.0090
14276W        W30537   5.291  12.416  13.161 -0.1717 -0.1297 -0.1628
14277W        W30538   9.408   3.455  11.957 -0.1928  0.2379  0.0065
14278W        W30539  12.991  14.776  15.223  0.0587  0.2248  0.0971
14279W        W30540   2.988   7.435  15.748 -0.1388 -0.1680  0.0619
14280W        W30541  17.467   7.930  11.002 -0.0774 -0.0397  0.0595
14281W        W30542  15.731   2.192  12.729  0.0116  0.1384 -0.4677
14282W        W30543   5.939  14.011   4.129 -0.0095  0.0928 -0.1503
14283W        W30544   5.865  18.153   1.513 -0.1233 -0.1218 -0.0344
14284W        W30545  11.881   5.099   1.726  0.1675 -0.1369 -0.0516
14285W        W30546   1.303  12.516   4.970 -0.0403 -0.4481  0.0700
14286W        W30547   3.881   5.887   1.739 -0.0414 -0.1926 -0.2672
14287W        W30548   2.432   0.973  11.366  0.1035 -0.2452  0.2988
14288W        W30549  11.161  11.375  11.880  0.1098  0.0436  0.0127
14289W        W30550   1.203   4.035   1.882 -0.1611  0.0263 -0.2351
14290W        W30551  16.500   9.318   2.512  0.0394 -0.0693 -0.3207
14291W        W30552   4.234   6.915   0.290  0.1789 -0.2461  0.3231
14292W        W30553  14.011  13.813  14.935  0.1079  0.2719 -0.0447
14293W        W30554  16.591  13.371  14.996 -0.1230  0.3677  0.1706
14294W        W30555   1.221   6.451   0.974 -0.1960  0.3013 -0.1643
14295W        W30556   7.132   0.112   2.639  0.2400 -0.3458  0.0717
14296W        W30557   7.827   3.239   3.556  0.0353 -0.1893  0.0264
14297W        W30558   5.344  15.216   2.468 -0.0783 -0.1429  0.0935
14298W        W30559  12.430  16.999  13.518 -0.0661  0.0814 -0.4340
14299W        W30560   0.405  14.727  14.085 -0.2854  0.0449  0.0046
14300W        W30561   3.622   2.778   0.574  0.0364 -0.3917  0.0283
14301W        W30562   1.459  16.663  13.732  0.1138 -0.1133  0.2619
14302W        W30563  17.290  16.929   1.773 -0.0725  0.3161  0.0195
14303W        W30564  11.089   5.740  12.533 -0.0296 -0.1267 -0.2361
14304W        W30565  16.144   3.228  11.940  0.0316  0.3552  0.1684
14305W        W30566   0.531  13.390  13.696  0.2011 -0.0987 -0.4350
14306W        W30567   5.993   2.310  14.511 -0.1126 -0.0370 -0.0152
14307W        W30568   3.868   0.593   1.921 -0.1373 -0.0050 -0.0092
14308W        W30569   0.973  16.013   2.867  0.1430  0.2791 -0.2697
14309W        W30570   4.418   0.780   3.899  0.1247  0.0657  0.2038
14310W        W30571   0.081   2.912  13.592  0.4473  0.1232  0.0283
14311W        W30572   7.705  17.283   4.544 -0.1805 -0.1895 -0.2155
14312W        W30573  14.889  17.956   0.193  0.0142  0.0845 -0.0760
14313W        W30574  11.226   3.299   1.088  0.2079  0.1404  0.0580
14314W        W30575  14.636   1.825   5.053  0.0965  0.2212 -0.0730
14315W        W30576   7.341   9.879  12.642 -0.0361  0.1953 -0.0891
14316W        W30577   5.170   5.119   1.085 -0.2444 -0.2533 -0.1095
14317W        W30578  13.034   1.913  11.026  0.4157 -0.0889  0.0328
14318W        W30579   8.642  13.103   4.006  0.1077  0.0855  0.2488
14319W        W30580   1.323  15.010   1.300  0.0009 -0.0019 -0.1379
14320W        W30581  13.744  18.472  11.689  0.0346 -0.0797  0.2078
14321W        W30582  18.393  13.418  15.684  0.0950  0.0250 -0.0120
14322W        W30583  15.114   4.734   0.761 -0.4362  0.1571 -0.0312
14323W        W30584  14.876   2.713  15.580  0.1377  0.1333  0.0012
14324W        W30585   7.800  18.373  14.238  0.1326 -0.0614 -0.4808
14325W        W30586  12.722  13.354   4.173  0.1756 -0.0668 -0.2736
14326W        W30587  18.447  13.124   1.944 -0.1150 -0.0483  0.0370
14327W        W30588  16.159  14.819   1.036 -0.2912 -0.0771  0.1107
14328W        W30589  15.655  16.545  11.008 -0.2536 -0.1971 -0.1304
14329W        W30590   9.183  13.497  15.743  0.1814 -0.0073 -0.2451
14330W        W30591  14.581   4.047  11.804 -0.2580  0.2167 -0.0899
14331W        W30592   0.567   5.625   4.782 -0.0753  0.0622 -0.0626
14332W        W30593  14.372  12.864  12.857  0.1936  0.0057 -0.1963
14333W        W30594   8.515   2.590  11.741  0.1702  0.0613 -0.3703
14334W        W30595  13.795   5.540   1.374 -0.0645 -0.0189 -0.1058
14335W        W30596   4.005  12.788  14.574  0.0273 -0.0108 -0.1063
14336W        W30597   5.222  13.166  15.454  0.1849 -0.2105 -0.3309
14337W        W30598  18.396  18.306  15.535 -0.1561 -0.1813  0.0500
14338W        W30599   6.599  12.633   3.881 -0.2325  0.0469 -0.1782
14339W        W30600   0.441   6.262   2.585  0.2674  0.4438  0.1214
14340W        W30601  10.231  11.794   0.174 -0.0553 -0.2072 -0.1454
14341W        W30602  15.156   3.521   3.228  0.2141 -0.0102  0.2830
14342W        W30603  13.573   2.774  14.703  0.4375  0.1110 -0.2037
14343W        W30604  11.424  10.308  12.381  0.1818 -0.0701  0.3073
14344W        W30605  10.338  14.363   3.256  0.0667  0.1885 -0.0055
14345W        W30606  17.246   4.100   2.336 -0.2517 -0.0813 -0.0655
14346W        W30607   0.795  17.868   0.559  0.1775  0.3100 -0.2109
14347W        W30608  11.856   8.178   5.078 -0.0829 -0.3121  0.0582
14348W        W30609  15.026   1.971   2.299  0.0920 -0.0494  0.0157
14349W        W30610   0.393   7.908  13.992 -0.2304  0.0597  0.1353
14350W        W30611  10.223   2.801  13.970 -0.1511  0.1030  0.1432
14351W        W30612   5.556   3.956  14.110  0.2347  0.0610 -0.2155
14352W        W30613  16.906   2.072   3.033  0.3332 -0.2086  0.1074
14353W        W30614   1.301   1.071   2.952 -0.1069  0.1511 -0.3383
14354W        W30615   8.736  13.868  14.304  0.0935  0.0153  0.0756
14355W        W30616  13.202   2.328  13.067 -0.1308 -0.2958 -0.4198
14356W        W30617  13.803  12.156   4.004 -0.0409 -0.0097  0.1076
14357W        W30618  13.479   8.044  12.072  0.1255 -0.0820 -0.2985
14358W        W30619  11.599   3.497   4.126 -0.0909  0.0077  0.1742
14359W        W30620   1.892  16.416  16.110 -0.0863 -0.1487  0.2970
14360W        W30621  16.529   0.502   2.269  0.1016  0.2165 -0.3056
14361W        W30622   4.198   9.917   0.983  0.0483  0.1729 -0.3299
14362W        W30623  16.943   8.279  14.347 -0.1595  0.0270  0.4468
14363W        W30624   0.140  11.347   2.100  0.0413 -0.0365  0.2325
14364W        W30625   2.001   1.382  15.982  0.0455  0.0424  0.0407
14365W        W30626   1.001  17.472   3.776 -0.1568  0.0236  0.0236
14366W        W30627   2.830   6.390   3.333  0.3237 -0.0242 -0.0469
14367W        W30628  10.021   9.627   1.226 -0.1239 -0.0880  0.0387
14368W        W30629  16.031   7.032  11.461 -0.0125  0.2582  0.0980
14369W        W30630  12.461   5.889  13.855 -0.4757 -0.1670  0.0381
14370W        W30631   7.951  18.026   1.174 -0.0978 -0.0436  0.1325
14371W        W30632   3.697  15.982   4.981  0.0325 -0.2922  0.1377
14372W        W30633   0.518  11.598  15.993 -0.1355  0.2086 -0.0057
14373W        W30634   9.716  17.967   5.025 -0.2318 -0.2369 -0.0574
14374W        W30635  13.944  10.466  13.192  0.0448  0.1686  0.0861
14375W        W30636   8.883  16.926   5.776 -0.1171 -0.1195  0.5923
14376W        W30637   2.771   9.417  14.998 -0.0938  0.2115  0.1510
14377W        W30638   0.586   3.119  16.113 -0.2281 -0.0518  0.3509
14378W        W30639  16.945   9.713  15.530  0.0330 -0.1094  0.1421
14379W        W30640  15.580   7.269  16.071 -0.2470  0.1136 -0.1847
14380W        W30641  16.204   4.831  14.678  0.1718  0.0794  0.1693
14381W        W30642   8.919  17.134   5.033  0.1349 -0.0924  0.1046
14382W        W30643   0.546   6.162   3.104 -0.0792 -0.0299 -0.2247
14383W        W30644   4.504   4.839  15.988 -0.5455 -0.0766  0.0389
14384W        W30645  13.732   4.601  11.860  0.0523 -0.0389 -0.0739
14385W        W30646   1.080  16.591   1.608 -0.1945  0.0240 -0.1633
14386W        W30647   1.733   8.739  15.017 -0.2456  0.0284 -0.1913
14387W        W30648   0.636  11.487   2.340 -0.2312 -0.0163  0.0755
14388W        W30649  12.830  13.500   5.069 -0.0376  0.0810  0.0061
14389W        W30650  14.282   2.397  11.138  0.3378  0.1907 -0.1663
14390W        W30651  14.202   9.244   4.829 -0.0152  0.0125 -0.2109
14391W        W30652   7.618   5.916  15.311  0.0291 -0.0440 -0.2361
14392W        W30653  17.985   4.368   2.783 -0.0305 -0.1963 -0.1487
14393W        W30654  17.995   1.063  15.023 -0.1370  0.1148 -0.0473
14394W        W30655   4.334   1.197   2.886  0.0015 -0.4012  0.2419
14395W        W30656   8.628   0.101  16.156  0.2473 -0.0976 -0.0721
14396W        W30657  16.023  12.285  10.313 -0.0837 -0.1736  0.3178
14397W        W30658  17.227   0.005  11.064 -0.5522  0.3665 -0.0780
14398W        W30659  17.063   8.332  16.109  0.0397  0.2431 -0.0019
14399W        W30660  10.852   2.641   4.244 -0.1130 -0.2530  0.2123
14400W        W30661   7.906   0.612   3.679  0.1000 -0.1483  0.0206
14401W        W30662   6.785  11.788  12.387  0.1016  0.0969 -0.2772
14402W        W30663   7.643   1.688  12.520 -0.0766  0.0837  0.0007
14403W        W30664   5.086  10.494   4.021 -0.0041  0.2214  0.1447
14404W        W30665  16.783   2.244   4.786  0.0968  0.0961 -0.0874
14405W        W30666   9.961   6.128  13.047  0.0823 -0.0016  0.3123
14406W        W30667   6.773  11.098   0.117 -0.2989 -0.0306 -0.1701
14407W        W30668  14.220  16.880   2.919 -0.3340 -0.1907  0.5338
14408W        W30669   8.108   3.637   1.834  0.0463  0.4107  0.1850
14409W        W30670   6.162  14.248  13.991 -0.0664 -0.2738  0.1060
14410W        W30671   6.821  11.558   1.887 -0.1506  0.2400 -0.0115
14411W        W30672  15.086  10.771   1.296  0.2130  0.0797 -0.1623
14412W        W30673   4.757   3.529  12.739 -0.0375 -0.0031  0.1352
14413W        W30674  13.965  17.865   2.693  0.0663 -0.2740 -0.1736
14414W        W30675   2.281   7.745   1.817 -0.0256 -0.0814 -0.1019
14415W        W30676  17.581  15.983  11.840  0.1747 -0.1072 -0.1098
14416W        W30677   6.074  11.956  13.577  0.0118 -0.0564 -0.2164
14417W        W30678  15.782   2.518  15.636  0.0403  0.1046 -0.0037
14418W        W30679   2.761   7.162  15.312 -0.0670  0.1586 -0.1545
14419W        W30680  13.721  10.212   0.596 -0.1009 -0.0194  0.0642
14420W        W30681  12.672  17.948  15.941  0.2894 -0.0554  0.0425
14421W        W30682   7.095  14.816   4.524  0.1740  0.2693 -0.1123
14422W        W30683  17.167   1.501  11.910  0.1699  0.2582 -0.2793
14423W        W30684  14.489   3.101   5.821 -0.1148 -0.1737 -0.0784
14424W        W30685   9.724   2.529   0.893  0.1182  0.0877  0.1508
14425W        W30686   9.066  14.168   3.676  0.3463 -0.2681  0.0131
14426W        W30687  17.465  18.243   1.114 -0.1874  0.1016  0.0324
14427W        W30688   9.814   3.532  15.035 -0.2740  0.0683 -0.0315
14428W        W30689  10.432  13.242   5.337 -0.0880 -0.0361 -0.1112
14429W        W30690   9.694  16.572   0.133 -0.1999 -0.1644  0.3364
14430W        W30691   5.133   9.012   5.843 -0.2841  0.0562  0.1328
14431W        W30692  16.927   8.587   0.852  0.3345  0.0042 -0.2855
14432W        W30693  11.188  13.198   0.385 -0.0095  0.0359 -0.1107
14433W        W30694   6.807  12.672  13.540 -0.0483  0.0620 -0.2103
14434W        W30695  11.272  18.405   3.817 -0.0295 -0.1707 -0.1391
14435W        W30696  14.373  16.478   1.944 -0.2551  0.3137 -0.0825
14436W        W30697  16.428  15.490  14.650 -0.2864  0.2824  0.0493
14437W        W30698   2.491   8.063  12.841 -0.0626  0.0828  0.2062
14438W        W30699  18.413  18.244  14.411 -0.0894 -0.1188 -0.0532
14439W        W30700  18.164   8.757  15.604  0.0640 -0.0828  0.0978
14440W        W30701   7.002   4.460   5.060 -0.0539  0.2197  0.2983
14441W        W30702   6.707   5.927   0.036 -0.0767 -0.0351  0.1301
14442W        W30703  12.187   9.560  14.889 -0.0648 -0.1257  0.0392
14443W        W30704   2.709   6.951  14.215  0.1129  0.2699  0.0192
14444W        W30705  13.794   9.749   4.547 -0.0926 -0.0869  0.2727
14445W        W30706  11.983   6.729   3.535 -0.0545  0.1289  0.1047
14446W        W30707   2.941   9.444   1.235  0.0003  0.0086  0.1933
14447W        W30708   2.695  18.434  11.630  0.0292  0.3126 -0.0117
14448W        W30709   6.866  16.288  12.529 -0.0118  0.2006  0.2548
14449W        W30710  15.855   5.273   0.296  0.1273 -0.1493 -0.3093
14450W        W30711  14.736   1.887  14.813  0.2519 -0.3606  0.3070
14451W        W30712   9.898  14.714   2.852 -0.3332 -0.0010 -0.3064
14452W        W30713   5.210   5.026  12.379  0.0160 -0.1254 -0.1448
14453W        W30714  15.602  14.513   1.296 -0.0139  0.1287  0.3471
14454W        W30715  14.968   1.049  15.248  0.2506 -0.3529 -0.1945
14455W        W30716   4.979  11.439  14.126 -0.2482 -0.2891  0.4651
14456W        W30717   2.342  13.186   5.226  0.2678  0.0228  0.1367
14457W        W30718   1.508  11.074   0.859  0.0235 -0.1871 -0.4121
14458W        W30719  15.553  15.382   3.607  0.5411  0.0541 -0.2411
14459W        W30720  12.377  10.202   0.759 -0.0934 -0.0396  0.0826
14460W        W30721   8.836   9.137  15.877  0.1868 -0.0775 -0.2109
14461W        W30722   5.647  13.696   3.194  0.1346 -0.3065 -0.1158
14462W        W30723  11.325  13.856   0.455  0.0347  0.1327  0.2750
14463W        W30724  10.615   6.982  13.980  0.0236 -0.2262 -0.2093
14464W        W30725   6.401   7.093   4.389  0.2912 -0.1291  0.2320
14465W        W30726  12.160  11.276   3.665  0.1471 -0.2129 -0.0472
14466W        W30727   2.178   9.202   0.380 -0.0278 -0.1379 -0.1630
14467W        W30728   8.562  14.183  15.274 -0.0795 -0.0426  0.0052
14468W        W30729   2.847  13.878  11.201 -0.2015 -0.2234  0.0362
14469W        W30730   3.233   6.683   3.233  0.4892  0.0900 -0.1052
14470W        W30731   3.932   5.341  12.295 -0.4312 -0.0430  0.1686
14471W        W30732  15.379  10.990  14.251  0.0755  0.0282 -0.0017
14472W        W30733  15.497   9.437   1.531  0.1982 -0.1132 -0.2359
14473W        W30734  10.280   6.119   2.023  0.2075  0.2176 -0.1612
14474W        W30735   9.192  11.554   3.586 -0.0744  0.0713 -0.1623
14475W        W30736   3.641   3.076   5.871  0.1786 -0.1332  0.0138
14476W        W30737  12.677  12.235   4.976  0.2519  0.1797  0.0803
14477W        W30738  10.477  16.847   2.824  0.3617 -0.0616 -0.0011
14478W        W30739   6.049   4.563  13.457 -0.1138  0.0048  0.0102
14479W        W30740   0.741   4.982   0.385 -0.1206  0.1810  0.2504
14480W        W30741   7.200   3.880   1.648  0.0779 -0.2130  0.2956
14481W        W30742  14.671  16.322  12.249 -0.0550 -0.2917  0.1730
14482W        W30743  17.122   2.832   5.473 -0.0136 -0.2835 -0.3897
14483W        W30744   5.508  13.017   5.018 -0.1087 -0.1149 -0.1870
14484W        W30745   6.027  14.994   0.811 -0.1802 -0.0639  0.0387
14485W        W30746  10.603  15.061   4.022 -0.1602 -0.1067  0.1775
14486W        W30747  11.430   7.478  15.232  0.0729  0.3664  0.2614
14487W        W30748  10.798  14.234   4.251  0.0655  0.1350 -0.2181
14488W        W30749  16.676   1.812  15.377 -0.4463 -0.1937  0.1049
14489W        W30750   9.901   7.032  13.879  0.2220 -0.0963 -0.2879
14490W        W30751   3.094  14.012  15.578 -0.1515  0.2746 -0.1028
14491W        W30752  15.986   8.847  13.529 -0.1051  0.1114 -0.0009
14492W        W30753   7.671   1.550   0.395 -0.0412  0.1071  0.2145
14493W        W30754  14.498   8.370   5.200  0.0533  0.0285  0.3190
14494W        W30755  15.210  10.034  15.698  0.1724 -0.0893 -0.1514
14495W        W30756   2.165   6.826   1.467 -0.3409  0.0846  0.2389
14496W        W30757   4.213   8.054   4.728  0.0295 -0.0451 -0.0408
14497W        W30758   5.126  12.470   6.555  0.1972 -0.2183 -0.2805
14498W        W30759   3.876   2.216  15.188 -0.0983  0.0324 -0.0204
14499W        W30760  14.661   1.074  10.675 -0.2904 -0.2865  0.3214
14500W        W30761   2.871   8.752   0.648 -0.1712 -0.0199 -0.1145
14501W        W30762   9.273  17.824   3.803 -0.0424  0.1640 -0.2522
14502W        W30763   7.378   2.558  14.912  0.0744  0.2417 -0.0628
14503W        W30764   6.159  16.282  11.500  0.0535  0.1893 -0.1838
14504W        W30765   5.406   4.833   3.273 -0.1807  0.2487  0.2030
14505W        W30766  10.576   0.377  11.482  0.0834 -0.0983 -0.3390
14506W        W30767  13.100  13.490  10.891 -0.1848  0.1166 -0.0338
14507W        W30768  10.958  15.135  13.896 -0.0192  0.2479 -0.2066
14508W        W30769  11.695   3.639  12.478 -0.0125 -0.0607 -0.2586
14509W        W30770   5.873  16.164   5.224  0.1767 -0.0075  0.0968
14510W        W30771   6.350   7.273   2.526  0.0103 -0.3055  0.2859
14511W        W30772   9.706  15.542   3.682 -0.2030  0.5708  0.0457
14512W        W30773  15.120   0.250   2.357  0.1508  0.1126 -0.0412
14513W        W30774   4.206   6.933   0.831 -0.0395 -0.4419  0.0013
14514W        W30775   2.351  16.122   4.459 -0.3152  0.0396  0.0291
14515W        W30776  17.413  17.461   4.330  0.2015 -0.0668 -0.2005
14516W        W30777  13.968  10.516   4.727  0.2348  0.1813 -0.0115
14517W        W30778  12.401   2.294  14.692  0.0405  0.0743  0.2183
14518W        W30779  11.073  10.715   1.191 -0.2493 -0.0602  0.0577
14519W        W30780   0.970  17.923   4.554  0.0951 -0.2656  0.2083
14520W        W30781   3.123   9.934   5.500 -0.2731  0.2849  0.3956
14521W        W30782   9.948   7.959   1.682 -0.1383 -0.0267 -0.0370
14522W        W30783   0.792  18.000  15.833  0.0809 -0.0896  0.3650
14523W        W30784  14.288   0.112   2.021  0.1257 -0.0089 -0.0557
14524W        W30785   4.614  11.232  14.524  0.1464 -0.1745  0.2599
14525W        W30786  10.681  15.460   1.783 -0.1569 -0.0245  0.0605
14526W        W30787  18.451  18.213  11.189 -0.0537 -0.0422  0.2418
14527W        W30788  16.764   5.305  14.667  0.2962  0.2251  0.2147
14528W        W30789   4.358   6.196  11.233 -0.0177 -0.3605  0.0184
14529W        W30790   0.459  18.138   3.804  0.1340 -0.0538 -0.0564
14530W        W30791  16.198   2.112   3.090 -0.1226  0.1416 -0.1764
14531W        W30792  17.936  14.631   1.952  0.2526 -0.1097 -0.2157
14532W        W30793   4.780   3.213   0.114  0.2775  0.0123 -0.1608
14533W        W30794  15.075   0.702  12.691 -0.1747  0.2629  0.0379
14534W        W30795  17.079  14.821  12.726 -0.0052  0.1232  0.0085
14535W        W30796  13.602   2.506   1.204  0.4976  0.0914 -0.1809
14536W        W30797  11.231  14.119   0.009 -0.1880 -0.0700 -0.1273
14537W        W30798   8.442   1.249   1.353 -0.2161  0.2715  0.1306
14538W        W30799  11.511   9.373   5.799  0.0824  0.2937 -0.0892
14539W        W30800  11.568  15.002  15.019  0.0721  0.1749  0.0387
14540W        W30801  13.317   4.806   2.866  0.3787  0.0501 -0.0788
14541W        W30802   7.379   7.342   0.455 -0.1954 -0.1548 -0.3121
14542W        W30803   6.278   4.055   4.379  0.3439 -0.1396 -0.0988
14543W        W30804  18.178  15.457   0.491 -0.1778 -0.2336  0.1686
14544W        W30805   3.057   2.928   5.193  0.1068 -0.3165  0.1872
14545W        W30806  12.777   0.049   9.715  0.1660  0.1212  0.1701
14546W        W30807   8.957   8.083   5.980  0.2113  0.0736 -0.0975
14547W        W30808  10.166  12.980   3.057 -0.0557  0.2621  0.1263
14548W        W30809   9.024  12.275   6.295 -0.0852  0.1214  0.0253
14549W        W30810  13.666   6.862  14.479 -0.1173  0.0961 -0.1892
14550W        W30811   4.656  11.664   5.525 -0.0002  0.0023 -0.1236
14551W        W30812   5.850   8.595   5.605 -0.1880 -0.2126 -0.0554
14552W        W30813   0.521  15.201   0.948 -0.0062 -0.4105 -0.0158
14553W        W30814  16.953   9.431   3.220  0.1319  0.3003  0.1084
14554W        W30815  14.250  11.879   0.769 -0.2501 -0.1069  0.4945
14555W        W30816   7.545  15.850  13.582  0.0994 -0.0066 -0.1035
14556W        W30817  12.649   7.752   5.397  0.0265 -0.1870  0.1358
14557W        W30818   5.370   8.196   6.265  0.3495 -0.2571  0.0470
14558W        W30819  12.871  16.291  14.901 -0.1391  0.0474  0.0061
14559W        W30820  12.183  16.574  12.787 -0.1868  0.1609 -0.4101
14560W        W30821  13.425  11.435  14.696  0.1275  0.0112 -0.3714
14561W        W30822   8.599  16.119   3.617 -0.0761  0.2573 -0.0424
14562W        W30823   1.063   6.044  15.808  0.1789  0.1717  0.3235
14563W        W30824  16.458   4.111   4.461  0.2859 -0.1251 -0.2749
14564W        W30825  13.203  15.671  12.828  0.0104 -0.1000 -0.1393
14565W        W30826   4.150  12.720  14.108 -0.0559 -0.1002  0.2633
14566W        W30827   5.558  10.973   0.425 -0.3635  0.2277 -0.0006
14567W        W30828   7.638   9.316   3.065  0.1269  0.2207 -0.2116
14568W        W30829  15.155   0.474   3.263  0.0398  0.0550 -0.1316
14569W        W30830  16.000   0.009  11.039  0.0721  0.0940 -0.1242
14570W        W30831   3.430   0.055   4.437 -0.3802 -0.1156 -0.2024
14571W        W30832   4.576   1.532  15.018  0.2963 -0.1276 -0.2602
14572W        W30833  10.137   3.633   0.314  0.4028  0.0462 -0.1089
14573W        W30834   0.704  13.818   2.410  0.2409 -0.1394  0.0371
14574W        W30835   6.915   1.018   4.688  0.0856 -0.1057 -0.2045
14575W        W30836  12.752   3.076  15.063  0.2561 -0.0548  0.1568
14576W        W30837   9.214   0.130   6.165  0.1122  0.1075  0.1823
14577W        W30838  12.706  11.434  14.738 -0.3299  0.1709 -0.2602
14578W        W30839   3.595   0.707   0.673  0.0293  0.1939 -0.0667
14579W        W30840   7.224   9.395   0.338  0.1105  0.1954  0.1611
14580W        W30841   5.259   7.157  12.817 -0.1352 -0.1683  0.1377
14581W        W30842   6.294  18.191   0.178  0.0389 -0.0330  0.3139
14582W        W30843   1.195  18.035  13.270 -0.1412  0.1663  0.1317
14583W        W30844  17.064  16.706   2.541 -0.1772  0.2346  0.3197
14584W        W30845  10.412   4.123   4.910  0.2038 -0.0114  0.0799
14585W        W30846  11.161  10.539  14.607  0.4523 -0.0849  0.0045
14586W        W30847   6.574  12.638  13.114 -0.0209 -0.0906 -0.4554
14587W        W30848  11.189   2.269  12.231 -0.0038 -0.0381 -0.0887
14588W        W30849   2.689  16.894  16.142  0.1877  0.0039  0.1954
14589W        W30850  10.520   1.792   4.353  0.1529  0.0083 -0.3024
14590W        W30851  10.534   0.725  13.856 -0.4271  0.3197  0.1568
14591W        W30852  11.083  17.073   1.785 -0.2432 -0.3107 -0.0838
14592W        W30853   7.387   7.488  14.171 -0.0149 -0.2542 -0.0216
14593W        W30854   4.095  15.373  11.697 -0.2185 -0.1243 -0.1682
14594W        W30855  17.944  14.250   1.645 -0.1776  0.0174 -0.1982
14595W        W30856   0.125  15.797   1.985 -0.1160 -0.1226 -0.3101
14596W        W30857  12.907  17.199  14.537 -0.3004  0.5152 -0.3229
14597W        W30858   4.737   7.879  10.782  0.0523 -0.0300 -0.2836
14598W        W30859   7.214   1.143  16.072 -0.2178 -0.3824 -0.2247
14599W        W30860   3.309  14.263   1.261 -0.0682  0.0359 -0.1738
14600W        W30861   3.941  15.347   6.239  0.0124  0.2467 -0.0562
14601W        W30862  13.188   8.848   4.811 -0.4130  0.1790 -0.1573
14602W        W30863  12.503  15.222  10.624  0.0947  0.1267 -0.2334
14603W        W30864   8.765   6.887   0.548  0.0121 -0.1714 -0.2471
14604W        W30865  10.465  10.648  12.062  0.0291  0.3036 -0.0364
14605W        W30866   9.348   7.161   1.119  0.0196  0.0672  0.1032
14606W        W30867  13.564  15.366   9.427  0.0722 -0.3144 -0.3011
14607W        W30868   7.695   5.681   5.688  0.2464 -0.3366  0.1580
14608W        W30869   0.228   1.224   3.734  0.1153 -0.0718  0.1383
14609W        W30870  15.666  10.402  15.696 -0.1723 -0.2457  0.0293
14610W        W30871   1.343  17.498   4.770 -0.3267  0.1938  0.3511
14611W        W30872  13.652   1.204  10.596  0.3607 -0.0519 -0.2140
14612W        W30873   8.520   3.910   3.502 -0.0582  0.3261 -0.0463
14613W        W30874   9.860   0.143  11.055  0.1770 -0.1066  0.0596
14614W        W30875  11.337   0.350  11.251  0.1215 -0.2342 -0.1238
14615W        W30876  15.271  11.887  11.507  0.0326 -0.0161 -0.2637
14616W        W30877  13.691  15.619  13.344 -0.2075  0.0093 -0.0321
14617W        W30878  12.556   5.702  15.455 -0.0458 -0.1055 -0.1881
14618W        W30879  15.938  13.150  15.732  0.0225 -0.3449 -0.3131
14619W        W30880  16.415  16.988   3.339  0.0161 -0.0311  0.1429
14620W        W30881   8.307   0.935   0.006  0.1207 -0.0048 -0.0195
14621W        W30882  15.795  17.198  11.787 -0.2539 -0.4155  0.0889
14622W        W30883   7.559  15.799   1.411  0.0297  0.2335 -0.0502
14623W        W30884  16.240  10.333   3.879  0.0700  0.1130 -0.1236
14624W        W30885   5.437  11.429   0.207 -0.1419 -0.1023  0.0655
14625W        W30886  17.002   3.902  12.041  0.1054  0.3352 -0.0066
14626W        W30887   7.410   3.489  11.074  0.0756 -0.1757  0.0427
14627W        W30888   7.026   1.116   6.215 -0.0781  0.4175  0.3101
14628W        W30889  12.484  12.590  13.328 -0.2108 -0.2719  0.4339
14629W        W30890  17.957  11.506   1.303  0.0054 -0.0221 -0.1730
14630W        W30891   8.060  14.885  15.979  0.1522 -0.0907 -0.1771
14631W        W30892   7.231  13.124  13.668  0.0820 -0.2156  0.4109
14632W        W30893  13.308   5.606   1.582  0.2208  0.4587 -0.1351
14633W        W30894  15.624  17.476   0.145 -0.1592  0.2537  0.2711
14634W        W30895   1.523   5.342   0.414 -0.1119 -0.2610 -0.0601
14635W        W30896   9.168  11.028  13.416  0.3257 -0.0522 -0.1216
14636W        W30897  14.553   9.739  10.209  0.3785  0.3881  0.3888
14637W        W30898  16.276  15.116   2.969  0.0604  0.1196  0.0254
14638W        W30899  13.425  13.199  13.924  0.1499  0.1555  0.1336
14639W        W30900   2.332  14.608   1.459  0.3076  0.0285 -0.1599
14640W        W30901  10.329   1.738  13.972  0.3742  0.0598 -0.1579
14641W        W30902  18.109  16.186   3.114  0.0407  0.1931 -0.2825
14642W        W30903   6.646  13.624  14.945  0.0741 -0.0423  0.0598
14643W        W30904   7.470   8.576  12.591  0.0829 -0.0416  0.0471
14644W        W30905   9.812  15.920  12.914  0.0484 -0.1507  0.1776
14645W        W30906   6.783   4.883  12.738 -0.3490 -0.0045 -0.2555
14646W        W30907  11.056   7.006  11.768 -0.1032 -0.3095  0.0614
14647W        W30908   2.547  16.541   1.847  0.0922  0.5228  0.4015
14648W        W30909   7.571   3.632   5.368  0.4766 -0.0508 -0.0654
14649W        W30910  12.976  10.245   4.823  0.2608  0.2630  0.1331
14650W        W30911   5.947   4.061   0.602 -0.0571  0.0175  0.2437
14651W        W30912   3.735   9.959   3.891  0.3593 -0.1720  0.1499
14652W        W30913  14.075  12.867  11.276 -0.1516  0.0077 -0.0843
14653W        W30914  16.412   1.655  10.823 -0.1782 -0.1186  0.0088
14654W        W30915   0.745  10.884  14.394 -0.2123  0.1624 -0.1334
14655W        W30916   8.195  16.452   2.036 -0.0748  0.0543  0.1650
14656W        W30917  17.688  18.380   0.310 -0.0498  0.2299  0.3320
14657W        W30918  17.890   9.741  13.839  0.0886 -0.3204 -0.2813
14658W        W30919  10.558   3.722  15.602 -0.0745  0.2784  0.2547
14659W        W30920  15.985  12.806  15.009  0.2489  0.0885  0.3642
14660W        W30921   0.331  12.955  12.412 -0.1080 -0.1777 -0.3352
14661W        W30922  12.018  12.019  14.146 -0.0861  0.0654  0.0441
14662W        W30923   2.954  13.944  13.565 -0.0926 -0.1175 -0.4080
14663W        W30924  12.253  12.360  10.772  0.2856 -0.2820  0.2005
14664W        W30925   7.069  14.210  14.315 -0.0304  0.0377 -0.0731
14665W        W30926   4.915  13.530  16.000  0.2936 -0.1457 -0.2194
14666W        W30927  10.947  11.365   0.506  0.2057  0.3944  0.1396
14667W        W30928  11.863  11.852   2.269 -0.3760  0.1667 -0.1426
14668W        W30929  15.695  10.647   4.124  0.1410  0.2062  0.2943
14669W        W30930   7.645   2.013   3.871 -0.1838  0.1746  0.2396
14670W        W30931  17.759  16.979   3.107  0.0991 -0.0957 -0.1458
14671W        W30932  11.003   4.850   2.043  0.1054  0.3969 -0.1199
14672W        W30933  10.021   9.867   3.428 -0.3335  0.2692 -0.1744
14673W        W30934  14.890   8.499  13.839 -0.0222 -0.1243  0.1261
14674W        W30935  17.773   6.115   4.067 -0.3032  0.0701  0.2124
14675W        W30936  13.442  15.827  10.732 -0.1425  0.2404 -0.1773
14676W        W30937  15.017  14.275   2.450 -0.2283  0.0143 -0.2186
14677W        W30938   7.106  16.614   0.271 -0.5427 -0.3075  0.0242
14678W        W30939   7.919   8.442   2.032  0.2420 -0.1189  0.1007
14679W        W30940  14.059   9.181  15.889 -0.1726  0.0920  0.0524
14680W        W30941  10.580   1.247  12.618  0.0362 -0.1914  0.1470
14681W        W30942  16.515   8.457   0.604 -0.2548 -0.0317  0.0923
14682W        W30943   0.562  14.140  13.213  0.0633  0.2519 -0.0111
14683W        W30944   3.278   9.657   0.915 -0.1946 -0.0893 -0.0641
14684W        W30945   1.165   6.959  13.353 -0.1616  0.0764  0.0589
14685W        W30946  16.792  12.109  15.259 -0.0283  0.2479 -0.0005
14686W        W30947  17.921  17.041  11.518 -0.2026  0.2800  0.0032
14687W        W30948  17.381  16.779  12.517  0.2040 -0.5395  0.0420
14688W        W30949  11.703  14.304   1.125  0.0024 -0.0207  0.0827
14689W        W30950  16.808  13.735  11.945 -0.2430 -0.0263  0.1840
14690W        W30951  14.805   5.966  11.002 -0.1168 -0.0892 -0.1390
14691W        W30952   2.717  11.690   0.241 -0.1848 -0.2009 -0.0647
14692W        W30953   7.321   9.023   6.379  0.2913  0.1301 -0.0952
14693W        W30954   1.365  15.515   0.730  0.2435  0.1888  0.4452
14694W        W30955   5.309  16.241  11.735  0.0633 -0.0676 -0.2893
14695W        W30956   5.194   3.689  12.826 -0.2796  0.2160  0.1998
14696W        W30957  14.124   7.754   6.332  0.0618  0.1395 -0.0159
14697W        W30958  18.236  17.445  12.550  0.3279  0.1843 -0.1506
14698W        W30959  11.419  13.256  12.209 -0.2968  0.1439 -0.0637
14699W        W30960   3.772   1.227   3.529 -0.0369  0.0218  0.3185
14700W        W30961   7.136   9.961  14.965 -0.0225 -0.0634  0.1379
14701W        W30962   8.064   5.515  11.903 -0.1051  0.2671  0.2656
14702W        W30963   2.350   1.210   0.104  0.0544 -0.1046  0.1322
14703W        W30964  18.349  12.823   0.149  0.1227 -0.0304 -0.0021
14704W        W30965   9.430  10.627   3.480 -0.0198  0.3320 -0.2612
14705W        W30966   6.488  16.951  11.734 -0.0290 -0.0981  0.0145
14706W        W30967   3.426  15.376   6.083  0.1350  0.2584  0.2008
14707W        W30968   0.049   3.770  15.453  0.1404 -0.1197  0.1477
14708W        W30969   2.712   0.922   3.853  0.2912 -0.1728  0.4496
14709W        W30970  17.768  14.070   0.524 -0.2462 -0.0451  0.1647
14710W        W30971   6.058  12.764  16.126 -0.4199  0.1217 -0.4174
14711W        W30972  16.989   2.207   0.985 -0.0057 -0.1136 -0.0038
14712W        W30973  13.120   6.947  15.808  0.1896 -0.1357 -0.0956
14713W        W30974   0.962  10.975  15.729 -0.2449  0.0234 -0.3358
14714W        W30975   9.518   4.652  12.653  0.0606 -0.1340  0.0446
14715W        W30976   2.962  16.193   1.896 -0.1380 -0.1028 -0.2787
14716W        W30977   2.484  13.137   1.639 -0.2156  0.2344 -0.1040
14717W        W30978   1.456   2.902  15.907  0.2169  0.2983  0.3653
14718W        W30979  12.010   7.705   4.827 -0.2340  0.2310  0.0538
14719W        W30980  13.722   2.688  15.855  0.0779 -0.2621 -0.1623
14720W        W30981   2.071  11.958   3.524  0.0913 -0.1213 -0.2451
14721W        W30982   4.787  13.896  11.275 -0.3133 -0.1437  0.3889
14722W        W30983   4.876   9.618   0.760 -0.0496 -0.0301  0.1287
14723W        W30984  18.386  14.910   1.727 -0.0818 -0.0338 -0.0006
14724W        W30985   4.277   8.589  11.545  0.2295 -0.1555 -0.0448
14725W        W30986   0.797   4.877   1.482 -0.1079 -0.1494  0.0024
14726W        W30987   7.669  17.997  15.390 -0.0503 -0.2915 -0.2263
14727W        W30988  16.121   1.241   1.348 -0.2327  0.0133  0.1793
14728W        W30989   4.719   8.300   1.787 -0.4535  0.1425  0.1821
14729W        W30990  13.442  11.453  15.749  0.3853 -0.2842 -0.2601
14730W        W30991   5.257   2.940   5.269  0.0442  0.0960  0.0251
14731W        W30992  14.806  11.444  15.808  0.1156 -0.3415 -0.1938
14732W        W30993   9.702   2.490  13.637  0.1112 -0.0174  0.2150
14733W        W30994  11.044   8.271   6.118 -0.0852  0.2799 -0.1210
14734W        W30995   7.189  15.241   4.764 -0.0529  0.0120  0.0525
14735W        W30996  16.669  12.571   0.368  0.1430 -0.1404  0.0462
14736W        W30997   9.183   3.899   0.330 -0.2574 -0.0610  0.1804
14737W        W30998  17.984   7.783   2.758 -0.0747 -0.0689  0.0433
14738W        W30999   6.899  13.243   4.411 -0.2345  0.2830  0.0016
14739W        W31000  14.373  11.486  12.502 -0.0757 -0.0356  0.2537
14740W        W31001   5.389   2.044   3.533 -0.1877 -0.3400  0.1626
14741W        W31002   4.276  12.919  11.654 -0.1608  0.0392 -0.3616
14742W        W31003   7.611  10.081  16.114 -0.1333 -0.0990 -0.1155
14743W        W31004  11.983   4.702   3.498  0.2199 -0.0137 -0.1648
14744W        W31005  10.443   7.559  11.534 -0.3358  0.5019  0.4673
14745W        W31006  14.872   1.846  13.859  0.0444 -0.2440 -0.1969
14746W        W31007   7.194  16.110   1.484  0.0485 -0.3029 -0.1090
14747W        W31008   1.874   3.127   6.071  0.3346  0.0198 -0.1291
14748W        W31009   3.428   9.458  12.423 -0.0453 -0.1835 -0.1959
14749W        W31010  13.085  12.845  14.094  0.0919  0.2586 -0.0338
14750W        W31011  14.824   0.401   9.402 -0.1725 -0.2634 -0.1221
14751W        W31012   5.701   3.714   2.546  0.1347 -0.1843  0.0554
14752W        W31013   8.249  13.882  12.747 -0.2302 -0.2333 -0.0050
14753W        W31014  14.890   4.828  14.188 -0.0250 -0.0047  0.3731
14754W        W31015   8.280  17.776   1.999  0.1510  0.3918 -0.0413
14755W        W31016   8.694  16.989   2.047  0.0039  0.1346  0.0655
14756W        W31017   3.154  10.026  13.122  0.0802  0.0379 -0.2624
14757W        W31018  12.658  10.677  14.106 -0.1782 -0.1451  0.1613
14758W        W31019   5.110   7.752  15.191  0.0522  0.1283  0.2157
14759W        W31020  17.502   3.398  12.242  0.0046  0.1347  0.1124
14760W        W31021  13.489   4.977  13.265 -0.0136  0.1248 -0.0682
14761W        W31022   3.141  12.090  11.947  0.1286  0.0423 -0.2062
14762W        W31023   2.110   5.851   4.306  0.1997 -0.1156  0.0542
14763W        W31024   1.619   6.177   0.584 -0.3571 -0.0950 -0.1936
14764W        W31025  16.191   8.552   5.586 -0.1058 -0.1960 -0.3032
14765W        W31026  14.850   5.419   5.716 -0.0610  0.3731 -0.1986
14766W        W31027   7.407   7.932  14.544  0.1842 -0.0696 -0.0590
14767W        W31028  17.307   6.957   0.504  0.2803  0.0778  0.1836
14768W        W31029   7.628   4.908   4.834  0.1412  0.0226  0.2125
14769W        W31030  17.106   3.864   1.414  0.0038 -0.1146 -0.3046
14770W        W31031  13.232  13.969  11.035  0.1146  0.1533 -0.2473
14771W        W31032  11.393  15.301  12.151 -0.0714  0.0114  0.2062
14772W        W31033   5.314  17.812  11.212 -0.1218  0.2068  0.0765
14773W        W31034   8.336  10.986   3.859  0.1667 -0.2452 -0.0863
14774W        W31035   7.561   5.582   3.130 -0.1576  0.0702  0.1651
14775W        W31036   5.027   1.203  12.123  0.1010 -0.3535  0.0291
14776W        W31037  17.366   8.658  13.127  0.1960  0.3002 -0.0945
14777W        W31038  14.518  13.821   3.413 -0.4656  0.2599  0.0516
14778W        W31039  13.608   3.267  14.825 -0.0488  0.2288 -0.4537
14779W        W31040   0.043   3.705   1.672  0.1871  0.1744  0.2310
14780W        W31041  13.362   8.308   4.767  0.0927  0.1985  0.1728
14781W        W31042   4.810  12.965   6.445 -0.3448  0.1325 -0.1698
14782W        W31043  16.202   9.250   4.621  0.2271  0.0962  0.2874
14783W        W31044   6.565   0.649  12.376 -0.1355 -0.1005  0.2603
14784W        W31045   8.502  11.866   4.201  0.1771  0.0175 -0.0692
14785W        W31046   4.765  12.720   0.832 -0.2424  0.3344 -0.1772
14786W        W31047  10.952  12.826  16.008  0.3577 -0.0825 -0.0437
14787W        W31048  16.044   2.084   4.165 -0.2464 -0.2126 -0.1288
14788W        W31049  11.940   4.055   3.500  0.2623  0.0631  0.2438
14789W        W31050   0.839  17.891   3.506 -0.4850 -0.0613  0.1126
14790W        W31051  14.996   5.528  14.746 -0.0863 -0.2373  0.1072
14791W        W31052   3.815  12.305  13.078 -0.0024  0.4127 -0.2655
14792W        W31053  16.493  17.791  13.369  0.1170  0.0286 -0.3197
14793W        W31054  12.757   6.894   2.872  0.4196  0.4346 -0.2625
14794W        W31055   2.558   0.731  13.073  0.0389  0.2811 -0.1407
14795W        W31056  16.335  13.018   1.560  0.1211  0.2172 -0.0234
14796W        W31057   5.438  10.575  16.010 -0.3594 -0.0533  0.1610
14797W        W31058   6.197  12.830  11.653 -0.2436  0.1432  0.3376
14798W        W31059   1.766  13.893   5.508 -0.0828  0.1305 -0.1058
14799W        W31060   4.847  11.325  15.017 -0.0165 -0.0123  0.0556
14800W        W31061  10.495   0.548   0.218  0.1352  0.2568 -0.4971
14801W        W31062   4.236   4.247  12.892 -0.0811  0.3173  0.1692
14802W        W31063  14.369   3.345   2.676 -0.0859  0.2205 -0.1885
14803W        W31064   5.977   0.955   4.412  0.1008  0.1556  0.3765
14804W        W31065  11.272  10.606   3.492 -0.2887  0.2055  0.0451
14805W        W31066   1.573   2.329  12.121  0.4395 -0.0639  0.0627
14806W        W31067  15.301   4.019  11.336 -0.2907  0.0274 -0.2197
14807W        W31068   2.916   9.268  13.005 -0.2360  0.1241  0.2369
14808W        W31069  12.766  10.722  11.871 -0.0645  0.0540  0.2913
14809W        W31070  10.859   6.361   2.788  0.0790 -0.1190  0.1656
14810W        W31071   0.633  15.609   2.696  0.1603  0.0373 -0.2232
14811W        W31072  14.463   0.263   5.294  0.0399  0.0423 -0.1956
14812W        W31073   6.340   1.628   0.441 -0.3167  0.2984  0.0571
14813W        W31074   6.483  15.033   2.377  0.4952 -0.2132 -0.1929
14814W        W31075  14.160   9.580  13.053 -0.1774  0.1575 -0.0429
14815W        W31076  14.333   5.613   5.562 -0.2335 -0.0445 -0.1173
14816W        W31077  10.577   8.889  13.360  0.0926  0.2847 -0.1127
14817W        W31078   3.630  13.579  11.322 -0.0723  0.1665 -0.2464
14818W        W31079   8.915   9.997  15.651  0.0152  0.0044  0.1735
14819W        W31080  13.171   8.237   5.246  0.0601  0.1170 -0.0707
14820W        W31081   4.136  16.190   4.175 -0.1263  0.2892  0.1018
14821W        W31082   4.384   4.487  12.439 -0.0378  0.0201 -0.0038
14822W        W31083  11.474   5.704  11.697  0.2658  0.1749 -0.1451
14823W        W31084  17.556   9.847  14.242 -0.2709  0.1084 -0.1946
14824W        W31085   9.251  13.626   3.410  0.0357  0.1184 -0.0241
14825W        W31086  10.140   4.937   2.585  0.1157 -0.1612 -0.2315
14826W        W31087  11.501  10.558   0.950  0.0696 -0.0322  0.0837
14827W        W31088   3.908  18.046  12.131  0.1753 -0.0538  0.1570
14828W        W31089   3.761   0.358  13.428 -0.3639 -0.1541 -0.1623
14829W        W31090  17.304   6.178  11.704  0.0012 -0.3285  0.1855
14830W        W31091   2.787   2.534   5.130 -0.2170  0.1225  0.2483
14831W        W31092  13.426   4.559   1.925  0.2183 -0.0616  0.1236
14832W        W31093   7.101   6.673   0.027  0.1111  0.0279 -0.1277
14833W        W31094  13.049   0.484  15.355  0.0437 -0.1764 -0.1703
14834W        W31095   6.051   8.480  14.145  0.1546  0.3843 -0.0173
14835W        W31096   0.978  17.577   0.224  0.2163 -0.2610 -0.2194
14836W        W31097  11.053   2.196  13.319  0.0807  0.0083  0.0385
14837W        W31098   7.855  15.201   5.217 -0.3193 -0.0816  0.0308
14838W        W31099   6.746   2.488  12.731  0.0133  0.0326 -0.1547
14839W        W31100   8.786  12.074   3.816  0.1448  0.0419 -0.1328
14840W        W31101  12.239  18.122  16.142  0.0596 -0.2336  0.1480
14841W        W31102   2.731   9.007  15.304 -0.3444 -0.1686  0.4515
14842W        W31103   0.985   7.460  15.607  0.0119  0.0617 -0.1373
14843W        W31104   4.734   7.705  11.831 -0.1742 -0.1096 -0.0294
14844W        W31105  16.408  15.685  12.439  0.3270 -0.2840  0.0319
14845W        W31106   4.237  14.508   3.309 -0.2057 -0.1535  0.1097
14846W        W31107  17.921   9.682   3.627 -0.0419 -0.1627 -0.1373
14847W        W31108   2.902   7.906   4.225 -0.1572 -0.0518  0.1784
14848W        W31109  10.908   1.481  11.641 -0.1233  0.1603 -0.1758
14849W        W31110   6.250   0.875  14.169  0.0095 -0.2153 -0.1112
14850W        W31111   2.736   9.880   4.154 -0.5489 -0.0685  0.1525
14851W        W31112  13.116   4.469   5.252 -0.4649  0.1780  0.1347
14852W        W31113  15.604   3.648   3.648 -0.2405 -0.2558  0.0983
14853W        W31114  12.159  15.034  13.856 -0.0628  0.0431 -0.3043
14854W        W31115  12.022   3.240   2.544  0.2223 -0.0444  0.1755
14855W        W31116   3.957   5.166   1.880  0.1565 -0.2859  0.1401
14856W        W31117  15.119  13.662  11.327 -0.1355  0.0452  0.1092
14857W        W31118  16.645  17.164   0.951 -0.0031  0.1216  0.2313
14858W        W31119  15.561   1.433   4.544  0.1157 -0.1269 -0.1996
14859W        W31120  18.410   0.581  11.621 -0.2832 -0.1862  0.2154
14860W        W31121   6.524  14.686   3.657  0.4193 -0.2004  0.1633
14861W        W31122  10.179  14.175   0.380  0.0162 -0.0520  0.1577
14862W        W31123   0.493   0.691   0.578 -0.2808 -0.3128  0.3405
14863W        W31124   9.740  14.391  16.175  0.2615  0.0013 -0.2437
14864W        W31125  17.684   8.849  15.551  0.1582 -0.1043  0.0296
14865W        W31126   8.441   6.091  15.191  0.0351 -0.1151  0.1425
14866W        W31127   3.066   7.195   4.754 -0.0864  0.0737 -0.1254
14867W        W31128   9.165   3.476  15.680  0.2388  0.2184  0.2502
14868W        W31129   7.735  17.409  12.650  0.1925 -0.0714 -0.4172
14869W        W31130  18.120  17.135   3.919 -0.0194  0.0750  0.2147
14870W        W31131  12.235   2.561   4.406 -0.1326 -0.1579  0.0505
14871W        W31132   3.917  15.051   2.518  0.0163  0.2922  0.2239
14872W        W31133   9.467   1.461   5.647  0.2744 -0.1096 -0.0310
14873W        W31134   6.885   9.482  13.471 -0.1470 -0.1304 -0.3179
14874W        W31135  15.720   1.936   4.896 -0.1428  0.3122 -0.2417
14875W        W31136   2.690   0.180   5.164  0.0415  0.3791  0.1420
14876W        W31137   7.727  10.683   4.239  0.0281  0.0022 -0.1334
14877W        W31138  17.141  17.955   2.672  0.0002 -0.1096  0.3292
14878W        W31139   5.768   0.224   3.351 -0.1268  0.0807  0.2908
14879W        W31140  10.643  17.508   4.082 -0.0942 -0.0660 -0.1044
14880W        W31141   5.255   5.337  13.269  0.1155  0.1818 -0.1668
14881W        W31142   4.139  12.990   5.058  0.1891  0.0718 -0.0942
14882W        W31143   5.484  10.520  15.517  0.0732  0.2181 -0.0879
14883W        W31144  10.588   5.711  12.439  0.1571 -0.3889  0.0851
14884W        W31145   9.435   3.759  12.324  0.0046  0.2902  0.1094
14885W        W31146  17.500   9.391   3.942  0.0910  0.0644  0.0664
14886W        W31147   9.988  12.665   0.650  0.0214  0.1114 -0.1273
14887W        W31148   9.670  18.447  11.660  0.1743 -0.1612  0.0017
14888W        W31149  10.735   5.443   2.910 -0.2703  0.3505  0.3297
14889W        W31150  14.860  14.175   1.050  0.1450  0.1146 -0.1346
14890W        W31151  13.197  16.791  14.146  0.2222 -0.1792  0.1204
14891W        W31152  15.735  17.006  16.106  0.0664  0.1086  0.0635
14892W        W31153  10.807  13.555  13.945 -0.0045 -0.0822 -0.1242
14893W        W31154   0.145   2.607  11.964 -0.2016 -0.2951 -0.1061
14894W        W31155   1.253  11.920   3.170  0.2538  0.2341  0.0344
14895W        W31156  12.777   9.433  14.251  0.0472  0.0867  0.1081
14896W        W31157   5.598   9.518  15.510 -0.4365 -0.0252  0.0093
14897W        W31158   4.506   2.086   0.819 -0.0580  0.0043 -0.1560
14898W        W31159   8.449   3.336   0.701  0.2663 -0.0723  0.1989
14899W        W31160   6.984   0.321   0.028  0.0269 -0.1361  0.0385
14900W        W31161  11.694  16.502  13.469  0.0510  0.2688 -0.1387
14901W        W31162   8.009  16.088  13.779  0.0899 -0.0460 -0.0068
14902W        W31163  13.111   4.795  13.656  0.0811 -0.2546 -0.1039
14903W        W31164   6.019  17.533   2.268 -0.1341 -0.1353  0.1468
14904W        W31165   1.160   1.261   4.561  0.0538 -0.4312  0.1105
14905W        W31166   6.567  11.268   3.812  0.0490 -0.0662 -0.2727
14906W        W31167  11.460   4.543  15.818  0.0011  0.0789 -0.0114
14907W        W31168  13.326  17.340   4.169  0.0926 -0.0281  0.0140
14908W        W31169  13.427  13.756   0.045 -0.0032 -0.0016  0.0966
14909W        W31170   0.478   5.655   3.292  0.0646  0.3219  0.2627
14910W        W31171   9.110  16.063   1.149  0.3665 -0.0905 -0.0373
14911W        W31172   4.107  14.592  12.145 -0.3427 -0.0216  0.1041
14912W        W31173   8.169   8.087   3.321 -0.1965 -0.2108  0.0127
14913W        W31174   3.398   4.677   0.875  0.3132 -0.0411 -0.2199
14914W        W31175   8.432   6.179   1.317 -0.0108  0.1249  0.1660
14915W        W31176   1.028  11.503   2.717 -0.0305  0.0892 -0.1068
14916W        W31177   3.768   6.850   1.116 -0.0121 -0.1359  0.4484
14917W        W31178   4.211   4.331  13.804  0.0792  0.1182  0.1691
14918W        W31179   5.776  14.524  13.966  0.0729 -0.0787 -0.0531
14919W        W31180   7.317   9.553   0.916 -0.2193  0.0130 -0.1287
14920W        W31181  15.068  12.263   4.385  0.0995  0.0071 -0.1004
14921W        W31182  15.135   4.946  16.074 -0.2963  0.0908  0.2224
14922W        W31183  13.973   7.284   6.486 -0.1338 -0.2497  0.2530
14923W        W31184   8.920  16.791  13.551  0.1044  0.0142 -0.0087
14924W        W31185  12.575  18.362   2.893  0.1275  0.2238  0.3406
14925W        W31186   7.075   4.173   0.074 -0.2639  0.0391  0.2022
14926W        W31187   9.344   6.497  12.348 -0.0211  0.1778 -0.3151
14927W        W31188  16.911   2.350  11.208  0.0454 -0.1219 -0.1029
14928W        W31189  15.313  16.559  11.402  0.1645  0.2913  0.0202
14929W        W31190  16.164   6.639  11.810  0.0463 -0.1296  0.1355
14930W        W31191   3.419   3.575   3.188  0.1902 -0.2678 -0.1962
14931W        W31192  13.066   5.973   4.436 -0.3197  0.0973  0.0790
14932W        W31193  10.905   0.230   0.934 -0.1053  0.1321 -0.0405
14933W        W31194  10.251   2.823   1.550  0.0568 -0.6032 -0.0996
14934W        W31195  14.933   9.674   0.682 -0.0936 -0.1137  0.2528
14935W        W31196  14.831  12.616  15.326  0.2964  0.1075  0.0820
14936W        W31197   5.378   4.539   3.625  0.1186  0.0893 -0.1400
14937W        W31198  12.812  12.926  10.541 -0.2193  0.0800  0.2644
14938W        W31199  11.758  18.433   3.943 -0.1594 -0.0707 -0.0972
14939W        W31200   1.903  14.028   1.954  0.0003  0.1244 -0.1788
14940W        W31201   8.784   4.991   1.128 -0.1769 -0.1484  0.0727
14941W        W31202  13.502  15.897  11.391  0.2551 -0.2228  0.2085
14942W        W31203   3.643   0.241  15.397  0.3041  0.0015  0.3411
14943W        W31204  16.749  12.898  16.139 -0.0511  0.2640 -0.1080
14944W        W31205  12.159   3.407  15.513  0.3753  0.2109 -0.2042
14945W        W31206   2.616  13.852  13.925 -0.1267  0.0541  0.1066
14946W        W31207   7.744   6.679   3.254  0.0644 -0.4459  0.1071
14947W        W31208   5.889   7.822  12.424 -0.0365 -0.2616 -0.0085
14948W        W31209  14.325   6.370   1.562 -0.1120 -0.1732  0.0954
14949W        W31210   6.933  10.681  14.296  0.1871  0.0045 -0.2274
14950W        W31211   6.577   6.523  14.487 -0.0589 -0.2614 -0.1124
14951W        W31212   0.164   6.128  14.883  0.2360  0.0390 -0.0058
14952W        W31213   8.789   7.651   5.257  0.1406  0.2200 -0.1182
14953W        W31214  16.930  13.760  14.834 -0.0203  0.0505 -0.1754
14954W        W31215  12.512   0.469   0.066  0.0698 -0.1948  0.4961
14955W        W31216   2.553  13.020  10.902 -0.0342  0.2338 -0.0378
14956W        W31217   9.166  16.253   2.311  0.0934  0.2474  0.2898
14957W        W31218  11.293   4.417   1.331  0.0449 -0.0666 -0.1004
14958W        W31219   6.418  12.384   5.522  0.2221  0.0281 -0.2782
14959W        W31220  13.363   0.154   0.478 -0.0074  0.0050 -0.0042
14960W        W31221  15.423  11.433  10.622 -0.1883 -0.1505  0.2004
14961W        W31222  14.121  13.367   3.506  0.2558 -0.1614 -0.0184
14962W        W31223   5.412   0.390   5.967 -0.1370  0.2774  0.0794
14963W        W31224  13.803   1.941   1.897  0.3664  0.1117  0.2039
14964W        W31225   2.061   5.779  12.175  0.2235  0.0664 -0.0156
14965W        W31226  14.664  11.628   1.393  0.0605 -0.2967  0.1721
14966W        W31227   8.448   7.281   2.410 -0.2063 -0.1059 -0.0739
14967W        W31228  10.177   1.731   3.025  0.1870  0.2078 -0.0172
14968W        W31229   4.687   5.997   3.155 -0.0874  0.1498  0.2101
14969W        W31230  18.107  11.203   2.988  0.0266 -0.1726 -0.1958
14970W        W31231   8.866  15.591   4.372  0.2409  0.2934  0.3768
14971W        W31232  11.264   4.072  11.062 -0.0057 -0.3288 -0.3014
14972W        W31233  18.094  17.526  11.658  0.0885 -0.2985  0.3094
14973W        W31234   7.457  14.712   5.165 -0.1784  0.1817 -0.2038
14974W        W31235   6.558   3.126  15.525 -0.2740  0.1368  0.4904
14975W        W31236  10.834   4.366   5.083  0.1169  0.1128 -0.1743
14976W        W31237  11.402   5.025  15.170  0.0593 -0.0493 -0.1066
14977W        W31238   9.185   8.334  14.034  0.4344  0.1233  0.2055
14978W        W31239   9.312   5.487   0.512 -0.1388  0.0915  0.3988
14979W        W31240   1.117   8.170  12.153 -0.2170 -0.3942 -0.1680
14980W        W31241   6.767  13.128  15.659 -0.0080  0.3770 -0.1233
14981W        W31242   4.940   7.956  12.843  0.1564 -0.0412  0.0141
14982W        W31243   4.573   4.213   6.176 -0.2599  0.0847 -0.0284
14983W        W31244  16.419   2.447   2.180 -0.1536 -0.0056  0.0354
14984W        W31245  15.394   6.039  10.904 -0.0239  0.1101 -0.1523
14985W        W31246   5.205  10.339   2.635  0.2661 -0.0374  0.5434
14986W        W31247   3.784   9.739  15.628  0.2756 -0.1392 -0.0354
14987W        W31248  14.427   0.325   0.761  0.0348  0.0185 -0.0030
14988W        W31249   0.191   7.971   1.819 -0.1511 -0.1058 -0.0786
14989W        W31250  13.736  17.100   1.259 -0.0639 -0.2368 -0.0201
14990W        W31251   6.031   0.290   0.499  0.1378 -0.0302  0.3178
14991W        W31252   7.886  14.878   2.302 -0.0165 -0.1805 -0.2348
14992W        W31253  11.103   6.104   2.394 -0.1934 -0.0122  0.1143
14993W        W31254  11.083  15.136   3.860 -0.3440  0.1897  0.1167
14994W        W31255   6.672  12.243  11.836 -0.0314  0.1004  0.0360
14995W        W31256   3.283   9.590  14.939  0.2206 -0.0382  0.2516
14996W        W31257  14.559   4.835   1.887 -0.1116  0.0180 -0.1253
14997W        W31258   9.824   1.113   2.602  0.3534  0.2518  0.0368
14998W        W31259  10.749  17.083   5.324 -0.1182 -0.1810  0.1347
14999W        W31260  16.675  10.118   4.889 -0.1300 -0.2053 -0.2133
15000W        W31261   2.081   7.153  12.644  0.0014  0.0598 -0.1917
15001W        W31262  16.986   5.314  11.798 -0.1584 -0.0645 -0.1064
15002W        W31263  17.618  13.090  15.070  0.1911  0.0633  0.0722
15003W        W31264  13.067   8.890  15.349 -0.0794  0.0531  0.0747
15004W        W31265  15.333   6.198   3.673  0.1194  0.0151  0.1189
15005W        W31266   1.995  16.582  10.467 -0.0632  0.3614 -0.1307
15006W        W31267   4.282  16.479   4.672  0.2729  0.0909 -0.0424
15007W        W31268   2.398  17.944  12.975 -0.2006  0.3371 -0.2214
15008W        W31269   7.951   4.093   4.504  0.1593  0.2487 -0.0384
15009W        W31270   7.496   2.783  13.122 -0.1007 -0.0056 -0.1679
15010W        W31271   5.677   0.195   2.048  0.1001 -0.0982 -0.0038
15011W        W31272   0.846   8.738  13.272 -0.0649  0.1946  0.4037
15012W        W31273   1.231  13.251  12.404  0.0609 -0.2752  0.2624
15013W        W31274   7.165  17.644  11.149 -0.2719  0.2484  0.1757
15014W        W31275   3.444   5.978  11.145 -0.1168 -0.3096 -0.4035
15015W        W31276   0.914   3.588   5.183 -0.3668 -0.2088  0.0703
15016W        W31277  11.390   5.924  14.109 -0.0619  0.2537  0.1674
15017W        W31278   2.849   0.831  13.573  0.1294 -0.2894 -0.0320
15018W        W31279   8.350  17.885  14.850 -0.0204 -0.2381 -0.0696
15019W        W31280   2.784   2.080   5.685 -0.2632  0.1679 -0.0121
15020W        W31281  17.086   0.215   1.719  0.2220 -0.4085  0.0822
15021W        W31282  13.157  17.631  14.631 -0.1271 -0.0736 -0.2101
15022W        W31283  16.040  14.974   4.407 -0.1502 -0.2979  0.1281
15023W        W31284   6.352  10.525  16.182 -0.2469 -0.2088 -0.0628
15024W        W31285  14.091  18.317  10.701 -0.2484 -0.0116  0.1168
15025W        W31286  13.405   9.741   2.141 -0.0773 -0.0234 -0.0935
15026W        W31287   7.388   4.442   2.945  0.1996  0.0670 -0.0203
15027W        W31288  16.078  17.894  10.690  0.3253 -0.0601  0.2469
15028W        W31289  15.167   0.150   0.251 -0.1468 -0.2186  0.2420
15029W        W31290  12.710   1.413  11.416  0.1389 -0.1610 -0.1923
15030W        W31291   5.232   8.958  11.912 -0.2005  0.1557  0.0142
15031W        W31292   9.869   6.598   0.220 -0.0338 -0.1137 -0.2852
15032W        W31293  10.227   2.663  15.014  0.3323 -0.3253 -0.2652
15033W        W31294   9.138  16.605  13.151  0.1461  0.0478 -0.0137
15034W        W31295   0.252  15.801  14.444 -0.1941 -0.0183  0.0371
15035W        W31296  15.434   5.502  11.894  0.0496  0.1403  0.0069
15036W        W31297   4.075   2.953  13.132 -0.0938  0.0243 -0.1589
15037W        W31298   9.289  17.967  11.867 -0.0604 -0.0359 -0.0242
15038W        W31299   2.381  13.014  14.814 -0.2080  0.1979  0.0059
15039W        W31300   1.748  15.098   3.961  0.0236  0.0568 -0.0142
15040W        W31301   9.582  16.288  13.202 -0.0040 -0.3120 -0.1546
15041W        W31302   4.570   7.702   0.629  0.3548 -0.2919  0.2961
15042W        W31303   4.699  12.691   3.023 -0.1772  0.1760 -0.1014
15043W        W31304  17.774  10.228  15.115 -0.2182 -0.2999 -0.0753
15044W        W31305   5.208   0.831   0.179  0.1661 -0.0330 -0.3414
15045W        W31306  13.497   7.215   2.088 -0.0337 -0.1094  0.1334
15046W        W31307  10.231  18.050   2.979 -0.2981 -0.1187 -0.1362
15047W        W31308   4.041   4.498   5.002 -0.0755 -0.1009 -0.0375
15048W        W31309  10.032  12.953  12.010  0.0659 -0.0740 -0.1059
15049W        W31310   6.741  13.875   3.968  0.3637  0.2761 -0.4999
15050W        W31311   7.592  16.075   0.124 -0.2117 -0.0244 -0.2077
15051W        W31312   7.463  15.595  14.684  0.3828  0.2507 -0.1087
15052W        W31313  17.939  18.153  11.447  0.5959 -0.2190  0.0537
15053W        W31314  13.815   6.583  14.988 -0.0286 -0.2813 -0.1391
15054W        W31315   3.831   2.393  16.021  0.2485  0.0414 -0.2538
15055W        W31316  10.852   1.127  14.079 -0.2666 -0.0983 -0.0894
15056W        W31317   5.282   6.193  14.812 -0.0193 -0.2050 -0.1865
15057W        W31318   3.433   3.103  15.609 -0.2714 -0.0406 -0.0735
15058W        W31319   3.585  16.900   4.663 -0.0258  0.1085 -0.0804
15059W        W31320   3.536  10.760  13.885  0.0052  0.1741  0.2079
15060W        W31321   3.804   7.924  14.328 -0.0580 -0.2415  0.0498
15061W        W31322   2.688  13.603   1.547 -0.2464  0.2329  0.0597
15062W        W31323   7.935   0.799   0.775  0.1878 -0.2777  0.2285
15063W        W31324  17.682  11.238   3.223  0.0701  0.0576  0.1001
15064W        W31325  10.534   1.418   2.794 -0.0544  0.2132  0.2475
15065W        W31326   4.550  15.386   2.265 -0.3081  0.0481  0.1120
15066W        W31327  14.531  13.904  15.262  0.1453 -0.1085 -0.0343
15067W        W31328   7.074  12.345  14.230  0.1078 -0.1237 -0.3933
15068W        W31329  12.585   9.852   3.718 -0.1757 -0.0306 -0.0772
15069W        W31330   4.316   5.055  15.579  0.4067 -0.0475 -0.0925
15070W        W31331  16.707  11.347   5.323  0.2983  0.2252  0.2382
15071W        W31332   5.168  18.063  13.685  0.0225 -0.1536  0.1395
15072W        W31333  14.210  16.945   3.925  0.0371  0.0530 -0.1932
15073W        W31334  12.054  15.380   4.819 -0.0301  0.1714  0.0861
15074W        W31335  14.183  16.157   0.032 -0.2247  0.0375 -0.0629
15075W        W31336  14.817  18.037   1.028 -0.0344  0.1661  0.6606
15076W        W31337  10.821   8.189  13.861  0.3250  0.1809  0.1112
15077W        W31338   6.813   3.314  13.011 -0.0699 -0.3966 -0.3240
15078W        W31339   0.017   2.945   6.262  0.1291 -0.2737 -0.4962
15079W        W31340   3.433   8.439   0.279  0.1161  0.1465 -0.0610
15080W        W31341   7.435   9.373  12.405 -0.1422 -0.3219  0.4213
15081W        W31342  12.890   7.005  13.008  0.3902  0.0973 -0.0135
15082W        W31343   9.775   6.232   3.763 -0.0089  0.1369  0.0954
15083W        W31344   0.747   1.155  11.189 -0.2432  0.1204 -0.1224
15084W        W31345   8.150   0.856   1.929 -0.3420  0.3445  0.2818
15085W        W31346  11.642  13.419   0.332 -0.0579  0.2352  0.2291
15086W        W31347   2.845   5.132   6.804 -0.0774  0.0616  0.2462
15087W        W31348  11.995   9.623  12.705  0.0672 -0.0934 -0.1048
15088W        W31349  15.090   5.592  10.990 -0.3067  0.0887  0.1069
15089W        W31350   9.180  11.901  12.069  0.0547 -0.1773  0.0076
15090W        W31351   4.078   1.131  13.712 -0.1585 -0.1287  0.0809
15091W        W31352   6.544  13.385   1.111 -0.1703 -0.2151  0.0717
15092W        W31353   0.630  11.459  13.640 -0.0607  0.2995  0.3590
15093W        W31354   8.471   3.324  13.133 -0.1002  0.2117 -0.1646
15094W        W31355  17.781   8.941   2.179 -0.1504  0.1207 -0.0240
15095W        W31356   5.143   3.173  13.513  0.0627 -0.1649 -0.1799
15096W        W31357  13.176   9.443  12.950 -0.1835  0.2100 -0.0941
15097W        W31358   8.101   7.849   3.980 -0.2821  0.0666 -0.1827
15098W        W31359  11.311   4.932   4.542 -0.1798  0.1355  0.1697
15099W        W31360   9.458   9.073  13.539 -0.2878 -0.0397 -0.0837
15100W        W31361  13.256  16.382   9.970  0.2093 -0.2520 -0.3525
15101W        W31362   7.408  17.198   3.465  0.1052 -0.0017 -0.1359
15102W        W31363  13.554  14.750   0.488 -0.0101  0.1330 -0.1272
15103W        W31364  11.022   1.957   0.826  0.1640 -0.1047 -0.0963
15104W        W31365   6.843   2.305   0.364  0.0295  0.0755 -0.0992
15105W        W31366  18.347   7.710  13.343  0.2891 -0.0273 -0.2620
15106W        W31367   8.152  11.522  15.354  0.2260 -0.3957 -0.0963
15107W        W31368   3.411   5.284   3.416 -0.0680  0.1924  0.0528
15108W        W31369   4.594  17.770   1.611 -0.0581  0.0030  0.4925
15109W        W31370   6.884  12.606   1.960 -0.4067 -0.2709  0.1195
15110W        W31371  10.325  15.801   1.969 -0.0925  0.1836 -0.1620
15111W        W31372  12.804   4.841   3.057 -0.2159  0.1983  0.0332
15112W        W31373   3.370  14.805  13.469  0.2456  0.0251 -0.1075
15113W        W31374  17.074  15.032   0.075 -0.1676  0.2156 -0.0581
15114W        W31375  12.832   8.913   2.525  0.1696 -0.1063  0.1099
15115W        W31376   5.155   5.550   3.868 -0.1497 -0.2622  0.0957
15116W        W31377  17.918  13.585  13.507 -0.2687  0.2473  0.3219
15117W        W31378   3.415  11.208  12.221 -0.3599  0.0705  0.0005
15118W        W31379   8.319  14.447   3.477  0.1371  0.0920 -0.0861
15119W        W31380  15.616  15.150  14.871 -0.3319 -0.0223 -0.0271
15120W        W31381  12.031   2.953  11.292 -0.1763 -0.2307 -0.2910
15121W        W31382  18.184   1.806   1.593 -0.1536 -0.1119 -0.3054
15122W        W31383  10.992   0.710  11.174 -0.2577  0.3007  0.1253
15123W        W31384   8.733   5.131   1.658 -0.0624 -0.1939  0.0409
15124W        W31385  12.454  14.765  14.186  0.0740 -0.0648  0.1325
15125W        W31386  17.344   3.054  11.794  0.0642 -0.0983  0.0137
15126W        W31387   1.152   4.058  14.747 -0.2326 -0.0366  0.1125
15127W        W31388   4.143  17.074   3.890 -0.0667  0.0335 -0.2627
15128W        W31389   4.719   4.934  12.725 -0.0269  0.1030 -0.2990
15129W        W31390  11.856   0.607  13.650  0.0894  0.2807 -0.2443
15130W        W31391   1.519  17.221  12.170 -0.0306  0.0908 -0.0938
15131W        W31392   0.225  16.664   2.477 -0.2593  0.1265 -0.0386
15132W        W31393   0.869   8.984  12.778 -0.0883 -0.3432  0.2463
15133W        W31394   2.849   8.087  11.579  0.0754 -0.3497  0.1030
15134W        W31395   8.902  17.251   2.605 -0.2004 -0.1636 -0.0796
15135W        W31396   8.209  13.040  13.143  0.1157 -0.0762  0.0068
15136W        W31397   6.808   6.365  15.841 -0.2410 -0.1093  0.0148
15137W        W31398  11.875  14.392   5.650  0.1631  0.2752 -0.0451
15138W        W31399  11.217   9.936   0.890  0.0096 -0.3151 -0.1524
15139W        W31400  12.062   6.527  15.859  0.4093 -0.0845 -0.1316
15140W        W31401   6.691   3.783   2.644  0.1945 -0.4141 -0.1481
15141W        W31402   4.636   8.647  14.022  0.1774 -0.0894  0.0986
15142W        W31403  17.915  10.979   5.775  0.3299  0.2112 -0.0809
15143W        W31404  13.851  12.638   4.697  0.0161  0.0294 -0.3499
15144W        W31405   0.625  16.559  11.888 -0.1582 -0.0420 -0.2309
15145W        W31406  16.798   6.229   3.999  0.0478 -0.0436 -0.0387
15146W        W31407  11.498   7.542  11.885 -0.1938 -0.3440 -0.0249
15147W        W31408   9.890   6.376   2.743  0.0638  0.1773 -0.3579
15148W        W31409   1.619   5.154  12.999  0.0593 -0.3282  0.1406
15149W        W31410   3.868  18.370   2.633 -0.0445 -0.0911  0.0580
15150W        W31411   2.540   8.711  12.846  0.0203 -0.0993 -0.0309
15151W        W31412   0.090   9.825   3.603 -0.1283  0.2391 -0.2277
15152W        W31413   2.151  18.239  13.277 -0.4373 -0.1273  0.1185
15153W        W31414  14.874  17.180   0.670  0.0235 -0.1411 -0.0959
15154W        W31415  13.256   7.700   5.103 -0.1295 -0.1571 -0.0654
15155W        W31416  14.987   2.118   2.820 -0.1439  0.1083  0.4563
15156W        W31417   0.152   2.035   4.580  0.1853  0.0633 -0.0276
15157W        W31418   2.078   4.993  15.045 -0.4133 -0.2336 -0.1448
15158W        W31419   7.822   1.660   4.270  0.3242  0.2313 -0.0313
15159W        W31420   8.140   6.618   5.611 -0.2454 -0.2377  0.6212
15160W        W31421   9.491  14.331  13.843 -0.0603  0.3295 -0.0091
15161W        W31422   6.383  12.431  13.609 -0.2489 -0.0640 -0.2665
15162W        W31423  13.079   7.555   5.536  0.1260  0.1073 -0.0694
15163W        W31424  11.724   4.500   0.061 -0.1213  0.1498 -0.1146
15164W        W31425   8.634   9.616  12.721  0.0168  0.3163 -0.2972
15165W        W31426  10.074   7.151   3.299  0.0742 -0.4706  0.1864
15166W        W31427   6.057  12.277   5.149 -0.1220 -0.0110  0.3500
15167W        W31428   2.394   5.062  12.390 -0.0443 -0.1505  0.4476
15168W        W31429   3.715   0.127  13.827  0.0971  0.2428 -0.1252
15169W        W31430  18.296  16.348   2.192  0.0058 -0.0728 -0.0825
15170W        W31431  16.123  11.895  12.657 -0.2628  0.3394  0.0983
15171W        W31432   3.120   9.479  15.444 -0.1320 -0.3064 -0.3257
15172W        W31433   5.675  16.094  14.071  0.0525 -0.0313  0.4321
15173W        W31434  17.349   7.667   1.684 -0.2304  0.0293 -0.2767
15174W        W31435  13.636   2.812   3.833  0.1622  0.0986 -0.4515
15175W        W31436   3.103  12.590  14.804  0.0400 -0.2593 -0.0829
15176W        W31437   8.591  12.495   2.984  0.3226 -0.1565  0.0159
15177W        W31438   0.893  14.798  12.121  0.0714 -0.0618  0.0607
15178W        W31439   2.126   7.175   0.186 -0.0977  0.0619  0.0472
15179W        W31440  11.943  13.259   3.709  0.2735 -0.0692  0.0922
15180W        W31441   5.925   0.949   1.073 -0.0749  0.2858  0.0784
15181W        W31442   7.384   9.541  15.511 -0.2794 -0.1015  0.2378
15182W        W31443   7.400  12.804   2.089  0.1683  0.4446  0.1585
15183W        W31444   8.686   1.952   4.726  0.1255 -0.3751  0.0673
15184W        W31445   3.277  13.072   4.976  0.5773 -0.2428 -0.0759
15185W        W31446  11.162  15.538  12.507 -0.2559 -0.3974 -0.2513
15186W        W31447  10.530  10.328  15.186  0.1539  0.2390 -0.0008
15187W        W31448  17.843  13.700  14.451  0.3978  0.1122  0.1264
15188W        W31449  13.273  13.111  12.298 -0.1589 -0.1176  0.1446
15189W        W31450  10.784   4.855  14.960 -0.2295  0.0939 -0.1358
15190W        W31451   8.808  12.500  15.391 -0.0145 -0.0414 -0.1333
15191W        W31452  17.530   5.663   4.252  0.0058  0.0273 -0.1245
15192W        W31453  14.071   9.254  11.745 -0.2897  0.0640  0.1993
15193W        W31454   1.695   0.476   1.040  0.2374  0.0038  0.0787
15194W        W31455   6.281   5.858  13.461  0.1322 -0.2949 -0.0142
15195W        W31456   0.306   1.650   5.288 -0.0474  0.2029  0.3418
15196W        W31457   7.388   8.907  12.238  0.0244 -0.1351 -0.0877
15197W        W31458  15.055   7.301  16.151 -0.0870 -0.1481 -0.3628
15198W        W31459   5.635   5.849  14.601  0.2354  0.0035  0.0329
15199W        W31460   5.659   8.684  14.526  0.1107 -0.0312 -0.1068
15200W        W31461  12.582  12.934   1.894 -0.0150  0.2102 -0.0592
15201W        W31462   5.929   8.917   0.202 -0.2513  0.0260 -0.0477
15202W        W31463   0.698  17.055  11.747 -0.0381 -0.2242  0.0119
15203W        W31464  12.430  17.095   4.072  0.2151 -0.1472 -0.0471
15204W        W31465  12.654  10.863   1.368 -0.1478  0.0584 -0.2121
15205W        W31466  15.655   2.188  13.882  0.0454  0.0350 -0.0249
15206W        W31467  13.644  12.321  15.881  0.3229  0.2999  0.2192
15207W        W31468   3.694   0.323   0.968  0.0992 -0.2835  0.0353
15208W        W31469   9.088   4.510  12.237  0.1296  0.1121  0.0621
15209W        W31470  13.852   6.790   6.537  0.1706  0.0254  0.2596
15210W        W31471  12.884  17.560   1.487 -0.1363  0.0371  0.1638
15211W        W31472   6.228  12.243  14.070  0.1331 -0.1304 -0.1854
15212W        W31473   9.896  17.408   4.941 -0.3228  0.2410  0.0633
15213W        W31474   9.795  17.697  12.900 -0.4583  0.1836 -0.1247
15214W        W31475  10.797  16.423   0.825  0.1377 -0.0761 -0.0657
15215W        W31476  12.438   3.133  10.101 -0.0140 -0.2605 -0.1193
15216W        W31477   6.797   8.228   0.300 -0.0520 -0.1841  0.0276
15217W        W31478   4.884   7.486   0.219  0.2439  0.1356 -0.1814
15218W        W31479   8.982   3.420  13.178 -0.0043 -0.1152 -0.1759
15219W        W31480  13.549  17.621   3.819  0.0743 -0.0851  0.1252
15220W        W31481   1.906  14.203  12.696  0.1826 -0.0826  0.1763
15221W        W31482   4.859   3.707   4.198  0.0072 -0.2228  0.1729
15222W        W31483  12.762  17.077   1.426 -0.2295  0.1161 -0.0373
15223W        W31484  10.043   1.339   0.268 -0.1515 -0.2241 -0.2352
15224W        W31485   3.182   2.900   0.172  0.4277 -0.1390 -0.0931
15225W        W31486  12.182   6.949  15.008  0.4460  0.0252  0.1030
15226W        W31487  16.432   3.852  12.940 -0.3973 -0.1913 -0.0902
15227W        W31488   7.482  18.113   5.610  0.1085 -0.2930 -0.1643
15228W        W31489  16.122   6.863  13.539 -0.1121  0.0767  0.1928
15229W        W31490   4.206  10.837   2.766 -0.2430 -0.0394  0.1934
15230W        W31491   3.305   0.310   0.603  0.1203 -0.0092 -0.0011
15231W        W31492   9.380  16.864   0.490 -0.0894 -0.3168 -0.3250
15232W        W31493   0.328   0.061   4.837 -0.0681 -0.3199  0.0366
15233W        W31494   4.166   7.431   3.980  0.0078  0.2092  0.3599
15234W        W31495  14.457  13.925   4.639  0.3183  0.0892 -0.0676
15235W        W31496   0.617  16.722   2.815  0.2789 -0.0610  0.2753
15236W        W31497   3.235  18.450   2.998  0.0685  0.1385  0.2578
15237W        W31498  16.249  10.923  15.495 -0.1039 -0.0485  0.0745
15238W        W31499   6.024  15.225  15.103 -0.0523  0.3950 -0.2543
15239W        W31500   8.843   7.360  15.898 -0.0316 -0.1538  0.0270
15240W        W31501  15.539  15.625  14.697 -0.1213  0.2065 -0.0032
15241W        W31502  16.093  15.823  14.319  0.1009 -0.2611 -0.3882
15242W        W31503   8.665   4.413  14.645  0.3897 -0.1262  0.0581
15243W        W31504  12.788   8.920   2.028  0.0892 -0.0238  0.0774
15244W        W31505  10.852  11.674   4.354 -0.1997  0.2133  0.3752
15245W        W31506  14.820   4.516   4.996 -0.1341  0.0537 -0.2241
15246W        W31507  13.355  12.580   4.850  0.1138 -0.1655 -0.3443
15247W        W31508  11.990   8.796   4.607 -0.1910 -0.1541  0.2396
15248W        W31509   4.956  10.490  13.983  0.0324  0.0419 -0.2628
15249W        W31510   2.949  18.295   5.411  0.1707  0.2593  0.0524
15250W        W31511   0.628  12.973   4.445 -0.1567  0.2094 -0.0843
15251W        W31512   7.554   3.673  13.375  0.1225  0.1617 -0.0769
15252W        W31513  17.853  11.183   4.529 -0.0417  0.0005  0.5240
15253W        W31514   3.671   7.221  15.183  0.1861 -0.0433 -0.1444
15254W        W31515  13.402   2.177  15.218  0.1363  0.2086 -0.0898
15255W        W31516  14.978  11.156  12.712 -0.2013  0.2089 -0.0879
15256W        W31517   7.407   3.951   3.054 -0.0412 -0.0140 -0.1852
15257W        W31518  15.904  15.299  14.071 -0.2926  0.2093 -0.0293
15258W        W31519  13.142   0.430  13.228  0.2232  0.3706  0.3199
15259W        W31520  12.907   4.222   2.166 -0.0128 -0.1208 -0.1490
15260W        W31521   8.937   1.216   0.097 -0.0063  0.0145  0.3093
15261W        W31522  12.580  10.799   5.617  0.2189  0.0318  0.1881
15262W        W31523  14.094  13.721  10.690  0.0671 -0.2908 -0.1098
15263W        W31524  14.859   9.837  15.216 -0.0165  0.3252  0.1803
15264W        W31525   5.676   6.342   4.749 -0.2252  0.1940 -0.1790
15265W        W31526   6.247  13.785  15.682  0.1074 -0.3025 -0.0393
15266W        W31527  12.924  16.299   2.002  0.1909 -0.0705  0.1445
15267W        W31528  12.636   4.217   0.892 -0.0957 -0.2827 -0.0667
15268W        W31529   6.697   2.196   2.555 -0.2368  0.0428 -0.1864
15269W        W31530  14.527  17.604   1.815 -0.2706  0.2095  0.0939
15270W        W31531  10.431   5.011   4.640 -0.0011  0.1316 -0.3130
15271W        W31532   3.685   4.111  14.250  0.2202  0.2947 -0.0465
15272W        W31533   9.233   3.267   2.496  0.0586 -0.2814 -0.4758
15273W        W31534   2.260   9.914   4.917  0.0657 -0.1894 -0.0856
15274W        W31535  10.857   8.684   0.608 -0.0658 -0.1207 -0.1485
15275W        W31536   9.291   2.268   1.154  0.1224 -0.0152  0.1278
15276W        W31537   4.773  18.224  14.543  0.2028  0.3805 -0.1036
15277W        W31538   0.527  15.027  11.335 -0.4518  0.2395  0.1617
15278W        W31539  12.917   9.662  12.152  0.0783  0.0925 -0.2123
15279W        W31540   3.562   2.789  15.138 -0.0025 -0.1933  0.0477
15280W        W31541   1.629  18.171   1.706 -0.1283 -0.0652 -0.0839
15281W        W31542   4.277  13.794   3.423  0.3276  0.1447 -0.0798
15282W        W31543  12.130  13.836  12.634 -0.0792  0.2054  0.2185
15283W        W31544   5.090   6.825  15.975 -0.0379 -0.0735 -0.1805
15284W        W31545   8.783   9.137  12.938  0.2599 -0.0635  0.2079
15285W        W31546   0.081   5.348   0.083 -0.5279 -0.0465  0.0433
15286W        W31547  12.148  16.267   1.375  0.1130 -0.4128 -0.0392
15287W        W31548   4.799   3.678   3.658 -0.2871  0.3608 -0.2784
15288W        W31549   4.382   2.594   4.393  0.2895  0.1536 -0.0994
15289W        W31550   6.499  12.698  12.574  0.4282 -0.0958  0.2330
15290W        W31551   0.416   1.544  13.866  0.0392  0.1262  0.1276
15291W        W31552  16.490   7.199  11.741  0.0239  0.0198 -0.1607
15292W        W31553  13.109  10.172  15.794  0.1011 -0.0350 -0.0099
15293W        W31554  17.886   7.863   4.792  0.1177  0.0052 -0.0285
15294W        W31555  11.077  16.336   2.883  0.0639  0.0634 -0.2701
15295W        W31556   2.873  14.612  12.052  0.1114  0.2028  0.3563
15296W        W31557   3.635  10.745   2.694 -0.0375 -0.0108 -0.1791
15297W        W31558   6.009   0.909   5.821 -0.0889 -0.2595  0.2045
15298W        W31559   9.184   5.361  13.933 -0.1127 -0.1140 -0.1147
15299W        W31560  14.079   5.947  13.033 -0.2000 -0.1570  0.3370
15300W        W31561  10.912   4.246   0.204  0.0105 -0.0103 -0.0968
15301W        W31562   3.144   1.477   2.948 -0.2644  0.2546  0.0298
15302W        W31563   8.019  17.199   1.416 -0.0414  0.1670  0.2304
15303W        W31564   6.088  15.552  14.241  0.0277  0.2016 -0.2264
15304W        W31565  17.987  13.602   2.664 -0.5816  0.3257 -0.1996
15305W        W31566  10.758   0.160  12.001  0.0905 -0.1421 -0.1488
15306W        W31567  16.592  13.164  14.383  0.3687 -0.2037  0.1002
15307W        W31568   8.549   2.918   4.885 -0.0030  0.2916 -0.1633
15308W        W31569   7.238  11.320   4.836  0.3475  0.0282  0.1792
15309W        W31570   9.501  10.228  12.378  0.2485  0.2801  0.0464
15310W        W31571   5.190  10.037   3.804 -0.3334  0.0755  0.0717
15311W        W31572  14.150   7.974   3.628 -0.0542 -0.4645  0.2685
15312W        W31573   2.964  11.294  15.193  0.0396 -0.3257 -0.3352
15313W        W31574   8.497   6.873  13.654  0.1898  0.0145 -0.0921
15314W        W31575   0.179  11.259  14.745 -0.1475 -0.4223  0.2787
15315W        W31576  15.864   8.002  14.176  0.3113 -0.2580  0.0136
15316W        W31577   5.559  14.796   2.618 -0.0481 -0.0008 -0.4539
15317W        W31578   0.143   7.971  10.634  0.0082 -0.1351  0.1683
15318W        W31579  10.255  18.117  12.264  0.0808  0.1932 -0.2138
15319W        W31580  17.373   9.403   1.038  0.4723  0.2061 -0.1226
15320W        W31581  10.324  15.949  12.794  0.1229 -0.0832 -0.0539
15321W        W31582   4.545   1.920  12.431 -0.0984 -0.1168 -0.1180
15322W        W31583   9.609  12.097  14.577  0.0541  0.0169  0.0046
15323W        W31584  17.690   0.388  14.230  0.3215  0.0756 -0.0322
15324W        W31585   9.265   7.998   6.409  0.1241 -0.0616  0.2404
15325W        W31586  17.648  10.977  16.077 -0.1757  0.1071  0.3098
15326W        W31587   6.291  10.028   5.476 -0.2082 -0.0768 -0.1566
15327W        W31588  16.099   8.763   4.185 -0.1445  0.0414  0.1717
15328W        W31589   7.547   4.522   2.430 -0.0894 -0.0052 -0.4745
15329W        W31590   3.331   2.588   5.978 -0.0524 -0.3016  0.2330
15330W        W31591  12.189   0.234  11.014  0.2219  0.1102  0.2939
15331W        W31592   2.659   7.579   3.934 -0.1116  0.0251 -0.0078
15332W        W31593  13.221   5.871  13.387 -0.1321 -0.0534 -0.0635
15333W        W31594  12.734  13.559  14.559  0.2239  0.2165 -0.1927
15334W        W31595   7.502  16.893  13.220 -0.0195  0.0589  0.1126
15335W        W31596   5.916   6.522  16.110 -0.0015  0.0620 -0.1595
15336W        W31597  15.589   3.091  15.640 -0.0424 -0.1670 -0.0494
15337W        W31598  11.353  12.330   0.611  0.0087  0.0768  0.0890
15338W        W31599   9.228   4.314  11.582  0.0314 -0.2976 -0.0594
15339W        W31600  17.065  11.335   5.649  0.0821 -0.3670 -0.2141
15340W        W31601  11.394   9.929  15.306  0.0191 -0.2464 -0.0556
15341W        W31602  16.891  15.693  15.515 -0.0429  0.2209  0.0561
15342W        W31603   6.007   9.073   4.157  0.1149  0.0228  0.1157
15343W        W31604  11.838   7.239  15.342  0.0165  0.1180  0.1089
15344W        W31605   9.713   5.005  12.196 -0.1835 -0.2703 -0.0716
15345W        W31606   9.154  13.813  11.437 -0.1834  0.0255  0.1612
15346W        W31607   6.040   6.946   2.683  0.0847  0.1036  0.0375
15347W        W31608  11.737   1.282   4.839  0.0412 -0.0192 -0.0515
15348W        W31609  17.417   6.495   5.906  0.0870  0.0466  0.0826
15349W        W31610  13.746   8.928   1.314  0.0227 -0.4519  0.1342
15350W        W31611   4.098  13.216  14.197  0.2636  0.2694 -0.4659
15351W        W31612  10.287   1.298  11.770 -0.3749  0.1334 -0.0987
15352W        W31613  12.515   3.059  11.352 -0.1884 -0.2955  0.1210
15353W        W31614   4.332  10.848  12.768 -0.0892  0.1988 -0.0932
15354W        W31615   4.550  13.149   5.242  0.2573  0.0381 -0.2355
15355W        W31616   5.858  13.044  13.725  0.1436 -0.3192 -0.2244
15356W        W31617   3.885  10.565  12.886  0.0624 -0.0496  0.0867
15357W        W31618  17.156  11.015   0.433  0.2521  0.0143 -0.0839
15358W        W31619  16.321  18.246  13.594 -0.1801  0.3820 -0.1960
15359W        W31620  15.819   6.180  13.850 -0.2227 -0.2851 -0.1412
15360W        W31621  11.449   4.643  13.440 -0.1309  0.0601  0.3014
15361W        W31622  11.026  16.853   2.884 -0.2655 -0.1407 -0.2660
15362W        W31623   5.065   6.380  11.677  0.1006 -0.2122 -0.0764
15363W        W31624  12.577   3.916   0.043  0.1924  0.1417  0.0833
15364W        W31625  12.999   9.930  11.289  0.0902  0.0790 -0.0023
15365W        W31626  17.938   5.702   4.633  0.2927  0.0611 -0.1639
15366W        W31627   9.030  10.501  11.702 -0.0507 -0.3093 -0.1837
15367W        W31628  15.379   2.719  15.344 -0.2120  0.2722 -0.6009
15368W        W31629  17.577  18.197  15.157  0.0081 -0.0529 -0.0948
15369W        W31630   8.648  15.504  13.427 -0.1691 -0.0727 -0.0736
15370W        W31631  16.873   9.365   4.573 -0.1188 -0.2115 -0.0634
15371W        W31632  16.274   3.073  11.233 -0.1686  0.0378 -0.2112
15372W        W31633  14.265   1.332  12.800  0.1045 -0.2342 -0.2976
15373W        W31634   5.998  14.705  15.334 -0.0456 -0.1573  0.1234
15374W        W31635   7.847   6.728  13.917 -0.0332  0.0001 -0.2534
15375W        W31636  18.218   8.521   1.332  0.1087  0.1763 -0.0310
15376W        W31637  15.070   3.773  13.948 -0.1370 -0.1539 -0.2707
15377W        W31638   0.776  13.340  14.146 -0.0100 -0.0280 -0.0018
15378W        W31639   6.139   2.526   1.148  0.0724 -0.0910 -0.2655
15379W        W31640   6.841   4.931  14.921  0.0037 -0.4257  0.1291
15380W        W31641   7.844  13.921   2.421 -0.2303  0.1494  0.0150
15381W        W31642   1.127   5.031  14.254 -0.2295 -0.1498 -0.1984
15382W        W31643  16.665  14.116   4.278 -0.2044 -0.1747  0.2270
15383W        W31644  14.141  14.381  13.052  0.3583  0.0337 -0.2649
15384W        W31645   2.070   4.841   1.263  0.3154  0.4382  0.2160
15385W        W31646   6.883  12.432   0.245 -0.0068 -0.0504  0.4859
15386W        W31647   6.527   4.342  13.232 -0.0641 -0.3431 -0.3667
15387W        W31648  15.336  15.358  13.937 -0.0689 -0.1425  0.0498
15388W        W31649   0.622   8.619   1.020  0.0226  0.2483 -0.0702
15389W        W31650  13.860  10.786   0.695 -0.0650 -0.2831 -0.0300
15390W        W31651  18.149   9.936   0.148  0.0299 -0.2277  0.1939
15391W        W31652  10.109   4.414   3.352  0.0193 -0.1824  0.0660
15392W        W31653   0.909   8.542   1.537 -0.0084 -0.3753 -0.1518
15393W        W31654   3.162  15.705  14.023  0.2358 -0.3662 -0.0164
15394W        W31655   7.401   3.893   0.514  0.1665 -0.1826 -0.3137
15395W        W31656  16.902  14.013  12.331 -0.1056  0.1484 -0.0071
15396W        W31657   0.353   8.713   4.840  0.0513 -0.0850  0.2501
15397W        W31658   4.110   8.286   3.023  0.1350 -0.4311  0.4045
15398W        W31659   8.337  10.169   2.681  0.0220  0.1923 -0.3485
15399W        W31660   0.835  14.030  15.653 -0.2741  0.0968 -0.2924
15400W        W31661   6.430  10.709  14.501 -0.2824 -0.0059  0.1953
15401W        W31662   3.234   3.135   4.692 -0.2011 -0.1761  0.0703
15402W        W31663  16.752  12.413  13.816  0.0652 -0.2187  0.0664
15403W        W31664  11.097  12.966   5.711  0.3386  0.2384 -0.1773
15404W        W31665   5.168  15.423  12.800  0.1542  0.0944  0.2522
15405W        W31666   4.984  17.796  14.267 -0.2321  0.3083  0.1514
15406W        W31667   1.278   1.889  15.616  0.0987 -0.1197  0.0923
15407W        W31668   0.703  17.931   1.808 -0.1077  0.1605  0.1679
15408W        W31669   1.951   1.753  15.671 -0.2270 -0.2249  0.0260
15409W        W31670   6.102   9.322   4.959  0.1452  0.2507  0.0384
15410W        W31671  16.838  11.457  12.563 -0.0357  0.0933  0.0517
15411W        W31672   6.701  16.267   1.161 -0.1860  0.3727  0.1415
15412W        W31673  16.537   9.341   1.991 -0.0748 -0.1145 -0.0904
15413W        W31674   6.090  16.873   2.870  0.2121 -0.1787  0.1371
15414W        W31675   1.944  13.251  14.376 -0.0877  0.3175 -0.0004
15415W        W31676  11.758   2.760  13.992  0.5212  0.0163  0.0563
15416W        W31677   6.702  18.366  10.820 -0.1989 -0.0327 -0.2521
15417W        W31678  14.499   7.553   2.446 -0.1437 -0.1074 -0.0556
15418W        W31679   6.317  16.831   4.269  0.1527 -0.1601  0.0558
15419W        W31680  14.440   8.812   6.088 -0.3310 -0.1636  0.2032
15420W        W31681  13.487  16.484  10.402  0.3601 -0.0470  0.1336
15421W        W31682   2.929   3.670   2.475  0.2653  0.2291 -0.2307
15422W        W31683   2.135  15.045   2.167 -0.1273  0.2814  0.1387
15423W        W31684   0.088  13.244   6.079  0.1192 -0.1300 -0.0447
15424W        W31685   9.540  16.746   2.228 -0.0810  0.1672  0.0154
15425W        W31686   9.918  18.086  13.239 -0.0391  0.0804 -0.2988
15426W        W31687   3.599   0.216   2.812 -0.1219 -0.0396 -0.3204
15427W        W31688  17.632  13.078   4.073 -0.2818 -0.0596 -0.1877
15428W        W31689  17.260   2.657   1.274 -0.1707 -0.3098 -0.1512
15429W        W31690   9.122  16.178   4.972  0.0812  0.1450 -0.2126
15430W        W31691   2.515   9.956   2.088 -0.1488 -0.2506 -0.1430
15431W        W31692   7.554   8.118  15.281  0.2396 -0.0601  0.1015
15432W        W31693   3.055  11.170  13.797  0.0747 -0.2238 -0.3506
15433W        W31694   9.898  17.422   1.518  0.5739 -0.2021 -0.1735
15434W        W31695   2.874  13.149  15.710 -0.0001 -0.0378 -0.0275
15435W        W31696   3.605   8.266  13.145 -0.0144 -0.0627  0.2550
15436W        W31697   4.035  15.632  14.483  0.0794  0.1497 -0.0446
15437W        W31698  16.455  14.991   1.523  0.0013 -0.1281  0.3703
15438W        W31699   3.814  17.817   2.386  0.0178  0.0075  0.0747
15439W        W31700   6.232   0.585  15.334  0.4755  0.2224  0.1443
15440W        W31701  16.181   0.369  15.247  0.3729 -0.2228 -0.0392
15441W        W31702   9.331   4.217  12.547 -0.0955  0.2803  0.1415
15442W        W31703   4.159  17.231   3.410  0.1498 -0.0330 -0.0857
15443W        W31704  16.060   2.617   1.810 -0.0353 -0.0429  0.0151
15444W        W31705  16.419  17.027  14.946  0.1668 -0.2599  0.1052
15445W        W31706   5.731   1.867   2.129 -0.0127  0.1254  0.1831
15446W        W31707  13.966  16.573   1.535  0.1539  0.0486  0.0155
15447W        W31708   5.313  17.078  15.705 -0.1336  0.0496 -0.0716
15448W        W31709   0.906   6.764   4.342 -0.0864  0.0742 -0.0736
15449W        W31710   0.671   4.520  12.672  0.0027 -0.1491 -0.0194
15450W        W31711   9.787   0.774   5.241 -0.1937  0.2407 -0.2086
15451W        W31712   3.546   0.252   1.675  0.0586 -0.2967  0.3492
15452W        W31713  14.517   8.673   3.172  0.1212 -0.0304 -0.0505
15453W        W31714  15.331   8.674  13.624  0.0421  0.2769 -0.0497
15454W        W31715   3.766   5.113   0.156 -0.3624  0.3412  0.1201
15455W        W31716  10.368   6.412  15.040 -0.0050 -0.1829 -0.2461
15456W        W31717   8.881  17.728  13.927 -0.0299  0.0163 -0.0323
15457W        W31718   6.503  10.656   3.788 -0.2860 -0.3217 -0.0071
15458W        W31719  15.587   1.167  14.606 -0.0659  0.2422  0.2454
15459W        W31720   9.201   7.974  14.974  0.2761 -0.1102  0.2329
15460W        W31721   2.796  10.747   5.104  0.1602  0.0522  0.1627
15461W        W31722   6.033  12.707  14.305  0.2745 -0.2779 -0.1341
15462W        W31723  12.286  14.250   1.913  0.0079 -0.0607  0.1560
15463W        W31724   9.555   5.258  10.781  0.0245 -0.0507  0.4413
15464W        W31725   6.939  12.170   2.560  0.1802  0.1692  0.3721
15465W        W31726   9.093   9.301   3.264 -0.0755 -0.1208 -0.0374
15466W        W31727   4.690   5.360   2.890  0.0521  0.0271  0.0103
15467W        W31728  10.530   0.033   0.129  0.2494 -0.1323  0.3200
15468W        W31729  14.674   2.967   2.561 -0.0695  0.0630 -0.0029
15469W        W31730   7.804   4.307  11.441  0.0970 -0.1209 -0.0111
15470W        W31731  11.517  17.574  13.880 -0.1696  0.0193 -0.1322
15471W        W31732   3.077  16.949   0.694 -0.0712 -0.2633 -0.1952
15472W        W31733  15.695   1.944   3.854 -0.3774  0.2962 -0.0084
15473W        W31734   0.093  13.299   0.014  0.1412 -0.1193  0.0123
15474W        W31735  13.211   6.629  12.583  0.0531 -0.1530  0.1530
15475W        W31736   5.972   7.972  13.245  0.1783 -0.1088  0.0697
15476W        W31737   2.985  15.351   5.534  0.0030  0.1084 -0.2793
15477W        W31738  15.362   6.569  15.442 -0.0030 -0.1051 -0.1661
15478W        W31739  14.274  12.395   1.985 -0.0639  0.0985 -0.0390
15479W        W31740  15.271  14.702  10.987  0.1140 -0.0735  0.1326
15480W        W31741   3.986   6.934   3.790 -0.1092  0.1243  0.1268
15481W        W31742  18.285   9.159   5.052  0.2155 -0.1895 -0.0560
15482W        W31743   3.463   7.599   0.288  0.0614 -0.0149 -0.1292
15483W        W31744  12.336   5.098  13.342 -0.1473 -0.0364  0.0468
15484W        W31745   6.601   5.678   3.905  0.2793  0.2074 -0.0235
15485W        W31746   0.973  14.642   5.710  0.1108  0.2618  0.0459
15486W        W31747  11.876  15.763   3.831 -0.1943  0.0582  0.0917
15487W        W31748   3.589   6.279   5.730  0.2081 -0.0086 -0.1922
15488W        W31749   9.354   3.903   3.935  0.1832  0.1030 -0.0678
15489W        W31750   6.679   9.709   2.355 -0.1240  0.0683 -0.0729
15490W        W31751  17.021  14.905  15.202  0.2981 -0.0492  0.1619
15491W        W31752  15.706   7.228  14.404  0.2213  0.0619  0.0767
15492W        W31753   8.941  10.643  13.118  0.3974  0.0423  0.0360
15493W        W31754  17.977  11.999  11.200  0.3393 -0.4663  0.0002
15494W        W31755   8.896  13.660  15.290  0.2598  0.1076 -0.0528
15495W        W31756   7.482   0.017  13.806 -0.2330 -0.0029 -0.0893
15496W        W31757  10.533   0.049   2.093  0.0281 -0.0185 -0.1481
15497W        W31758   6.079  11.755  14.053  0.2476 -0.3448 -0.1838
15498W        W31759   8.948  13.084  15.408  0.0028 -0.0194 -0.0124
15499W        W31760   5.981   6.765  13.242 -0.1009 -0.0344 -0.1498
15500W        W31761   6.066  15.612  12.747  0.1034  0.0515 -0.0479
15501W        W31762   4.865  14.630   5.291  0.1530 -0.1062  0.0492
15502W        W31763  14.184  16.855   1.196  0.0030  0.5175 -0.0011
15503W        W31764  16.955  12.997  11.007 -0.1034  0.1756  0.2951
15504W        W31765   7.041   4.784  14.434  0.0154 -0.2230 -0.0612
15505W        W31766   5.639   3.481  12.671  0.0653 -0.0305 -0.1696
15506W        W31767   5.075   7.608   2.388  0.1333  0.0172  0.1805
15507W        W31768   9.253   0.059   1.278  0.1741 -0.0591 -0.1122
15508W        W31769   6.969   5.093  13.238 -0.1593  0.0254 -0.1393
15509W        W31770  12.866  11.336   3.242 -0.0210  0.1055  0.0554
15510W        W31771   1.595   6.661  15.592  0.1493  0.4444 -0.4355
15511W        W31772  18.022  16.263  13.490 -0.0435  0.2187 -0.0525
15512W        W31773  14.690  11.842  14.846 -0.0729  0.1256  0.0039
15513W        W31774   3.136  18.359   1.735 -0.0044 -0.2777  0.1948
15514W        W31775   8.287  14.515   0.260  0.4329  0.0131 -0.0393
15515W        W31776  16.899   0.902   0.752 -0.0628  0.2035 -0.1991
15516W        W31777  11.232   8.068  13.519 -0.2116  0.0510 -0.1341
15517W        W31778  14.709   4.672  15.014 -0.0325 -0.2266  0.0168
15518W        W31779  14.006   0.131   1.070  0.0350  0.2306  0.0435
15519W        W31780   2.374  18.399   1.996  0.0145  0.1466 -0.1527
15520W        W31781   6.360  13.641  11.723  0.1937 -0.1469 -0.2766
15521W        W31782   9.700   9.430   5.144  0.1456 -0.0617 -0.5035
15522W        W31783   9.687   9.770  13.066 -0.3347 -0.0431  0.0270
15523W        W31784   3.170  14.159   0.770  0.1352  0.1357  0.0740
15524W        W31785   9.722   1.417   4.823  0.0700  0.3043 -0.0369
15525W        W31786  12.614   8.823   3.432 -0.2224 -0.0112 -0.0800
15526W        W31787  15.825  13.466  15.336  0.0874 -0.0642  0.0850
15527W        W31788   0.977  11.416  15.270 -0.0943 -0.2167 -0.1134
15528W        W31789  10.835   9.973   3.017 -0.2941 -0.1315  0.0973
15529W        W31790   7.592  13.070   5.067  0.1691 -0.2486  0.2652
15530W        W31791   9.252  16.013  16.105 -0.0125 -0.0142  0.0978
15531W        W31792  10.961  16.604  15.222 -0.4051 -0.0493 -0.2436
15532W        W31793   0.635   3.999  13.882 -0.4250  0.0781  0.1150
15533W        W31794  17.220   7.523  15.643 -0.3116 -0.0638 -0.0257
15534W        W31795   4.558  17.285  12.091  0.0350 -0.1441 -0.0090
15535W        W31796   0.294   7.546  15.070  0.0135  0.2011  0.2345
15536W        W31797  10.580   1.992  14.378  0.2281  0.2367  0.2122
15537W        W31798   1.204   5.805  13.476 -0.2563 -0.0483 -0.0616
15538W        W31799  10.586  17.515   0.960  0.3795 -0.1381 -0.0262
15539W        W31800   7.086  12.785   3.727 -0.1605 -0.3921  0.1378
15540W        W31801   2.234  13.552   3.067  0.2231  0.1120 -0.0493
15541W        W31802   1.950   0.631   1.930 -0.1163  0.5269  0.1195
15542W        W31803  14.494   3.027   3.181  0.1261  0.0284 -0.1841
15543W        W31804  11.512  16.439   0.270  0.5106 -0.0072 -0.0478
15544W        W31805  12.446   8.865   4.558 -0.2068  0.2291  0.1272
15545W        W31806   0.367  13.275   2.955 -0.1059  0.1300 -0.2839
15546W        W31807  10.043   4.764  14.207  0.0111  0.1741  0.1891
15547W        W31808   7.427   7.545   0.944  0.2481  0.0208  0.1776
15548W        W31809   4.780  15.999  14.404  0.2994 -0.2160  0.2585
15549W        W31810   9.709  13.249  13.838 -0.2002 -0.3432 -0.2144
15550W        W31811  12.555  16.071  13.739  0.0318  0.1773  0.0450
15551W        W31812  13.405   4.102  13.285 -0.0824  0.0246 -0.0718
15552W        W31813  11.878   6.559  14.384 -0.1783  0.0551 -0.0078
15553W        W31814   7.141   9.699  13.891 -0.2183 -0.0069  0.0678
15554W        W31815   1.417  10.061  12.514  0.0132  0.1529 -0.0185
15555W        W31816   8.048   2.829   3.363 -0.3580  0.3202 -0.4072
15556W        W31817  11.604  10.323  13.196 -0.1205 -0.0705  0.4903
15557W        W31818  10.845  15.973   1.752  0.0080 -0.0557  0.0150
15558W        W31819  10.075   3.693  16.040  0.1752  0.1122  0.2686
15559W        W31820  15.298   9.597   4.740 -0.0638  0.0250  0.0667
15560W        W31821  15.649  14.672   3.068 -0.2105  0.1184 -0.2687
15561W        W31822   7.133   9.224  15.810 -0.0684  0.0369  0.1218
15562W        W31823  10.385   4.829  13.888  0.2144  0.1353 -0.0749
15563W        W31824   6.433   5.934  15.811  0.0870  0.1100 -0.0668
15564W        W31825   7.239  15.996   3.090  0.1574  0.1712  0.0120
15565W        W31826   2.598  17.704  15.598  0.1159 -0.2415  0.2630
15566W        W31827   3.316  16.281  13.533  0.4673 -0.0629  0.2906
15567W        W31828   2.737   4.616  14.979 -0.0255 -0.2671 -0.0293
15568W        W31829   5.667   1.055   5.174  0.3746  0.1216 -0.2490
15569W        W31830   6.263   0.047   2.138  0.2498  0.0534 -0.0267
15570W        W31831  16.353  11.287   1.513  0.0851  0.0207 -0.0497
15571W        W31832   5.322  14.962  11.237 -0.0640  0.1418 -0.0874
15572W        W31833  11.228  15.411   3.459  0.2212  0.4074  0.0874
15573W        W31834   7.242  13.563   1.338 -0.0972 -0.0996 -0.2660
15574W        W31835   2.347  13.431   4.564  0.1724 -0.2149  0.0529
15575W        W31836   8.281   1.383  12.777 -0.0809 -0.1647 -0.0806
15576W        W31837   5.595   0.716   4.235  0.1337  0.0096 -0.1490
15577W        W31838   2.188   8.749   3.408 -0.0756 -0.0712  0.0587
15578W        W31839  10.585  16.258   0.041 -0.3017 -0.0422  0.0275
15579W        W31840   4.631   9.873  15.617  0.0420  0.0181 -0.0058
15580W        W31841   1.339   5.509   5.127 -0.0171  0.1391  0.0207
15581W        W31842   1.369  11.538  11.665 -0.5509 -0.1458  0.2788
15582W        W31843  11.770  17.733  12.126  0.1781 -0.0187 -0.2582
15583W        W31844   4.938  15.774   3.484 -0.0470  0.0266  0.1001
15584W        W31845   5.555   3.904   0.184 -0.0929 -0.0459 -0.2295
15585W        W31846   7.562   0.049  15.438 -0.0467 -0.1756  0.1306
15586W        W31847   6.349   4.428   4.782 -0.0908  0.2677  0.0217
15587W        W31848   3.821   9.683  11.029  0.0426 -0.1559 -0.4171
15588W        W31849   7.469  14.196   2.770 -0.1718  0.0337 -0.4849
15589W        W31850   5.902  18.428  14.157 -0.2503  0.0016  0.2195
15590W        W31851  10.140  18.248   5.228 -0.1864  0.1689 -0.0448
15591W        W31852  18.195   3.565  12.898 -0.1781  0.2659 -0.0137
15592W        W31853   6.722   6.913  15.872  0.1778 -0.2755 -0.0992
15593W        W31854  14.356  13.278   3.091 -0.0582  0.3483  0.1861
15594W        W31855   3.678  15.056   3.870  0.0381 -0.0900  0.0372
15595W        W31856   5.770   2.117   2.529  0.2548 -0.0581  0.0490
15596W        W31857   1.725   1.915   2.571 -0.3310  0.1716 -0.4100
15597W        W31858   0.744   1.341   4.275 -0.0650  0.0002 -0.0900
15598W        W31859  10.918   1.524   1.044 -0.1530  0.0667  0.1689
15599W        W31860   3.783  16.965   1.083  0.2375  0.0723 -0.2703
15600W        W31861   9.849   6.688   3.210 -0.0947  0.2106 -0.1948
15601W        W31862   6.409  14.233  13.186  0.0505  0.3361  0.2841
15602W        W31863  16.156   5.780  13.030  0.2888 -0.0646  0.0953
15603W        W31864  12.130  13.605   4.697 -0.0352  0.2279 -0.2010
15604W        W31865  14.071   1.552  14.367 -0.0303 -0.3057 -0.2376
15605W        W31866   1.124  11.038   5.315 -0.0330 -0.0409 -0.0789
15606W        W31867   6.647   0.047   0.296  0.1786 -0.1631 -0.3437
15607W        W31868   5.770   6.949   1.443  0.1611  0.4880 -0.1616
15608W        W31869  15.457  17.126   3.338 -0.1397  0.0585  0.0591
15609W        W31870   4.652   7.140   3.975  0.5655  0.0453  0.0493
15610W        W31871  17.933   6.885   0.733  0.3839 -0.2166  0.0412
15611W        W31872  10.417  11.332   0.632 -0.0595  0.0993  0.0303
15612W        W31873   4.013  12.810   1.939  0.0153  0.0609 -0.1728
15613W        W31874   6.285  10.079  12.291  0.1593  0.0423 -0.2715
15614W        W31875  10.222  18.148  16.045 -0.1321 -0.1437  0.0509
15615W        W31876  11.129   7.596  14.470  0.1045 -0.0333  0.2777
15616W        W31877   4.692   6.973   0.112 -0.0534 -0.2730  0.3161
15617W        W31878  18.437   5.096  13.151 -0.0935 -0.1718  0.1486
15618W        W31879  10.584  15.489  13.813  0.3165 -0.0550 -0.0507
15619W        W31880  17.001   7.602   2.152  0.2868 -0.0407  0.1446
15620W        W31881   3.080   0.392   0.113 -0.0979 -0.0342 -0.0446
15621W        W31882  17.237   1.137  12.730 -0.0119 -0.1290 -0.0706
15622W        W31883   2.069   2.191   4.706 -0.2373  0.1697  0.0187
15623W        W31884   3.538   7.171   4.840  0.1000  0.0826 -0.0035
15624W        W31885  11.860  15.949  12.676  0.1259 -0.2617 -0.0447
15625W        W31886  17.341  12.748   2.383 -0.0324 -0.0941 -0.0339
15626W        W31887   2.737   9.796  13.318 -0.1093  0.0121  0.5357
15627W        W31888   7.586  17.108  12.223 -0.0283  0.0901 -0.2364
15628W        W31889  14.719  13.378   0.535 -0.1041  0.0969 -0.1610
15629W        W31890  17.103  13.826   4.369 -0.0044  0.2664 -0.0246
15630W        W31891   1.029   1.868   3.050 -0.1055 -0.2494 -0.2031
15631W        W31892   9.796   9.302  11.035 -0.3323 -0.0132  0.0298
15632W        W31893   6.765  15.263   4.252  0.4967 -0.1375 -0.0468
15633W        W31894  13.651  15.208  13.705 -0.3479 -0.1246  0.1077
15634W        W31895  15.822   5.624   2.555  0.1243  0.0765 -0.1761
15635W        W31896   5.800  16.488  11.996  0.1085  0.0570 -0.0490
15636W        W31897   3.802   1.401  11.874 -0.2140  0.1235 -0.6313
15637W        W31898   7.503  14.965  14.069  0.0739  0.2021  0.1757
15638W        W31899   9.110   1.548  15.036 -0.0878 -0.0441 -0.0305
15639W        W31900   2.488   7.478   0.372  0.2458  0.1110  0.0100
15640W        W31901   5.154   8.617  13.635 -0.1840  0.3200  0.1732
15641W        W31902   7.952   0.823   2.343 -0.1325 -0.1105  0.0826
15642W        W31903   3.684   8.752  13.423  0.1651 -0.0254  0.1647
15643W        W31904  12.280  10.015   4.093 -0.1067  0.1020 -0.0859
15644W        W31905   3.645  16.490  15.110 -0.1058  0.1036 -0.0929
15645W        W31906   2.414  16.908  14.940  0.2098  0.3855  0.3517
15646W        W31907   2.786  12.896  13.487 -0.2533 -0.0674  0.0257
15647W        W31908  15.549  10.203   1.638  0.0845 -0.0466  0.0078
15648W        W31909   8.639   4.614  11.632  0.1423  0.4190  0.1823
15649W        W31910   3.288   7.704   4.691 -0.1638  0.0618  0.1353
15650W        W31911  10.306  17.540   0.544 -0.0767  0.1788  0.2720
15651W        W31912  13.518   9.289   0.246 -0.1376  0.2894  0.3898
15652W        W31913  17.091   4.198   0.285  0.3878 -0.1074 -0.1148
15653W        W31914  13.696   7.040  15.200 -0.0197 -0.0215 -0.2043
15654W        W31915   2.175   1.503  12.914 -0.3536  0.2191  0.1161
15655W        W31916  14.486  12.467  14.335 -0.2110  0.1958  0.2365
15656W        W31917  11.276   9.946  12.889  0.0743 -0.3058  0.2071
15657W        W31918   9.902   6.849  15.016 -0.1375  0.0179  0.0087
15658W        W31919   3.028   5.640   3.523 -0.0469 -0.0545 -0.2573
15659W        W31920   0.885   8.979  15.026  0.0596 -0.0482  0.3670
15660W        W31921  11.866  17.970   2.835 -0.0246 -0.0481  0.0785
15661W        W31922   5.534   4.669  11.799  0.0262 -0.0036 -0.2502
15662W        W31923   1.151  14.705   2.382 -0.1709  0.0620 -0.0058
15663W        W31924   0.505   1.006  15.015 -0.2146 -0.2021 -0.0072
15664W        W31925  12.725  14.926   9.264 -0.1452  0.0434  0.2572
15665W        W31926  13.711   1.864  14.433  0.0094  0.0149  0.0288
15666W        W31927  11.588   9.102   4.916  0.1037 -0.1812  0.1049
15667W        W31928  16.298  12.282   3.235  0.1646  0.1219 -0.0096
15668W        W31929   2.856  14.924   5.823  0.1004  0.2470  0.1609
15669W        W31930   9.772  15.630   5.854  0.0150 -0.0904  0.0640
15670W        W31931  10.036  13.277   0.299  0.4108 -0.1685 -0.1004
15671W        W31932  18.239   5.025  14.550  0.4262  0.0831 -0.3144
15672W        W31933   0.403   0.915   0.119  0.2843  0.0338  0.3162
15673W        W31934  12.544   1.740   2.340 -0.2089 -0.1293  0.1162
15674W        W31935  13.912  14.150   3.987  0.0046 -0.3039 -0.1867
15675W        W31936   2.853  13.047   3.265 -0.2769  0.1234  0.0537
15676W        W31937  10.175   1.834   4.033  0.0535 -0.2501 -0.0597
15677W        W31938  10.097  12.823   5.432 -0.1611 -0.0086 -0.0117
15678W        W31939  12.578  15.908  15.987  0.0028  0.0232  0.1152
15679W        W31940   5.041   0.704   2.420 -0.1859  0.1031  0.1134
15680W        W31941  14.772  15.565  10.132 -0.2300  0.3657  0.2945
15681W        W31942   6.608   0.785   2.131  0.0844 -0.1042  0.0310
15682W        W31943   2.943   7.232  10.900 -0.0815  0.0850  0.3219
15683W        W31944   5.141  17.538   4.904 -0.0990 -0.4808 -0.2015
15684W        W31945   5.050  16.862   0.175 -0.3235 -0.2648 -0.1759
15685W        W31946  14.099  12.372  14.856 -0.2211  0.1356 -0.1593
15686W        W31947  13.254   1.453  12.876  0.0630 -0.3507  0.1240
15687W        W31948  12.786   6.908  15.402 -0.1127 -0.1016  0.0698
15688W        W31949  12.516  13.734  10.364  0.1479 -0.1461 -0.0249
15689W        W31950  18.153  12.185   4.667 -0.2848  0.0709 -0.2879
15690W        W31951   3.715  15.041   4.479 -0.1223  0.0225  0.0174
15691W        W31952   7.193   9.149   5.345 -0.2652  0.2006  0.0693
15692W        W31953   7.815  15.413  13.525 -0.2073  0.1197 -0.0245
15693W        W31954   5.034  16.763   4.265  0.0131 -0.1993  0.2184
15694W        W31955  17.758   2.735   4.406 -0.2180  0.0926  0.0248
15695W        W31956   0.140   0.248  15.203 -0.0447  0.4088 -0.0851
15696W        W31957   6.226   6.676   0.557  0.1295 -0.0932  0.0543
15697W        W31958  17.975   6.478   1.670  0.2865 -0.2662 -0.2845
15698W        W31959   9.420   7.133   2.697  0.0255 -0.2184 -0.0803
15699W        W31960   8.877   2.999   0.956 -0.0435 -0.3618 -0.1674
15700W        W31961  11.003   5.331  15.092  0.3611 -0.0888 -0.0276
15701W        W31962   9.026   4.178   1.567 -0.1966 -0.0481 -0.0679
15702W        W31963   2.859  13.846  11.715  0.0081  0.1990  0.1650
15703W        W31964  11.777  12.370  12.144  0.0043  0.0910 -0.0198
15704W        W31965  14.232  10.054  13.000 -0.1102 -0.2925 -0.0133
15705W        W31966   1.648   0.436  14.224 -0.0153  0.0885 -0.0575
15706W        W31967  13.230   3.313   1.380  0.0573 -0.0473  0.3693
15707W        W31968  11.037  10.099   3.473 -0.1674 -0.3265  0.1382
15708W        W31969   4.374  12.186  13.253  0.3238 -0.1201 -0.5025
15709W        W31970  14.371   3.792  15.378 -0.0382  0.0308  0.1247
15710W        W31971  15.062   2.891  11.183  0.0567 -0.1380  0.0940
15711W        W31972   9.844  11.779  15.498 -0.0586  0.1774  0.1004
15712W        W31973   9.309   1.047   4.316  0.0283 -0.1618 -0.3749
15713W        W31974  11.748  17.695  14.823  0.1710 -0.1925 -0.1903
15714W        W31975   9.012   4.670  15.417 -0.1233 -0.0233 -0.1347
15715W        W31976  10.363   9.666  14.251 -0.1878 -0.1521  0.1962
15716W        W31977   4.985   8.149   2.218 -0.0300  0.0465 -0.0265
15717W        W31978   1.926   8.657   2.259 -0.0561  0.0030 -0.1654
15718W        W31979  14.373   3.108   4.541  0.0879  0.0917  0.1188
15719W        W31980   4.399  17.672   0.375  0.2041  0.0467 -0.1795
15720W        W31981   7.636  13.668  12.158  0.1758  0.0019  0.2457
15721W        W31982  12.802  17.875  11.538 -0.2102 -0.1171  0.2177
15722W        W31983   2.677  13.484   2.080 -0.2050 -0.1581  0.1439
15723W        W31984   0.527  11.388  12.315 -0.1635 -0.1590 -0.3730
15724W        W31985   2.318   8.045  14.854 -0.1188 -0.0988  0.0504
15725W        W31986   7.963  13.512   1.616 -0.1804 -0.0478 -0.1273
15726W        W31987  10.448  17.396  13.553 -0.0714  0.0010  0.1042
15727W        W31988  13.262   3.112   3.683 -0.0476 -0.0593  0.0459
15728W        W31989   2.381   4.849  14.625  0.0212  0.2311 -0.1594
15729W        W31990   5.967  17.652   3.883 -0.4658 -0.0332  0.1848
15730W        W31991   2.746  17.016   2.710  0.2487  0.1279 -0.2156
15731W        W31992  18.134   1.272   5.821  0.0301  0.1588 -0.1233
15732W        W31993   2.442   1.801   3.246 -0.0355 -0.1582 -0.3696
15733W        W31994   1.158   3.498  12.249  0.1477  0.0361  0.4719
15734W        W31995   3.225  14.909  15.985  0.0827 -0.1618  0.2132
15735W        W31996   4.449   1.115   0.797 -0.5101  0.0470  0.3137
15736W        W31997   3.315   6.984  12.150  0.0825 -0.0622 -0.2371
15737W        W31998  16.840   4.262  11.388 -0.0192 -0.1797 -0.1272
15738W        W31999   5.169  11.758   5.375  0.1604 -0.1295 -0.2754
15739W        W32000  14.183  15.904  15.250  0.2751 -0.4662  0.1071
15740W        W32001  13.352   5.869   2.912  0.0847 -0.3379  0.1170
15741W        W32002   7.282  10.604   4.554  0.1514 -0.2327  0.0800
15742W        W32003   0.031   2.872  14.115 -0.3573 -0.2080  0.0030
15743W        W32004   3.816   8.834   3.939  0.0240  0.2689 -0.0731
15744W        W32005  13.689  15.970   3.292  0.1148  0.1298  0.0150
15745W        W32006  16.170   3.179   0.526 -0.0307  0.2867  0.0914
15746W        W32007  15.029   0.111   4.952  0.0887 -0.1708  0.0045
15747W        W32008   4.330   7.756  11.490  0.3036 -0.1718  0.0265
15748W        W32009   3.848  15.604   5.291 -0.1113 -0.2990 -0.4666
15749W        W32010  15.425   0.423  12.435 -0.3865 -0.1587  0.0383
15750W        W32011  17.069  12.404   2.802  0.3085  0.0994  0.1670
15751W        W32012  15.103   1.267  10.591  0.1447  0.1750 -0.1448
15752W        W32013   6.602   5.842   3.104  0.0492 -0.1707 -0.2798
15753W        W32014   8.972   1.520   5.593  0.4325  0.0349  0.0088
15754W        W32015   1.799  16.838   4.133 -0.0485 -0.2014 -0.1569
15755W        W32016   7.665   8.651   6.156 -0.0372 -0.1313  0.1378
15756W        W32017   0.324  17.822  11.100 -0.1212  0.0926  0.0822
15757W        W32018  14.060   7.526   0.233 -0.2119 -0.0786 -0.0276
15758W        W32019   6.027   3.785   0.111  0.0636 -0.0104  0.0176
15759W        W32020   1.781  11.747   4.964  0.0087 -0.1655  0.0947
15760W        W32021  13.362   8.202  11.143 -0.2464 -0.0096  0.1444
15761W        W32022   9.797  17.882   2.731 -0.0420  0.0984 -0.4296
15762W        W32023   3.126  17.440  14.005  0.1760  0.0061 -0.1633
15763W        W32024   3.519   2.787   5.449  0.1238  0.4540 -0.0468
15764W        W32025  17.013  11.167   4.964 -0.2672 -0.1945 -0.0259
15765W        W32026   0.399  13.121   0.915  0.1025  0.3390 -0.0595
15766W        W32027  16.770   2.770  15.455 -0.3083 -0.2904 -0.0342
15767W        W32028   6.129   6.771   1.176  0.2498  0.2664 -0.1483
15768W        W32029  15.251  15.007   0.222  0.0046 -0.1944  0.1194
15769W        W32030  18.158  18.238   1.156 -0.0710 -0.2566 -0.0209
15770W        W32031  10.381  16.656  12.158  0.4123  0.0421 -0.4872
15771W        W32032   7.412   4.516   3.905  0.0215  0.1274  0.2046
15772W        W32033   3.141   8.109  13.143 -0.0090  0.2415  0.1425
15773W        W32034  17.590   5.968   2.252  0.0940  0.0377  0.0787
15774W        W32035  10.483  10.772   3.009  0.0995 -0.0585 -0.1917
15775W        W32036   9.091  15.152   1.712  0.1439  0.2408  0.0432
15776W        W32037  10.244  12.259  11.384 -0.2367 -0.1379  0.1955
15777W        W32038   7.751  10.949  12.345 -0.0136  0.0201  0.0546
15778W        W32039   3.408  18.091  15.926 -0.0243  0.1326 -0.1871
15779W        W32040  15.722   5.174   5.008  0.1442 -0.2241 -0.0536
15780W        W32041  13.399   9.814   1.061  0.3345  0.1808  0.0918
15781W        W32042   0.085  17.950  12.857 -0.1689 -0.1053 -0.3701
15782W        W32043  13.988   6.330   1.924 -0.0989  0.0835  0.0704
15783W        W32044   6.259  18.484   2.812  0.0090 -0.0669 -0.0340
15784W        W32045  11.777  15.320   2.586 -0.0491  0.2842  0.3057
15785W        W32046   1.047  15.808  14.380  0.0858  0.0241 -0.2470
15786W        W32047   3.686  13.282   0.186  0.0922 -0.5486  0.0084
15787W        W32048  13.743  14.208   3.106  0.1786 -0.1647 -0.0219
15788W        W32049   3.224   6.516   6.152  0.5338 -0.0852  0.1678
15789W        W32050   0.015  15.437   4.059  0.1518 -0.1875 -0.3256
15790W        W32051  12.528   6.260  11.843 -0.1929  0.1437  0.1438
15791W        W32052  16.284  13.505   0.475  0.1706 -0.2018 -0.1541
15792W        W32053   6.171  17.083   1.861  0.1060 -0.1011 -0.0201
15793W        W32054  16.804  12.456   4.491  0.2208  0.1436  0.3169
15794W        W32055   0.468   6.871   1.826  0.0190  0.0395 -0.2979
15795W        W32056   5.935  16.025   0.040  0.1924  0.2193 -0.1954
15796W        W32057  15.526  15.492  11.327 -0.3898  0.0005 -0.0042
15797W        W32058  12.693   0.412   5.692  0.0290 -0.1299 -0.2621
15798W        W32059  12.135  11.532  15.406  0.0918 -0.0575 -0.1918
15799W        W32060   2.131   2.663   3.864 -0.1671  0.0950 -0.0716
15800W        W32061  16.088  17.447  12.427 -0.0867  0.1032  0.1030
15801W        W32062  17.570  11.180  10.731 -0.0210  0.0383 -0.2044
15802W        W32063  11.059   3.839  13.836  0.2059  0.2819  0.1484
15803W        W32064  15.441  12.024  15.540  0.1319  0.1339  0.3791
15804W        W32065   7.815   4.274   0.975  0.1756  0.2269  0.0792
15805W        W32066   6.718  17.067  15.833 -0.0545  0.1518  0.1962
15806W        W32067  16.675  10.588   3.998 -0.0217  0.1042  0.1710
15807W        W32068   0.983  13.439   4.486 -0.1733 -0.0931  0.1118
15808W        W32069   1.848   3.153  11.096  0.2406 -0.1458  0.5708
15809W        W32070   1.594  17.466  13.518 -0.0212  0.2537  0.1692
15810W        W32071   5.248   9.334   1.703  0.0926  0.0175 -0.0054
15811W        W32072  12.339  10.599   1.739  0.3206  0.5212 -0.0646
15812W        W32073   4.579   2.460   2.478 -0.0624 -0.1312  0.1545
15813W        W32074   9.824  11.937   2.423  0.0086  0.1826 -0.1186
15814W        W32075   8.283   5.054   4.866  0.0099 -0.1871 -0.0559
15815W        W32076   3.714  18.369   3.144 -0.0712 -0.1180 -0.1030
15816W        W32077  12.698  16.140   1.532  0.0272  0.1914  0.0362
15817W        W32078   2.143   9.060  13.953 -0.2590  0.1248 -0.0034
15818W        W32079   2.209   7.166  15.481  0.0554 -0.0158  0.0801
15819W        W32080   8.293   0.205   4.627 -0.0538  0.0008 -0.1003
15820W        W32081   6.859  10.661   5.404  0.0380 -0.0830  0.4877
15821W        W32082  18.376   6.689  15.893  0.0693  0.0536  0.1267
15822W        W32083   9.041   9.760  12.941 -0.6216 -0.0941  0.2298
15823W        W32084  11.608  17.791   1.872  0.0283  0.4105 -0.1830
15824W        W32085   4.557   6.801  15.008  0.2006  0.2017  0.0647
15825W        W32086  18.244  13.904   2.331  0.4359 -0.1873 -0.6242
15826W        W32087  18.208  12.560  12.028 -0.0122  0.0784 -0.0823
15827W        W32088   1.239   0.980  12.700  0.3029  0.3869  0.1882
15828W        W32089   3.111  12.913   5.901 -0.0843 -0.0648 -0.1676
15829W        W32090   8.916  13.146  11.833 -0.0848  0.0618  0.2151
15830W        W32091   6.609  13.092  12.894  0.2004 -0.0128 -0.2877
15831W        W32092   4.993   2.029  11.569  0.1536 -0.0107 -0.2120
15832W        W32093   9.179  14.331  15.818 -0.2142  0.0831  0.0349
15833W        W32094   7.108   5.088   5.020 -0.2686 -0.2751 -0.4654
15834W        W32095   3.138  15.045   5.017 -0.1061  0.0397  0.3064
15835W        W32096  16.407  15.694   0.902  0.0432 -0.1003  0.0713
15836W        W32097  16.908   4.352   2.542  0.3063  0.2350 -0.2018
15837W        W32098   5.344  17.135   2.161 -0.0344 -0.0008 -0.0161
15838W        W32099   8.812   5.813   5.188 -0.1820 -0.1164  0.0871
15839W        W32100  16.033   3.774   1.184  0.1696 -0.3198  0.0185
15840W        W32101   0.394  11.891  13.672  0.1926 -0.1737  0.0095
15841W        W32102   8.012   7.621   4.821  0.1680  0.1318  0.1671
15842W        W32103   0.607  14.205   0.650 -0.1036  0.0742 -0.2884
15843W        W32104   7.023  15.757  12.804 -0.0170 -0.1702  0.1235
15844W        W32105  13.194  14.653  11.894  0.1333 -0.0957  0.0763
15845W        W32106   8.499  13.832  13.817 -0.1081  0.1175  0.2043
15846W        W32107  16.891   6.468  11.022 -0.3272  0.1679 -0.1458
15847W        W32108   7.408   7.585  13.240 -0.0869 -0.2489 -0.0088
15848W        W32109  16.492  15.569  10.939  0.1153  0.0766 -0.1376
15849W        W32110  12.936  13.790   4.184 -0.0739 -0.3092  0.3374
15850W        W32111   6.080  17.702   6.343 -0.1552  0.0613  0.3106
15851W        W32112  10.988  15.031   2.478 -0.2512  0.2662 -0.0432
15852W        W32113   2.652   0.333   0.591 -0.1903  0.2809  0.1443
15853W        W32114  10.327   3.695  15.144  0.0115 -0.1720 -0.0608
15854W        W32115  13.270   3.349   2.865  0.2301 -0.0501 -0.1005
15855W        W32116  12.455  17.571   0.700  0.2337 -0.0065 -0.2193
15856W        W32117   8.211   2.379   3.322  0.1377  0.2682 -0.0928
15857W        W32118  13.708   2.764   4.515 -0.1048  0.1643  0.3992
15858W        W32119  14.657   3.220   3.579 -0.0654  0.0498  0.2234
15859W        W32120  12.444  18.021   9.442 -0.4781 -0.1968  0.1818
15860W        W32121   3.581   7.719  15.134 -0.1594  0.0769  0.1442
15861W        W32122   8.685   9.828   2.536 -0.2980  0.2863  0.0357
15862W        W32123   3.204   1.850   0.013 -0.1369 -0.1309  0.0999
15863W        W32124   5.707  11.019  16.133 -0.0453 -0.0365 -0.1293
15864W        W32125  16.314   2.560  11.260 -0.1053 -0.0879  0.2593
15865W        W32126   8.616   6.507  15.967  0.0651 -0.1883 -0.0839
15866W        W32127   6.936  13.674  14.128  0.0911  0.0603  0.3107
15867W        W32128  16.111  16.752   0.086  0.0972  0.1109 -0.1453
15868W        W32129   9.451  17.740   1.456  0.0339  0.2430  0.0655
15869W        W32130   2.506   3.671  11.967 -0.1009 -0.1359 -0.0302
15870W        W32131   6.474   0.784   5.044  0.0775 -0.3079 -0.3523
15871W        W32132   3.398   7.887  13.551 -0.1589  0.1115 -0.2725
15872W        W32133   3.358   2.772   4.268 -0.2303 -0.0234  0.1124
15873W        W32134   2.144  18.051  12.373  0.0504 -0.3026  0.2672
15874W        W32135   3.575  15.846  12.052  0.0252  0.1031 -0.2344
15875W        W32136   2.166  15.952   5.421  0.0266 -0.0393 -0.2661
15876W        W32137  13.773  12.653   1.221  0.2627  0.0878 -0.0070
15877W        W32138   7.370   5.835  15.759 -0.0121  0.0703  0.0326
15878W        W32139  15.003   4.491   4.547  0.1029  0.0069 -0.1144
15879W        W32140  18.447   0.171   3.895 -0.0526  0.2136  0.0804
15880W        W32141  16.618  17.314   1.418  0.1322  0.0605  0.0975
15881W        W32142   9.181   0.156  15.262 -0.2044 -0.0493  0.0512
15882W        W32143   5.160  13.422  13.114 -0.3488 -0.2715 -0.0589
15883W        W32144   3.837  17.816   1.488 -0.1096  0.1435 -0.2658
15884W        W32145   6.914   1.190   2.674 -0.0728 -0.0550 -0.5219
15885W        W32146   3.652   7.358  11.903  0.1798 -0.0308 -0.2755
15886W        W32147   0.408   4.956  16.077  0.1814  0.0805 -0.1634
15887W        W32148  16.635   3.194  13.856  0.1880 -0.2037  0.0200
15888W        W32149   6.290   8.166   2.861  0.1223 -0.2711  0.4865
15889W        W32150  14.154  14.157  12.030  0.1924  0.3174  0.0098
15890W        W32151  17.943  11.037   3.674 -0.1449  0.0220  0.2954
15891W        W32152   3.245   7.914   1.121  0.0767 -0.1954  0.0791
15892W        W32153   2.681   9.157   5.797  0.0418  0.0808 -0.1242
15893W        W32154  14.924  18.333   1.943 -0.2557 -0.1086  0.0171
15894W        W32155  11.660  13.635   4.547  0.2058  0.1046 -0.0039
15895W        W32156  12.684  17.044   5.626  0.2453 -0.1873 -0.1668
15896W        W32157  12.311  13.120  16.133  0.3041  0.0361 -0.1691
15897W        W32158  14.048  12.873   0.411 -0.0501 -0.5611 -0.1605
15898W        W32159  18.450  10.898   3.773 -0.1698  0.0669 -0.0177
15899W        W32160   0.527   3.419  15.071  0.4169 -0.2693  0.1009
15900W        W32161  15.802  14.764   3.873  0.2265 -0.1362  0.1853
15901W        W32162  16.403   5.475   3.805  0.2613 -0.2302 -0.0541
15902W        W32163   5.475   7.467   2.708  0.0271 -0.2455  0.0485
15903W        W32164   1.256   4.983   0.690  0.3321  0.0708  0.3997
15904W        W32165  17.478   3.177   3.422  0.0282  0.1518  0.2214
15905W        W32166  13.044  10.003  15.012 -0.2560 -0.5552  0.3553
15906W        W32167   8.860   6.314  12.481 -0.3062  0.0173  0.1607
15907W        W32168  17.184   4.620   0.512  0.0206  0.2711 -0.0915
15908W        W32169   5.855   5.561   1.718  0.2497  0.0284 -0.2600
15909W        W32170   4.503   4.606  15.491 -0.1674 -0.2912 -0.1118
15910W        W32171   0.868  16.109   3.843  0.2340 -0.1993 -0.1418
15911W        W32172   5.492  11.375   1.678 -0.0336 -0.3106  0.2229
15912W        W32173   5.549  18.462   3.955 -0.0098 -0.2791 -0.1719
15913W        W32174   1.783  17.659  14.730  0.0308 -0.0500  0.3129
15914W        W32175   5.272   3.580  13.824  0.1193  0.0629  0.0273
15915W        W32176   3.026   5.663  13.494  0.0838 -0.0762 -0.2699
15916W        W32177  10.220  10.916  11.613  0.1266  0.2634  0.1208
15917W        W32178  16.846  15.417   2.685  0.2842 -0.0370 -0.2190
15918W        W32179   2.376   5.081   4.714 -0.1816  0.1989  0.1176
15919W        W32180  11.555   0.381  11.662 -0.0212  0.0596  0.0980
15920W        W32181   3.372  14.345  13.774 -0.4156 -0.2195  0.2119
15921W        W32182  14.604   5.029  11.637 -0.1037  0.2910  0.0932
15922W        W32183  11.242  13.766  11.842  0.2905 -0.0914  0.1578
15923W        W32184  16.037   0.926   2.382 -0.1575  0.1213  0.1783
15924W        W32185   5.972   1.491  13.349  0.1179 -0.0117  0.1831
15925W        W32186   1.592   7.420   3.974 -0.0480 -0.0666 -0.1372
15926W        W32187  16.906   5.414  13.497  0.0945 -0.2916  0.2001
15927W        W32188   9.057  13.922   3.006 -0.0867 -0.0031  0.2747
15928W        W32189   9.883  15.822  12.443 -0.0882 -0.1080 -0.1209
15929W        W32190   0.721  14.911   5.297  0.2122 -0.1322  0.2636
15930W        W32191  10.704  10.387   3.244 -0.2865 -0.0032  0.1664
15931W        W32192  10.196   8.334   1.465 -0.2469 -0.0353  0.0288
15932W        W32193   6.187   2.513  16.059 -0.0291  0.1365 -0.1384
15933W        W32194   4.359   9.254  14.652  0.1671  0.1316 -0.1801
15934W        W32195  13.686  16.210   0.905 -0.1164 -0.3418 -0.1563
15935W        W32196   3.622   5.306  14.470  0.0323 -0.0003  0.0413
15936W        W32197   7.728   7.245  13.424  0.1073 -0.1156  0.1593
15937W        W32198   3.360   0.891  12.611 -0.2303  0.2016 -0.3867
15938W        W32199   7.832   5.370  12.660  0.2056 -0.4968 -0.1800
15939W        W32200   0.934   0.773  14.779 -0.1295 -0.3365  0.0522
15940W        W32201   7.719   0.689  14.556 -0.3544 -0.0514  0.2268
15941W        W32202   7.674  16.851  12.664 -0.1603 -0.0681  0.0959
15942W        W32203   6.618   5.455   0.393  0.0355  0.0315  0.0926
15943W        W32204  13.052  15.542   2.666 -0.1184 -0.1615  0.2335
15944W        W32205  14.066   6.639  15.426  0.0325 -0.0374  0.2312
15945W        W32206   7.419   7.157  12.096 -0.1386 -0.0527  0.0343
15946W        W32207  11.626   7.161   4.809 -0.2821 -0.2749 -0.0415
15947W        W32208   6.670  10.210   4.116 -0.2653 -0.0098 -0.1528
15948W        W32209   6.036  10.607   1.969 -0.2465  0.3261 -0.1069
15949W        W32210  14.077   1.072  14.465  0.0232  0.4203 -0.2974
15950W        W32211   9.099  11.142  12.358 -0.2770  0.2711 -0.0316
15951W        W32212   4.794   1.833   0.469 -0.1149 -0.2818 -0.1019
15952W        W32213  17.540   6.633  14.703 -0.0005 -0.1033 -0.2845
15953W        W32214  10.409  10.132  13.901 -0.2374 -0.1056 -0.1671
15954W        W32215  18.345  10.454   5.072  0.1370  0.1116 -0.1391
15955W        W32216  17.671  16.471   3.265  0.1578 -0.0184  0.1203
15956W        W32217  10.453   5.195  12.362 -0.0520 -0.1684 -0.2173
15957W        W32218   5.431  10.486   5.232 -0.0032 -0.0885 -0.0611
15958W        W32219  10.872   2.854   1.227  0.1944  0.0394 -0.0572
15959W        W32220  10.007  15.234  12.333  0.0218 -0.1719 -0.1760
15960W        W32221  10.984  18.159  10.631 -0.1305  0.4190  0.3128
15961W        W32222   7.333   3.376  14.333 -0.1618 -0.2483 -0.1280
15962W        W32223   2.531   1.565   3.693 -0.0782  0.1449 -0.0422
15963W        W32224  10.307  15.324  13.389  0.3423  0.4278  0.1023
15964W        W32225  11.247  14.899   4.801  0.4028 -0.1125  0.0049
15965W        W32226  14.862  10.933  15.989 -0.1640  0.1983 -0.0270
15966W        W32227   4.631  13.648   1.266  0.3678  0.1681 -0.2018
15967W        W32228   5.827  12.185   1.668 -0.2208  0.0698  0.0092
15968W        W32229   7.364  17.293  10.773  0.0915  0.1420  0.0171
15969W        W32230   1.228   9.580  13.259  0.1844  0.2559  0.2628
15970W        W32231  15.584   0.038  10.650  0.2038  0.2556  0.2419
15971W        W32232   5.662   7.707   1.497 -0.0914 -0.0071 -0.0633
15972W        W32233   6.518   2.569  14.535 -0.1559 -0.0470  0.3169
15973W        W32234   8.008  13.509  13.017 -0.3071 -0.2363  0.2245
15974W        W32235  10.286  16.491   0.834 -0.1014  0.3727 -0.1344
15975W        W32236   8.515   8.235  13.914 -0.2232  0.1384  0.3358
15976W        W32237  11.969   1.348  15.452 -0.0047  0.1561 -0.0795
15977W        W32238  16.301  11.029   3.658 -0.0650  0.3257 -0.0205
15978W        W32239  17.662   4.402   0.698  0.0588 -0.1813 -0.4481
15979W        W32240   7.906  14.501   1.087  0.0094 -0.0359 -0.0504
15980W        W32241   7.438   3.163  16.047  0.1779  0.1008  0.0404
15981W        W32242  15.742  11.560  11.197 -0.1286 -0.3757  0.2837
15982W        W32243   3.907   9.884   2.592 -0.1024  0.2172 -0.2260
15983W        W32244  13.295  14.441  10.428 -0.1708 -0.1823  0.2414
15984W        W32245  15.048  15.268   9.321 -0.1656  0.0996 -0.0935
15985W        W32246   4.991  17.360  15.438 -0.1697  0.0530  0.1533
15986W        W32247  12.466   9.843   1.880 -0.0828 -0.4563 -0.2235
15987W        W32248   2.461   3.432   0.505 -0.1188  0.0125  0.3087
15988W        W32249  17.699  12.168  14.776  0.3070  0.0864 -0.0422
15989W        W32250  11.255  17.697  11.183 -0.0805  0.1145 -0.4588
15990W        W32251  15.678  15.058  11.107 -0.2812 -0.2165  0.1049
15991W        W32252   0.766   3.290   2.718 -0.0620  0.2574 -0.3014
15992W        W32253  10.651  10.584  12.874  0.3207 -0.3913 -0.1351
15993W        W32254   4.319  14.425  13.043 -0.3049  0.0260 -0.1093
15994W        W32255   5.431  14.102  15.005  0.1720  0.0473 -0.0478
15995W        W32256  15.044  11.060   0.902 -0.1831 -0.0101  0.3380
15996W        W32257   2.102   6.644  15.650  0.0471  0.0756 -0.0248
15997W        W32258   6.509  11.542  13.797 -0.2284  0.1364  0.0233
15998W        W32259   2.037  10.731  11.640 -0.2059 -0.2904 -0.2021
15999W        W32260   4.560   9.577   4.873 -0.1135 -0.0597 -0.2426
16000W        W32261   1.547   4.704  11.437  0.1259 -0.1355  0.1942
16001W        W32262  11.578   9.845  12.487  0.2902  0.1489  0.0241
16002W        W32263  12.737  11.134   3.756 -0.0470  0.3809 -0.1406
16003W        W32264   0.368   2.506  13.370  0.1742  0.0467 -0.0226
16004W        W32265  17.549  11.546   4.714  0.1042  0.0745  0.4102
16005W        W32266  15.054   9.109   2.470 -0.1043  0.0784  0.5543
16006W        W32267   4.490   3.663   1.676 -0.0809 -0.1355 -0.0652
16007W        W32268   9.215  13.374  12.453 -0.1057  0.2528  0.0382
16008W        W32269   1.568  13.690   3.571  0.2625  0.1362  0.2162
16009W        W32270   0.130  17.609   1.619  0.1023 -0.0211  0.0730
16010W        W32271   5.671   4.939   3.731  0.0195 -0.0917 -0.4307
16011W        W32272  15.032   5.490   0.722  0.0178  0.1454  0.1661
16012W        W32273   4.481  11.608   3.917 -0.1754  0.1913 -0.2662
16013W        W32274   2.483  16.213  13.356 -0.4739 -0.1164 -0.3024
16014W        W32275  10.927   6.527   5.414 -0.2451  0.1028  0.1873
16015W        W32276  10.952   9.471   0.716 -0.2213 -0.0938 -0.1554
16016W        W32277   8.038   0.500  16.036 -0.2979 -0.3667 -0.3369
16017W        W32278  12.343  13.555  14.018  0.1473 -0.1041  0.0628
16018W        W32279   4.047  18.402  12.591  0.0845 -0.1596 -0.0056
16019W        W32280   8.728  13.184  12.553 -0.1130  0.1050  0.1083
16020W        W32281   9.673   0.997   5.700  0.4851  0.2917  0.1553
16021W        W32282   8.072  11.452   2.302 -0.2317 -0.0488  0.2889
16022W        W32283   2.205   3.983  11.642 -0.1931  0.0125 -0.0563
16023W        W32284   9.508  16.252   5.335 -0.3299 -0.3534 -0.3224
16024W        W32285   2.148   4.579   2.185 -0.1513  0.2609  0.3438
16025W        W32286   6.973  11.855  12.920 -0.1196 -0.2746  0.2631
16026W        W32287   5.125   6.457  13.139 -0.0150  0.0433 -0.0563
16027W        W32288   9.838  12.736   3.761  0.0853  0.0695 -0.3009
16028W        W32289   5.975   3.923   1.459 -0.0999  0.0185  0.0317
16029W        W32290  10.083   7.401  15.083  0.3581 -0.1746  0.2859
16030W        W32291   5.890   8.416   5.129  0.1084 -0.0987 -0.1953
16031W        W32292   8.671   5.651  15.088 -0.0272 -0.0942  0.0050
16032W        W32293  13.705   8.567  14.252 -0.1004 -0.1804  0.1320
16033W        W32294   1.069   9.282  11.597 -0.1483  0.0755 -0.0733
16034W        W32295   9.051   8.341   1.385 -0.1215  0.1647 -0.2253
16035W        W32296   8.416  17.182   1.013 -0.0022  0.2296  0.1126
16036W        W32297   7.594  15.517   1.811 -0.0468 -0.1267  0.1596
16037W        W32298   0.377   5.575   1.090  0.1414 -0.2045 -0.1292
16038W        W32299  12.275  11.716  12.319  0.2381 -0.0259 -0.0096
16039W        W32300   7.342  15.347  15.615 -0.0050 -0.5224 -0.0820
16040W        W32301   9.461  13.921  15.716 -0.1406  0.5564  0.1016
16041W        W32302  11.266  13.234   4.961 -0.1253 -0.2294 -0.1871
16042W        W32303   2.123   4.962   1.889 -0.0649  0.0706  0.0341
16043W        W32304  10.842  10.760   3.742 -0.3109 -0.0647 -0.0124
16044W        W32305   8.753  15.251   1.370  0.0582 -0.1668 -0.1912
16045W        W32306   4.246   1.623  13.864 -0.0503  0.1222  0.0334
16046W        W32307   7.966   8.817  15.103  0.0211 -0.0757 -0.1424
16047W        W32308  18.125   0.937  12.818 -0.0093 -0.0331  0.4186
16048W        W32309   5.956  14.356  13.471  0.2236  0.0755 -0.1377
16049W        W32310   4.625  16.349   2.692 -0.1618 -0.0825 -0.0827
16050W        W32311   3.811   8.493  10.590  0.2558 -0.4787 -0.1361
16051W        W32312   5.100   3.981   3.345 -0.1592  0.0773  0.3388
16052W        W32313  10.335   7.129  15.767 -0.1181 -0.0189 -0.3594
16053W        W32314   4.355   3.556  12.474 -0.0249 -0.3233  0.1198
16054W        W32315   7.556   5.531  11.800  0.1870  0.1666  0.1041
16055W        W32316   7.268  18.220   3.764  0.0513  0.1630 -0.1179
16056W        W32317  13.082  15.725   3.891  0.1260  0.2612 -0.1322
16057W        W32318  17.922   2.491  11.432 -0.1810 -0.3228 -0.1178
16058W        W32319   8.586   4.528   1.162 -0.0337  0.0453 -0.1039
16059W        W32320  10.447   4.674  12.077  0.2335 -0.0275  0.1313
16060W        W32321  11.422   3.691  12.079 -0.0388  0.1799  0.1808
16061W        W32322   2.497   2.436  13.305  0.1785 -0.1498  0.0476
16062W        W32323   5.017   1.275   4.552 -0.0724  0.1070  0.1035
16063W        W32324   4.173  15.879  12.990  0.0827 -0.0912  0.0339
16064W        W32325  17.047   5.554  13.988 -0.0129  0.4377 -0.1481
16065W        W32326  13.735   0.736   2.097  0.0012  0.0021 -0.4748
16066W        W32327   3.200   0.016  14.996  0.1460 -0.0516  0.2573
16067W        W32328   5.712   9.940  13.747  0.0071  0.1452 -0.1243
16068W        W32329   7.978  13.601   5.043 -0.0398  0.2249  0.3050
16069W        W32330   2.178  10.857  13.549 -0.1563  0.1138 -0.0214
16070W        W32331  15.752   4.897  15.113 -0.0499 -0.2601  0.0032
16071W        W32332   4.313  18.136  15.131  0.0507  0.0152  0.1368
16072W        W32333  10.903   9.486  14.349 -0.0915  0.3098 -0.2170
16073W        W32334   6.575  10.550  13.181 -0.2287 -0.0908 -0.2552
16074W        W32335  13.490  18.288   4.484  0.2072 -0.2175  0.2498
16075W        W32336  13.598   1.387  16.094 -0.1703  0.1691 -0.2807
16076W        W32337  17.112  10.649   3.709  0.3971 -0.0500 -0.3068
16077W        W32338  12.086   2.277   5.436 -0.0401  0.1475  0.1840
16078W        W32339   0.492  11.992   4.766  0.0601 -0.2199 -0.0558
16079W        W32340   1.845  14.642   2.522 -0.3899 -0.2490 -0.1796
16080W        W32341   5.313  11.909   3.735 -0.1440  0.0800 -0.2286
16081W        W32342   3.756  11.101   4.997  0.2064  0.0788  0.1351
16082W        W32343  14.266  17.079  15.169 -0.5551  0.1050  0.2650
16083W        W32344  10.745  11.466  11.166  0.0106  0.2063 -0.2269
16084W        W32345  12.279  10.867  11.974  0.0774  0.1613 -0.3728
16085W        W32346   1.329   2.452   2.798  0.2572 -0.1269 -0.1140
16086W        W32347  13.472  11.428  14.168 -0.0867  0.1359  0.2924
16087W        W32348   8.115   0.036   2.395  0.1271  0.1986 -0.3630
16088W        W32349   1.715   7.464  16.172  0.0300  0.2032 -0.0519
16089W        W32350  16.493   9.586  15.241  0.1154  0.0241 -0.0220
16090W        W32351  17.287  11.027   2.681 -0.1928 -0.0708 -0.2667
16091W        W32352   0.700   8.025   2.778  0.1355  0.2056 -0.0810
16092W        W32353  18.069  16.291  12.005  0.4426  0.1407  0.0526
16093W        W32354   3.828  14.242  12.794 -0.0137 -0.1487  0.3086
16094W        W32355   1.750  17.841   3.977 -0.1105  0.3210  0.1191
16095W        W32356   8.189  14.171  13.575 -0.0523  0.0865 -0.2673
16096W        W32357  15.563   4.993  13.101  0.0834  0.1054 -0.1966
16097W        W32358  16.804   6.078  14.113  0.1268 -0.3328  0.0688
16098W        W32359   0.278   8.746  12.577 -0.0361  0.0020 -0.0976
16099W        W32360   5.131  18.381  15.966 -0.2680  0.0342  0.0419
16100W        W32361   8.481   1.652  14.041  0.0079 -0.2106 -0.1281
16101W        W32362   8.186  11.255  14.466 -0.2412  0.1152  0.1486
16102W        W32363   5.431   9.049   2.172 -0.1848 -0.0533  0.2196
16103W        W32364   2.380   2.233  13.747 -0.0586 -0.0926 -0.1984
16104W        W32365  12.922  16.716   0.344  0.0196 -0.0828 -0.0172
16105W        W32366   1.713  14.038   6.020  0.1976  0.1761  0.0775
16106W        W32367  14.336  14.252  14.994  0.0349  0.1577  0.1830
16107W        W32368   2.930   8.437   2.375  0.0874  0.4264 -0.3750
16108W        W32369  10.426  12.695  11.615 -0.0232 -0.0922 -0.2062
16109W        W32370   5.923  11.727  14.997 -0.0911  0.0892 -0.0281
16110W        W32371  12.482  15.234   3.333  0.0439 -0.0239 -0.1573
16111W        W32372   5.590  14.618   4.030  0.2499 -0.1723 -0.0586
16112W        W32373   7.074  16.820  15.580 -0.0208 -0.0503 -0.2405
16113W        W32374   7.061   5.623  11.802  0.4787 -0.2544  0.1293
16114W        W32375  13.514   3.034   0.655  0.1101  0.0456 -0.0489
16115W        W32376   0.784  17.561  11.554 -0.2752 -0.0892 -0.3123
16116W        W32377   3.918  16.336  13.712  0.0093 -0.2340  0.0585
16117W        W32378  16.434   2.343   0.848 -0.1428 -0.1403 -0.2556
16118W        W32379   7.884  13.137   0.984 -0.0939 -0.2165 -0.3254
16119W        W32380   3.887  13.646  15.047  0.0103  0.1271 -0.0561
16120W        W32381  14.444  12.633  10.406  0.1593 -0.1365  0.0989
16121W        W32382  16.183   1.970   5.106 -0.0438  0.3855 -0.0219
16122W        W32383  17.938   9.380   4.655  0.2217 -0.0517 -0.5470
16123W        W32384   8.697   9.110   5.140  0.5698  0.2780 -0.0737
16124W        W32385   4.131  13.519  15.853 -0.2982 -0.1193 -0.0268
16125W        W32386  17.557  15.212  11.324 -0.1145 -0.0761 -0.2434
16126W        W32387  15.185   4.135  14.278  0.0862  0.1662 -0.0134
16127W        W32388  17.316  12.547   0.040  0.5180  0.0896 -0.1517
16128W        W32389  11.532   2.274   0.976  0.1962 -0.2815  0.0769
16129W        W32390   8.931   6.058  15.027 -0.2426 -0.0446 -0.2241
16130W        W32391  12.952  13.846  13.458 -0.3759  0.5102  0.0320
16131W        W32392   1.350   4.078   0.636  0.0349 -0.1246 -0.3090
16132W        W32393   6.148  15.624  14.762  0.0602  0.2252  0.1222
16133W        W32394   9.586   8.190   5.333 -0.1600  0.0188 -0.3344
16134W        W32395  18.288   3.793   3.487  0.0036 -0.0588 -0.0260
16135W        W32396  10.742  16.411  13.043 -0.0682  0.1764  0.0884
16136W        W32397  10.208   0.470  12.762  0.1042 -0.0527  0.0455
16137W        W32398   8.212   3.518   3.613 -0.1805 -0.3869  0.2111
16138W        W32399  10.124   4.892   3.156 -0.3642  0.0739  0.0424
16139W        W32400   9.638   4.242  14.356 -0.1507  0.2602  0.2486
16140W        W32401  16.816   5.725   2.736  0.3045  0.4016 -0.4928
16141W        W32402  11.960   4.340  11.057  0.1429  0.1687  0.3100
16142W        W32403  17.761  17.994   1.526 -0.0072  0.3338 -0.0083
16143W        W32404   7.960   2.762   4.351  0.1041  0.3386  0.3391
16144W        W32405   4.653  11.762   4.989  0.2061  0.1948 -0.1710
16145W        W32406  17.290   7.095  12.756 -0.1737  0.2333 -0.0198
16146W        W32407  13.671   4.967  12.331 -0.0590 -0.0749 -0.3846
16147W        W32408   7.957  11.763  11.643 -0.2948  0.1042  0.1037
16148W        W32409   7.562   0.176  16.063 -0.2668 -0.2356  0.1174
16149W        W32410   3.298  18.023  12.165 -0.1162 -0.1806  0.2400
16150W        W32411   4.894  13.264   0.264  0.2428  0.3383 -0.3064
16151W        W32412   9.338   1.284  13.794 -0.0939  0.0476 -0.0400
16152W        W32413  10.659   6.617   3.416 -0.0130 -0.1493 -0.0987
16153W        W32414   1.660  13.921   4.847  0.3572  0.0151  0.1977
16154W        W32415   2.733  12.798  13.978  0.0769 -0.1138  0.3104
16155W        W32416   1.140  16.558   2.624 -0.0637  0.0760 -0.0652
16156W        W32417   8.522  14.954   5.006  0.1018 -0.0791 -0.1767
16157W        W32418  15.353   7.015   2.015 -0.2800 -0.0787 -0.0199
16158W        W32419   9.445  11.617   4.471  0.0462 -0.0345  0.1501
16159W        W32420   4.741   4.424  13.818 -0.1233  0.0943 -0.3104
16160W        W32421  13.700  17.122  15.848  0.1031 -0.2642 -0.2561
16161W        W32422   5.481   7.312   1.074  0.3175  0.2690 -0.1417
16162W        W32423   0.003  14.456  12.247  0.0981 -0.2473 -0.0109
16163W        W32424  14.124   7.410  12.422  0.0331  0.4087 -0.0559
16164W        W32425   1.675   5.560  16.136  0.1619 -0.1136 -0.1025
16165W        W32426  17.637   6.961   5.802 -0.0653 -0.2215  0.0801
16166W        W32427  17.743  12.476   3.380 -0.1737 -0.2751 -0.1997
16167W        W32428  13.628   7.553   1.734 -0.0098 -0.1486 -0.1790
16168W        W32429   4.494   0.510   5.030  0.3787 -0.1652 -0.4146
16169W        W32430   6.777   3.424   4.863  0.1408  0.1429 -0.1017
16170W        W32431   8.593   5.690  15.586  0.2922 -0.2241 -0.0726
16171W        W32432   5.071   4.444   5.444 -0.4867  0.2921 -0.3647
16172W        W32433   0.906   7.682   0.894 -0.1221 -0.6408 -0.1706
16173W        W32434   0.335  17.393  13.820  0.0937  0.0465 -0.0847
16174W        W32435   5.736  16.015  11.868  0.0223 -0.0764 -0.0511
16175W        W32436  17.686   5.649  11.645 -0.0563 -0.1706 -0.3805
16176W        W32437   0.498   9.301  10.990 -0.1627 -0.1354  0.4481
16177W        W32438  13.533  12.275  14.518  0.0091  0.4655 -0.2694
16178W        W32439  17.830   7.589  13.396  0.4638  0.0097 -0.0585
16179W        W32440   7.872   1.716  11.679 -0.0031  0.1327  0.1877
16180W        W32441   5.686   3.636  15.890 -0.0031  0.1079  0.0993
16181W        W32442   8.663  14.680   3.115 -0.1051  0.1195  0.0023
16182W        W32443  12.855   0.986   5.373  0.1910  0.3914 -0.1823
16183W        W32444   3.000   9.479  11.353  0.2207  0.1636 -0.0099
16184W        W32445  14.362   6.970   0.893 -0.2911 -0.2328 -0.1413
16185W        W32446   6.227   2.980  12.176  0.1049 -0.0000  0.2201
16186W        W32447   7.317  15.644   0.011  0.2675  0.2479 -0.1034
16187W        W32448  15.176  15.720  13.549 -0.1528 -0.0209 -0.2246
16188W        W32449  12.054   1.381  10.895 -0.2184  0.3237  0.0774
16189W        W32450   9.373  14.497   1.043 -0.0606 -0.1964 -0.0034
16190W        W32451  12.601  16.187  10.505  0.0130  0.0733 -0.3980
16191W        W32452  12.341   2.409   3.075 -0.5455 -0.1595  0.0737
16192W        W32453   1.974   1.041  14.954 -0.1428 -0.1054 -0.1311
16193W        W32454  10.192  12.009   5.423  0.1213 -0.0803  0.0859
16194W        W32455   8.883   5.489   2.677 -0.2028 -0.0025  0.1889
16195W        W32456   0.272   6.112   1.457  0.1015  0.1177 -0.0089
16196W        W32457   7.565   1.676   6.331  0.3738  0.0652 -0.2053
16197W        W32458   9.669   3.858  14.036  0.3208 -0.1082  0.1719
16198W        W32459  13.648  10.902  13.995  0.2231 -0.1141 -0.3526
16199W        W32460  17.857   8.721   1.652 -0.2144 -0.2410  0.1727
16200W        W32461   3.843   7.507   1.421  0.0802 -0.4201  0.1942
16201W        W32462  18.441  11.638  13.135  0.1635 -0.1315  0.2725
16202W        W32463   8.423  10.659   5.420 -0.2751  0.0579 -0.2568
16203W        W32464  14.149  16.243  12.062  0.0503  0.1300  0.1709
16204W        W32465   6.347  12.514   0.390  0.0282 -0.0242  0.1773
16205W        W32466  18.465  11.114   3.351  0.0973 -0.2315  0.0577
16206W        W32467   9.569  12.814   2.240 -0.0609  0.3767 -0.1165
16207W        W32468  10.864   7.327   0.716 -0.3014  0.3094  0.1134
16208W        W32469  13.064   7.094  13.901  0.1943  0.1404 -0.0747
16209W        W32470  16.617  17.034  13.003 -0.1543  0.2990 -0.0885
16210W        W32471   1.586  11.337   2.483 -0.3372  0.1679 -0.1558
16211W        W32472  15.946   3.005   1.522  0.2183 -0.5379 -0.1001
16212W        W32473   8.610   3.224  11.589 -0.0201 -0.2423 -0.1625
16213W        W32474   5.303   0.907   1.179  0.2961  0.0961 -0.0111
16214W        W32475   2.959   8.829   5.486  0.0020 -0.1988  0.2071
16215W        W32476  11.670   3.970  11.365  0.0081  0.1012  0.2331
16216W        W32477  16.034  10.304   0.483 -0.0199 -0.0696 -0.1043
16217W        W32478   4.158  10.691  13.315 -0.2677 -0.1316 -0.0603
16218W        W32479  12.113  11.397  13.130 -0.1233 -0.1962 -0.0827
16219W        W32480  15.921   8.566   3.385  0.1436 -0.3100 -0.1087
16220W        W32481   1.448  11.257   1.405  0.1095  0.2109 -0.3129
16221W        W32482  14.400  11.071   0.655  0.0216  0.0052 -0.2764
16222W        W32483  11.425  14.771  11.377 -0.1162 -0.0390 -0.0833
16223W        W32484   6.967  11.442  13.162  0.0226  0.2011 -0.0251
16224W        W32485   1.457  12.535   3.057 -0.1164  0.2754 -0.1585
16225W        W32486  13.060  10.924  13.457 -0.1918 -0.1696  0.1441
16226W        W32487  11.905   3.508  15.073 -0.1174 -0.1509 -0.0748
16227W        W32488   7.583  15.007   4.554  0.0605 -0.2772 -0.3278
16228W        W32489   5.968  12.027   5.539  0.1901  0.1810  0.1492
16229W        W32490  12.024  18.015  11.506  0.1872 -0.1756 -0.0728
16230W        W32491   6.783   3.325  14.012  0.1574  0.0195  0.2305
16231W        W32492  15.095  11.978   0.224 -0.1684 -0.1125 -0.2496
16232W        W32493   1.684  10.047  11.409 -0.1422 -0.1883  0.0437
16233W        W32494  11.416  11.921  11.126  0.1891 -0.1588 -0.0227
16234W        W32495   5.161   1.152  14.228 -0.1525 -0.1331  0.0387
16235W        W32496  11.247   0.649  14.908  0.1047 -0.1455 -0.3199
16236W        W32497   2.089  11.601   0.251  0.1621  0.1939 -0.1519
16237W        W32498  13.618   5.044  13.778 -0.0856 -0.0117 -0.1002
16238W        W32499   9.137   6.656   4.523  0.0398 -0.0412  0.2111
16239W        W32500   3.177   1.990  12.076  0.1048  0.3673  0.0365
16240W        W32501   8.367   0.632  15.412  0.1049  0.3522 -0.1765
16241W        W32502  15.790  10.218  11.452 -0.0337 -0.0220  0.1855
16242W        W32503  11.637   3.690   0.184 -0.0318 -0.1577 -0.0289
16243W        W32504   6.208   2.028   1.365  0.4300 -0.0589 -0.2371
16244W        W32505  13.067  11.805  13.930 -0.2850 -0.2439 -0.1904
16245W        W32506  16.711   2.918   3.582 -0.0364 -0.2385  0.0527
16246W        W32507   8.181  17.077  12.711  0.0004 -0.0157  0.0737
16247W        W32508   3.234  11.944   0.444 -0.1554  0.0840 -0.2387
16248W        W32509   3.108   7.093  12.700  0.0801  0.0777  0.3332
16249W        W32510   5.683  17.596  13.113 -0.1261  0.0307  0.0958
16250W        W32511  11.533  13.831   3.904  0.2703  0.0326  0.1186
16251W        W32512  10.281  17.382  12.065  0.1731  0.0484 -0.3927
16252W        W32513  10.545   2.577   4.942 -0.3214 -0.2265 -0.2007
16253W        W32514   3.921  12.191   4.459  0.0615  0.0082  0.1400
16254W        W32515  17.934  17.536  11.147  0.0743  0.0486  0.3744
16255W        W32516  17.186  11.985   0.532 -0.0470 -0.1492 -0.3467
16256W        W32517   2.244  14.689  10.834  0.0615 -0.1081 -0.2863
16257W        W32518   4.333   9.374   1.719  0.0089 -0.1164 -0.2843
16258W        W32519  11.339   9.311   1.572 -0.1377  0.0753 -0.0224
16259W        W32520   2.549   4.673   0.917  0.2592  0.3848 -0.1894
16260W        W32521  14.044  13.334   1.611 -0.1501  0.0585 -0.0969
16261W        W32522  13.290  17.288   2.243  0.1339 -0.0943  0.0441
16262W        W32523   4.686   7.900   4.554 -0.3516  0.2309 -0.0478
16263W        W32524  14.198   4.412  12.099 -0.2604  0.2606  0.1353
16264W        W32525   1.976   8.920  12.904 -0.1236 -0.1402  0.1328
16265W        W32526   9.327  13.941   5.371 -0.0890  0.2439  0.4036
16266W        W32527   8.365   8.092   4.500  0.0950  0.1726  0.2747
16267W        W32528  10.444  12.446   2.553  0.0966 -0.2225  0.1185
16268W        W32529  18.277   0.116  16.057 -0.0335  0.0185 -0.0048
16269W        W32530   9.578  16.324   1.472 -0.1420  0.1221 -0.1916
16270W        W32531  13.941   8.136  11.215  0.0454 -0.0677  0.4723
16271W        W32532  11.728   6.890   5.230  0.1634 -0.0042  0.1547
16272W        W32533   8.853   5.593   1.851  0.0837  0.0247 -0.2505
16273W        W32534  13.196   1.518   0.362 -0.0721 -0.3478  0.0917
16274W        W32535  15.332   4.846  12.449 -0.1119 -0.0163  0.0220
16275W        W32536   0.206  16.429  15.716  0.4598 -0.1493 -0.1494
16276W        W32537  13.493  12.676  12.669 -0.2036  0.2499 -0.0287
16277W        W32538  10.406  10.275   2.830  0.0925 -0.2372 -0.0046
16278W        W32539  10.580  14.647   1.470 -0.1855  0.0065  0.1994
16279W        W32540  18.298   4.927  16.124 -0.1988 -0.3828  0.0096
16280W        W32541  12.467  10.967  12.609  0.0133  0.2626  0.2450
16281W        W32542  17.094  15.518  13.982  0.1968  0.1185 -0.1321
16282W        W32543   6.326  15.561   3.422 -0.0151  0.2431 -0.1711
16283W        W32544  14.570   5.301  12.985  0.2632 -0.0371  0.1736
16284W        W32545   9.775   7.700   5.091  0.0456  0.1391 -0.2260
16285W        W32546   6.474  14.547   0.039 -0.5611  0.1576 -0.2495
16286W        W32547   0.920  15.443   4.474  0.4858 -0.0212 -0.4396
16287W        W32548   4.672   2.792   5.370 -0.2588 -0.0743  0.0938
16288W        W32549   0.642  14.888   1.568  0.2134 -0.1224 -0.0559
16289W        W32550  11.855   9.716   5.992 -0.4826 -0.0683 -0.1782
16290W        W32551   3.101   7.276  11.818  0.1046  0.1502 -0.2966
16291W        W32552   4.990   6.598   0.319  0.1964  0.0143 -0.1140
16292W        W32553   5.280   2.940   6.699  0.3407 -0.2819  0.3125
16293W        W32554  13.927   5.524  11.302 -0.0261  0.1883  0.1370
16294W        W32555   4.339  14.324  15.650 -0.0658 -0.2764 -0.0730
16295W        W32556  16.326   4.493   5.263  0.2444 -0.2058  0.1332
16296W        W32557   9.369   1.593   1.587  0.1814  0.1010 -0.0119
16297W        W32558   6.460  14.721   0.589 -0.0461  0.3965 -0.3960
16298W        W32559   3.816   5.048   3.308  0.0887  0.3257  0.3294
16299W        W32560  14.653  13.046  14.205 -0.1318  0.0998 -0.2020
16300W        W32561  13.469  15.122   2.547  0.2131 -0.1026  0.2246
16301W        W32562   4.362  15.279  14.381  0.0846  0.1970 -0.0638
16302W        W32563  12.298   8.500   3.751 -0.2241 -0.1265  0.2084
16303W        W32564   8.945   0.306  11.294  0.1391  0.0053 -0.2074
16304W        W32565  13.311  10.605   0.441  0.0255  0.1185 -0.0096
16305W        W32566  10.414  16.152   1.465  0.0126 -0.0579 -0.3917
16306W        W32567  15.189  15.997  14.312 -0.1841  0.0369  0.0169
16307W        W32568   9.173  10.074   0.266 -0.2947  0.0588  0.0319
16308W        W32569  17.251   4.473   1.504  0.0076 -0.4431  0.1387
16309W        W32570   8.809  10.759  12.092 -0.1385 -0.1068 -0.2322
16310W        W32571   2.253  13.936   4.026  0.1932 -0.0357 -0.1053
16311W        W32572   2.437  12.251   2.630  0.0974 -0.0978  0.3459
16312W        W32573   7.260  13.036   4.146  0.2477  0.2489  0.1364
16313W        W32574  12.203  13.776   9.629 -0.1305  0.1364  0.2465
16314W        W32575  12.775  10.525  12.720  0.2145 -0.1332  0.0520
16315W        W32576   3.214   9.650   3.904  0.0965  0.1442 -0.0387
16316W        W32577   1.153   2.562   2.291  0.1043  0.0103 -0.0306
16317W        W32578   5.553  13.464   1.090 -0.0836  0.0229  0.0364
16318W        W32579   1.242   2.144  11.427 -0.0094  0.2741  0.1197
16319W        W32580  10.384  12.399   1.990 -0.0798  0.3479  0.1520
16320W        W32581   2.737  18.082   4.043  0.1596 -0.1300  0.2069
16321W        W32582   1.007  12.373   3.339 -0.2195  0.0095  0.3006
16322W        W32583   6.503   3.837   1.493 -0.1798 -0.0460  0.1900
16323W        W32584   9.177  16.840   4.275  0.0193  0.1060  0.0456
16324W        W32585   6.998  12.497   1.209 -0.2954  0.0570  0.2064
16325W        W32586  13.115   2.789   1.585 -0.0929 -0.0861  0.2448
16326W        W32587  16.761   5.552   0.617 -0.0903  0.1549  0.1359
16327W        W32588   3.674  12.371  16.006 -0.1244  0.5792  0.1938
16328W        W32589  10.232  10.309   3.338  0.1532  0.1034  0.1400
16329W        W32590   7.036   1.024   2.155  0.2315  0.0200 -0.3171
16330W        W32591  14.242  14.578   0.782 -0.0504 -0.0564 -0.1861
16331W        W32592   7.094  17.678   5.706  0.1384 -0.2502  0.4409
16332W        W32593   2.949  11.781  13.772  0.0679 -0.1232  0.0060
16333W        W32594   8.228  11.591  11.298 -0.2665  0.4153  0.0464
16334W        W32595   9.374  11.933   0.380 -0.1106  0.2086  0.1608
16335W        W32596  18.337   9.851   0.964  0.1695  0.2561  0.1072
16336W        W32597   3.433   6.675  15.276  0.1267 -0.2022  0.2739
16337W        W32598  13.561   1.218   0.434  0.0828  0.1378  0.0030
16338W        W32599  14.352   3.294   5.004 -0.3618  0.0758 -0.0846
16339W        W32600   2.088  13.837  13.737 -0.1511 -0.1954 -0.1908
16340W        W32601   3.766   8.401  14.510  0.1262  0.1359  0.0979
16341W        W32602   1.409   6.843   2.304 -0.0160 -0.1647 -0.0585
16342W        W32603   4.807   3.685   5.205 -0.0366  0.0992 -0.1279
16343W        W32604  11.240   2.335   4.608  0.1457  0.0149 -0.1304
16344W        W32605   6.285   0.354   3.301 -0.1240 -0.1788 -0.0900
16345W        W32606  17.204  14.877   2.386  0.0483  0.2024 -0.1241
16346W        W32607  17.895   0.120  12.472  0.2256 -0.2183  0.4049
16347W        W32608  10.476   1.083   2.317  0.0440  0.3735  0.2309
16348W        W32609   0.528  14.251  11.989 -0.0081 -0.0294  0.2586
16349W        W32610   2.706  10.749   5.617  0.4055 -0.1900 -0.0558
16350W        W32611   4.758  13.230   0.947  0.2205  0.3816 -0.1150
16351W        W32612  16.095   1.552   3.036  0.0184  0.0476 -0.0111
16352W        W32613   4.084  14.515   5.272 -0.0327 -0.2376 -0.3213
16353W        W32614  17.280   3.448  15.204  0.0780 -0.0754 -0.2119
16354W        W32615  17.114   1.812   2.630 -0.0280  0.0984  0.3149
16355W        W32616   9.227   2.104   3.476 -0.0158  0.1221 -0.0383
16356W        W32617  11.733   4.803   4.299 -0.1607  0.0255  0.1261
16357W        W32618   7.512   0.081   3.017  0.1265  0.0080  0.0589
16358W        W32619  17.217  14.474   3.741 -0.1920 -0.3279 -0.0049
16359W        W32620   1.312  16.186   4.586 -0.0885 -0.2015  0.2690
16360W        W32621  12.160  11.491  11.203  0.0051  0.0519 -0.2776
16361W        W32622  14.480  12.051   0.297  0.2710  0.2755  0.0239
16362W        W32623  12.037  12.393   1.473  0.0310  0.3588 -0.0803
16363W        W32624  13.358  18.455  12.806  0.6120 -0.2678 -0.0357
16364W        W32625   6.642   4.266   5.731 -0.0819  0.0879 -0.1256
16365W        W32626  13.993   0.403  13.445  0.1205 -0.2246  0.0277
16366W        W32627  12.685  16.495  15.368  0.2032  0.2885 -0.1324
16367W        W32628  17.907   1.374   2.292  0.1666  0.0082 -0.0027
16368W        W32629  15.037   2.966  12.582  0.3719 -0.0769 -0.0993
16369W        W32630  12.266  15.236   2.547 -0.0257  0.0928 -0.0516
16370W        W32631  12.691  13.858  13.021  0.0288  0.1441  0.1171
16371W        W32632   7.981   2.098   1.375 -0.0869  0.0686  0.3175
16372W        W32633  13.392  16.413   3.157 -0.1538 -0.1904  0.1981
16373W        W32634  10.663   7.013   5.297 -0.1972 -0.0224 -0.0585
16374W        W32635   2.293  17.087  11.816 -0.1704 -0.0897  0.0483
16375W        W32636   0.101   4.752  15.679  0.0738  0.1738 -0.0449
16376W        W32637   2.320   1.807   4.878 -0.0421  0.1643 -0.1543
16377W        W32638  18.198   9.896   4.020 -0.0091  0.1509  0.1173
16378W        W32639   2.718  15.474   5.059  0.4517  0.0884 -0.1609
16379W        W32640  18.131   2.999  11.224 -0.0022  0.0881 -0.0358
16380W        W32641   3.461   0.408  15.948  0.0938  0.0207 -0.0240
16381W        W32642  12.333   5.432  13.718  0.1917  0.0338  0.1245
16382W        W32643   7.029  14.068   1.573 -0.3374 -0.0893 -0.1017
16383W        W32644  17.760   8.280   3.888 -0.1716  0.3671 -0.1475
16384W        W32645   0.229   3.193  11.783  0.1956  0.1970  0.0359
16385W        W32646  10.791  14.288  15.948 -0.2552 -0.2569  0.0234
16386W        W32647  16.282   1.598  15.508 -0.2823  0.1905 -0.0628
16387W        W32648  17.736   9.902   4.678 -0.0160 -0.2837  0.0903
16388W        W32649  18.434  18.256   3.046 -0.0396 -0.2061 -0.0360
16389W        W32650  10.886   5.871   2.785  0.0449 -0.0008 -0.3168
16390W        W32651  13.967   9.806  12.113  0.2808 -0.0756 -0.0764
16391W        W32652   8.150  16.411   5.414  0.0018 -0.2715 -0.2893
16392W        W32653  10.059   0.318   1.915 -0.2503  0.0129 -0.1635
16393W        W32654  12.025   1.361   5.254 -0.4560  0.0131  0.0947
16394W        W32655   5.759   9.362   2.299  0.0329  0.0132 -0.1169
16395W        W32656   3.610   8.275  13.989  0.1030  0.2927  0.0368
16396W        W32657  15.455   6.786   6.087 -0.2435 -0.0584  0.1990
16397W        W32658   4.764   3.827   4.691  0.3376  0.2927 -0.0375
16398W        W32659   6.129   3.763  12.592  0.0025 -0.1998  0.1670
16399W        W32660   8.123  14.238  11.886 -0.3483 -0.2934  0.0564
16400W        W32661   3.706   0.757   5.988 -0.1859 -0.3066 -0.2095
16401W        W32662   1.518  16.466  15.365  0.0112 -0.2033 -0.4009
16402W        W32663   0.767   9.401  13.094  0.3028 -0.0523 -0.3215
16403W        W32664  13.840  17.367  11.804 -0.2258  0.0002  0.1020
16404W        W32665   6.362  13.847   1.057 -0.1328  0.0553  0.0751
16405W        W32666  12.282   6.538  11.473 -0.0129  0.3585 -0.0210
16406W        W32667   1.719  18.286  15.875  0.1584  0.3213 -0.1653
16407W        W32668  16.824   6.994   2.118 -0.1130 -0.1003 -0.1976
16408W        W32669   7.561   3.715   4.379  0.2548 -0.1318 -0.2880
16409W        W32670  11.196  17.437   4.100  0.0479 -0.1724 -0.0469
16410W        W32671   7.778  10.073  11.518  0.0229  0.4596 -0.0795
16411W        W32672   1.418  14.353   1.942  0.1383 -0.0404  0.3154
16412W        W32673  13.417   9.973   5.632  0.0659  0.2462 -0.0885
16413W        W32674   0.145  11.033   0.399 -0.1084  0.2351 -0.1881
16414W        W32675  10.311   4.514  15.833  0.2889 -0.0173  0.0215
16415W        W32676   0.905  13.061   1.182  0.0256 -0.0914 -0.2479
16416W        W32677  15.062  17.036  11.335  0.2055  0.1714 -0.1186
16417W        W32678   1.296  14.286  13.951  0.1098  0.0522  0.3037
16418W        W32679   4.486  15.944   5.490 -0.4201  0.3107 -0.1731
16419W        W32680  11.636  15.453   2.140 -0.2799 -0.3021  0.0874
16420W        W32681  14.017   2.341   0.957  0.0648  0.1290 -0.0123
16421W        W32682   8.355   5.402   0.484  0.0943  0.0444  0.2734
16422W        W32683   8.737   0.724   0.122 -0.0500 -0.0525  0.2239
16423W        W32684  11.475   0.954   3.765 -0.0634 -0.1458 -0.0727
16424W        W32685  13.896   2.623  11.895 -0.2954 -0.0756  0.1584
16425W        W32686  11.869   9.251  14.567  0.0387  0.2702  0.0944
16426W        W32687   2.426  15.190  15.447 -0.0480  0.0781  0.1772
16427W        W32688  11.616  18.386   3.061 -0.0357  0.1992 -0.0684
16428W        W32689  12.552   7.882   1.220  0.0571  0.0518 -0.0642
16429W        W32690  13.752   5.840   0.722 -0.0393 -0.0781  0.1508
16430W        W32691  17.127   5.431  15.668 -0.2312 -0.1127  0.0229
16431W        W32692   4.189   6.213   3.129 -0.0531 -0.0993 -0.1944
16432W        W32693  16.421   7.257  13.037  0.3250 -0.2099 -0.1249
16433W        W32694  13.971  14.970   4.782  0.2303 -0.0395  0.1225
16434W        W32695   5.389  17.485  11.639  0.0825 -0.2459  0.1041
16435W        W32696   3.409   8.660   1.433  0.0339  0.0599  0.0926
16436W        W32697  13.698   7.849  14.860  0.2860  0.1689  0.0082
16437W        W32698  13.860  17.299  10.433 -0.2011  0.1586  0.0518
16438W        W32699   8.632   6.215   2.276  0.3951 -0.1650 -0.0430
16439W        W32700  10.047  17.906   2.258 -0.0091 -0.1082 -0.3647
16440W        W32701  17.402  12.359  10.164 -0.1786 -0.3451  0.2159
16441W        W32702  11.556   8.296   4.388  0.0060 -0.0809  0.0414
16442W        W32703  16.030   5.579  11.130 -0.1384  0.2491  0.1369
16443W        W32704   3.302   7.634   2.863  0.1095  0.0346  0.1023
16444W        W32705   8.700   2.409   4.988 -0.1656  0.1926  0.2131
16445W        W32706  11.906   0.479  14.642 -0.4773  0.0715 -0.3341
16446W        W32707   5.939   6.046  12.669 -0.1718 -0.1532  0.3931
16447W        W32708   3.016  11.514  13.354 -0.0137  0.0195 -0.0647
16448W        W32709  15.504  14.255   4.350 -0.3656 -0.0311  0.2324
16449W        W32710   3.882  18.002  12.940  0.0191  0.2715  0.1285
16450W        W32711   1.829  10.198   3.557  0.3173  0.1273 -0.0913
16451W        W32712  15.353   4.924   4.614  0.0556 -0.0384  0.1516
16452W        W32713  14.727  12.658   4.502 -0.1923  0.0122 -0.0417
16453W        W32714   9.942   2.461  15.904 -0.0067  0.0130 -0.0880
16454W        W32715   4.710  10.544  16.052  0.2377  0.3283  0.0921
16455W        W32716   1.929  12.340   2.678 -0.1070  0.0558  0.0004
16456W        W32717  15.851   0.867   1.433 -0.0487  0.1894  0.0312
16457W        W32718   1.595   7.911   3.932 -0.1507 -0.1818  0.3462
16458W        W32719  13.688  13.811  13.658 -0.0745 -0.1277  0.1935
16459W        W32720   7.678   4.970  15.949  0.1976 -0.1629  0.1558
16460W        W32721  10.957  13.099  15.244  0.0190  0.1624  0.0821
16461W        W32722   2.894   0.347  13.292 -0.0851 -0.2162 -0.1990
16462W        W32723   0.054  17.380   3.613 -0.1793  0.2678 -0.1238
16463W        W32724  15.184  17.277  10.587  0.1299  0.6402  0.0412
16464W        W32725   1.947   1.961  12.956  0.0817 -0.1007  0.3410
16465W        W32726  16.198  15.778   5.205  0.0367  0.1564  0.2962
16466W        W32727  16.058   6.187  15.930 -0.2480 -0.0480 -0.1297
16467W        W32728  16.105  17.056  10.438  0.1515  0.1077  0.5194
16468W        W32729   1.707   8.998  14.596 -0.2854  0.0893  0.1861
16469W        W32730   4.012   6.608  13.643  0.1408  0.1456  0.0484
16470W        W32731   4.832  16.563   6.038 -0.0691  0.2056  0.1081
16471W        W32732   8.281   6.935  14.099  0.0566  0.0185 -0.0553
16472W        W32733   3.830   6.227  12.960  0.0520 -0.0416 -0.0980
16473W        W32734   5.164   1.390   5.962  0.3655  0.3153 -0.0127
16474W        W32735  16.074   9.655  11.852  0.2177 -0.2706  0.1914
16475W        W32736   4.544  15.827   2.623  0.1351  0.1198 -0.0886
16476W        W32737  16.989  16.669   2.040  0.0045  0.2758  0.2688
16477W        W32738  12.583   2.133   3.504  0.2688 -0.1684 -0.2189
16478W        W32739  16.152  10.528   4.900  0.1138 -0.0378  0.2424
16479W        W32740  13.933   8.755  11.767 -0.3540 -0.4803  0.1862
16480W        W32741  11.176   7.446   4.939 -0.0147 -0.0546 -0.0295
16481W        W32742   7.113  16.336   3.483  0.0373  0.2463  0.1398
16482W        W32743  15.717  18.043   1.194  0.3676  0.0247 -0.5830
16483W        W32744   0.937   3.551   2.045 -0.4251 -0.0881 -0.0165
16484W        W32745   8.474  17.807  13.530  0.2590  0.1738  0.1783
16485W        W32746   4.773  12.073   4.562 -0.0947  0.0086 -0.0148
16486W        W32747   3.820   0.246   4.130 -0.0942  0.3271  0.0352
16487W        W32748  13.591  13.007   5.071 -0.1203 -0.2334  0.1733
16488W        W32749   2.830   3.507  15.064 -0.2532 -0.1190 -0.1095
16489W        W32750  11.536  11.842   0.298  0.2767  0.1440 -0.3026
16490W        W32751   6.948  17.159   0.127 -0.0764  0.2422  0.1525
16491W        W32752  16.639   3.927  13.392 -0.1107 -0.2211 -0.0173
16492W        W32753  11.664  13.590  10.600  0.1719  0.0280  0.0353
16493W        W32754   8.278   6.777   5.164  0.2013 -0.2650 -0.0793
16494W        W32755  12.754  14.221   0.248 -0.0667  0.0999 -0.1383
16495W        W32756  16.041  12.612  15.462  0.0741  0.1735  0.1517
16496W        W32757  14.493   2.837  14.695 -0.2226 -0.0029  0.1222
16497W        W32758   6.082  10.988  14.835  0.2166 -0.1859  0.0344
16498W        W32759   3.765  12.595  12.080  0.0066  0.0961 -0.1810
16499W        W32760   9.338   7.145   2.203  0.1918  0.1951 -0.4321
16500W        W32761   8.097   9.841   5.453 -0.3511 -0.3964  0.2209
16501W        W32762   5.189  11.228   0.704 -0.0452 -0.0567 -0.0981
16502W        W32763  10.442  17.766   3.685 -0.1879 -0.3864  0.1895
16503W        W32764   9.431  13.214   5.946 -0.0419 -0.1495 -0.0717
16504W        W32765  11.833  16.834   0.447  0.1919 -0.0765 -0.0450
16505W        W32766  18.273  15.820   3.405 -0.2322 -0.2556  0.2582
16506W        W32767   8.796  11.420  13.171 -0.2633 -0.1284  0.2432
16507W        W32768  11.304   5.287   4.990  0.2393  0.0856 -0.1219
16508W        W32769   5.366   0.974   4.709 -0.1154  0.1735  0.3776
16509W        W32770   0.459   2.492  13.922  0.0043 -0.0143 -0.2815
16510W        W32771   0.953   4.003   2.366 -0.1954  0.0350 -0.0765
16511W        W32772   3.587  14.469   1.601  0.0502 -0.1184  0.1043
16512W        W32773   9.375  11.272  15.557 -0.0252 -0.1198  0.0748
16513W        W32774   4.772   5.253  15.991 -0.1305  0.0538 -0.0974
16514W        W32775  10.154   8.811  14.130 -0.1978 -0.2014 -0.2031
16515W        W32776   5.017  15.255   3.359 -0.0019  0.0766 -0.0135
16516W        W32777   5.124   4.490   1.797 -0.0706  0.1415  0.0060
16517W        W32778   6.990   9.868   4.786 -0.2484  0.2237  0.3530
16518W        W32779  11.134   9.735   0.389  0.0332  0.0600 -0.0726
16519W        W32780   4.541   1.110   2.433  0.1888  0.0033  0.0491
16520W        W32781   7.045  17.866  11.593  0.3496 -0.0253 -0.0209
16521W        W32782  13.653   1.799   1.307 -0.1919 -0.0686 -0.0739
16522W        W32783   5.336  14.268  15.523  0.2847 -0.0838  0.2174
16523W        W32784   5.781   5.067   1.625 -0.0786 -0.1080  0.0142
16524W        W32785   0.849   8.808   3.980  0.1012 -0.0553 -0.2474
16525W        W32786  17.639  14.856   3.750 -0.0590  0.0785  0.2593
16526W        W32787  14.101  13.937  13.327 -0.1797 -0.1420  0.1157
16527W        W32788   1.117  11.379  13.784  0.1787  0.0192 -0.1881
16528W        W32789  15.624  10.106   3.535 -0.1760 -0.3562  0.1314
16529W        W32790   6.253   4.054  15.898  0.3072 -0.0418  0.0592
16530W        W32791  18.378   1.708   4.380  0.1298  0.0857 -0.0519
16531W        W32792   2.476  12.291   1.042  0.1392  0.0506  0.2343
16532W        W32793   8.059  10.823   4.896 -0.1048 -0.0588 -0.1338
16533W        W32794   1.423  13.267   0.428 -0.1550  0.0586  0.2190
16534W        W32795   3.858   0.090   3.605 -0.0673 -0.1023 -0.0392
16535W        W32796  10.340   3.713   5.426 -0.0369 -0.2845  0.1566
16536W        W32797   5.276  16.190  14.621 -0.2427  0.1428 -0.0821
16537W        W32798   4.585  14.184  16.151 -0.0311 -0.0494 -0.0659
16538W        W32799   7.936   0.557   5.523  0.0819  0.2632 -0.0911
16539W        W32800   8.477  18.357   5.491  0.1051 -0.2708  0.0517
16540W        W32801  12.150  18.102  12.000  0.0894  0.1915 -0.2205
16541W        W32802   9.043  14.955   2.177  0.3833  0.0974  0.0690
16542W        W32803   8.310   4.494  15.043 -0.0806  0.4479 -0.0769
16543W        W32804  10.632  14.949   0.479 -0.0989 -0.1326 -0.1566
16544W        W32805   6.133   9.774  13.992 -0.0337  0.0455  0.2455
16545W        W32806   4.714  16.605  16.024  0.0370 -0.0715  0.0620
16546W        W32807  14.420  13.780   0.195  0.1689 -0.2250  0.2721
16547W        W32808   3.998  13.967  15.990  0.1163 -0.0666  0.0580
16548W        W32809   9.923   9.128  11.654  0.0637 -0.1377  0.1082
16549W        W32810  13.413  13.662   0.588 -0.0982  0.0854 -0.1719
16550W        W32811  10.316   6.106  12.688  0.1833  0.0337 -0.1928
16551W        W32812   2.990   1.473   0.720 -0.0045 -0.0932  0.1539
16552W        W32813  12.485   0.373  10.634 -0.1610 -0.2044  0.0966
16553W        W32814  14.498   2.815  14.044 -0.1231  0.2174  0.1532
16554W        W32815   1.820  15.857  14.052 -0.2722  0.2523  0.1803
16555W        W32816  18.256  13.347  11.831 -0.0351 -0.0031  0.0996
16556W        W32817  15.656   7.442   2.080  0.2212 -0.0237 -0.1654
16557W        W32818  12.068  13.221   0.442  0.2317  0.2587  0.0636
16558W        W32819  12.560   2.304   1.055 -0.1773 -0.2139  0.3365
16559W        W32820  12.458   1.959  13.164 -0.0139  0.3113  0.0631
16560W        W32821  16.748   3.996  15.689 -0.0139  0.1537 -0.0998
16561W        W32822  14.770  15.828   2.419  0.0393  0.0442  0.0302
16562W        W32823  11.904  15.150   0.821 -0.4325  0.0053  0.3054
16563W        W32824   2.768  16.514   0.879 -0.3367  0.2514 -0.1386
16564W        W32825   5.287  18.052   5.959  0.0134 -0.2372  0.0363
16565W        W32826   6.516  10.284  13.618 -0.1277  0.2069 -0.0928
16566W        W32827   5.383  12.797   5.548 -0.0156 -0.1881 -0.1240
16567W        W32828  10.776   0.374  13.465  0.2480 -0.2510 -0.2074
16568W        W32829   5.745  15.851  13.596  0.3426 -0.0663 -0.0364
16569W        W32830   9.305  10.267   1.175 -0.0853 -0.1097  0.0960
16570W        W32831  10.062   2.992   4.318  0.0670  0.5009  0.4028
16571W        W32832   0.473  16.323   3.988 -0.3050 -0.0226 -0.2851
16572W        W32833  14.853  17.963   2.426  0.0236 -0.3020  0.2371
16573W        W32834   8.717   0.411  12.725  0.0676  0.1386  0.2341
16574W        W32835   9.902  11.992  11.595 -0.0314 -0.0759 -0.0816
16575W        W32836   4.706  17.692  11.753 -0.1651 -0.2191  0.0871
16576W        W32837   6.523  11.790   0.645 -0.2284 -0.0391 -0.2038
16577W        W32838   2.096  13.053  12.748  0.0125 -0.2171 -0.1036
16578W        W32839   6.087  18.301   3.239  0.2862 -0.3376 -0.2106
16579W        W32840   0.226   0.216  14.492 -0.2358  0.0588 -0.2279
16580W        W32841   2.470  17.773   0.922  0.0087 -0.0532  0.2016
16581W        W32842  13.781   7.484  12.910 -0.1224  0.1000 -0.1368
16582W        W32843  17.628   1.668   1.357 -0.0323  0.2945 -0.0315
16583W        W32844  16.323   8.311   3.679 -0.1586 -0.2361  0.1889
16584W        W32845   5.275   2.223   2.188  0.1168 -0.1233 -0.0211
16585W        W32846   6.050  11.277  13.851 -0.1563 -0.4297  0.0524
16586W        W32847   2.670   5.233   5.142  0.0749  0.1548  0.0117
16587W        W32848  11.406   5.066  13.812  0.1966  0.1462  0.1542
16588W        W32849  18.018  14.651   1.330 -0.3333 -0.3958  0.0437
16589W        W32850  17.425   1.974   5.484  0.0696 -0.3765  0.1237
16590W        W32851   5.667  18.106  12.943  0.1097 -0.1039  0.0197
16591W        W32852   9.718  17.038   3.360 -0.1522 -0.1299 -0.0593
16592W        W32853  18.043   1.802  15.369 -0.1426  0.2741 -0.1282
16593W        W32854  16.126   0.761  11.786  0.1377  0.1189  0.1466
16594W        W32855   0.086  12.193   3.485 -0.2188 -0.1231 -0.1738
16595W        W32856  10.763  14.161   4.766 -0.2200  0.0560  0.0487
16596W        W32857  14.913   9.055  14.629  0.1199 -0.2037  0.0260
16597W        W32858  14.729   0.519   1.122  0.1133  0.0953  0.2277
16598W        W32859   9.140   3.249  11.172 -0.1786 -0.0427 -0.2259
16599W        W32860   1.286  17.073  11.635  0.3126 -0.0191  0.1045
16600W        W32861  18.478   9.107   0.311  0.1882  0.1082  0.2937
16601W        W32862   5.281   3.333  15.576  0.3800  0.2428 -0.1784
16602W        W32863   8.357   9.843   0.847  0.0053 -0.1823  0.3226
16603W        W32864  18.276  16.871   0.513 -0.3090 -0.0304 -0.0448
16604W        W32865  11.750   2.565   5.670 -0.0981  0.2504 -0.0743
16605W        W32866   8.341  12.650   1.661  0.1864  0.0173 -0.1856
16606W        W32867   3.779  15.279   5.729 -0.1395  0.2614  0.2064
16607W        W32868  17.337  16.197   2.343 -0.3126  0.1414 -0.1075
16608W        W32869  14.732  11.334  14.744 -0.0144  0.0611  0.0502
16609W        W32870   9.478   4.224  14.915  0.2193  0.0315 -0.1029
16610W        W32871  17.876   7.507   3.260  0.0355  0.1269  0.1003
16611W        W32872  16.752   4.199  10.888  0.0295 -0.2505 -0.0048
16612W        W32873  16.732  11.367  12.036 -0.2000  0.0799 -0.0861
16613W        W32874   0.635  16.268  13.258  0.0092 -0.0126  0.1174
16614W        W32875   5.725  10.971   1.440  0.1876 -0.0201  0.0438
16615W        W32876   7.075  12.311  13.740 -0.2231  0.3005  0.0394
16616W        W32877   5.303  13.012   1.568 -0.2069  0.2843 -0.0073
16617W        W32878   6.475  13.198   4.210 -0.2610 -0.0459  0.1611
16618W        W32879   1.705  16.767  15.771  0.0816  0.1024  0.0037
16619W        W32880  17.237   3.431   1.530 -0.0344  0.2029 -0.1755
16620W        W32881  12.661   6.516  12.360  0.1412 -0.1363 -0.2130
16621W        W32882   6.978   0.847   0.168 -0.1544 -0.1121 -0.0625
16622W        W32883   6.239  13.233   4.758  0.3036  0.1759  0.0552
16623W        W32884  16.540   9.184  14.149 -0.0288 -0.1328  0.0189
16624W        W32885   2.409   0.222  13.122  0.1002  0.1594  0.1519
16625W        W32886   4.948   9.578   3.292  0.1138 -0.1500 -0.1440
16626W        W32887   2.683   2.859   5.507  0.0764 -0.3613 -0.0210
16627W        W32888  16.457  10.457  14.485 -0.0920 -0.1957 -0.3653
16628W        W32889  10.510  10.578  13.434 -0.0281 -0.4671 -0.0318
16629W        W32890   4.390   7.300  15.472 -0.1415 -0.1183  0.0462
16630W        W32891   1.741  16.262   5.334  0.0372  0.1923 -0.3996
16631W        W32892   8.166   3.660   4.784 -0.0682 -0.1271 -0.0525
16632W        W32893  15.966   3.790  15.501 -0.1665  0.1501  0.3555
16633W        W32894  11.961   9.304   4.488  0.1032 -0.1067 -0.3000
16634W        W32895  17.584   0.262   9.888  0.3077 -0.2257 -0.1590
16635W        W32896   9.666   1.672  13.894  0.1021 -0.2486  0.3064
16636W        W32897  15.910   6.053   2.299  0.2526  0.0333  0.2248
16637W        W32898  11.656   6.246  12.151  0.0753 -0.0596 -0.1883
16638W        W32899   5.328   0.696  13.924  0.2391  0.2487  0.1901
16639W        W32900   6.507  17.760  13.694 -0.0788  0.0094  0.2031
16640W        W32901   5.501   3.634  14.820 -0.1562  0.0648  0.1218
16641W        W32902  17.406   0.722   4.536  0.0224  0.0174  0.1649
16642W        W32903   0.386   6.703  13.406  0.0731 -0.2067 -0.0116
16643W        W32904   2.439   6.347   1.745 -0.3325  0.2288  0.2260
16644W        W32905  15.674  15.759  10.402 -0.1458  0.1595  0.3156
16645W        W32906  17.063   8.931  13.484  0.1297 -0.0254  0.2602
16646W        W32907   3.490  15.730  16.092 -0.1348  0.1622  0.0916
16647W        W32908  10.879  16.084   1.257  0.0071  0.1313 -0.1808
16648W        W32909   8.073   3.364  12.548 -0.0559  0.0559  0.3035
16649W        W32910   8.188   9.042  12.342  0.0096 -0.2569 -0.0637
16650W        W32911  17.500  12.274  14.289 -0.2767  0.0018  0.5088
16651W        W32912  15.057   7.418  14.885  0.2292  0.5078  0.1384
16652W        W32913  13.415  18.361   0.976 -0.0875  0.0020 -0.0259
16653W        W32914  13.152   7.371  14.804 -0.2224  0.0477  0.0375
16654W        W32915   9.169   7.809  12.779  0.3024 -0.4239 -0.1051
16655W        W32916   2.946   9.336  16.126 -0.3199 -0.2276 -0.1871
16656W        W32917   9.946  10.813   4.129 -0.1357  0.0634 -0.0942
16657W        W32918   5.467  15.791   2.455  0.2678  0.2413  0.0672
16658W        W32919  11.912   5.703  13.921 -0.0602 -0.1844 -0.0405
16659W        W32920  11.226   8.360  13.087  0.2105 -0.2238  0.0626
16660W        W32921   6.360   7.541   1.537 -0.1906  0.0609  0.2796
16661W        W32922   0.832   7.724  12.195  0.0316 -0.2135  0.0645
16662W        W32923  12.263  13.382   2.567 -0.1859 -0.2957 -0.0444
16663W        W32924  17.037   1.520  16.129 -0.0501 -0.2871 -0.1905
16664W        W32925   4.690   2.992  11.707  0.3525 -0.2281 -0.2286
16665W        W32926   3.932   2.015  12.702  0.0345 -0.0736 -0.1301
16666W        W32927   9.095  11.387   1.170 -0.0461 -0.1077  0.1212
16667W        W32928  17.786   6.092   3.117  0.0250  0.2194  0.1152
16668W        W32929   2.240  11.689  10.188 -0.2730 -0.2220 -0.2522
16669W        W32930  15.590  16.196  12.402 -0.1258 -0.1440  0.2076
16670W        W32931  12.892  13.414  13.080  0.0299 -0.2174  0.2388
16671W        W32932   3.601   4.722   5.024 -0.1831  0.0586 -0.0374
16672W        W32933  10.676  18.427  15.824  0.1586 -0.3591 -0.0504
16673W        W32934   1.600  16.617  10.774 -0.4394 -0.1081  0.0716
16674W        W32935  14.102  10.641  11.642 -0.0701  0.3474  0.0478
16675W        W32936  17.274  13.366  15.702 -0.0429  0.2200 -0.0243
16676W        W32937  10.825  11.530   1.011  0.1165 -0.3000 -0.2779
16677W        W32938   6.358   4.390   3.119 -0.0870 -0.0177 -0.2158
16678W        W32939   9.722   2.676   0.425  0.0611  0.2141 -0.0441
16679W        W32940   1.505   1.579   0.902 -0.0356  0.2873 -0.0618
16680W        W32941   1.745   0.363  15.149  0.0874  0.2996  0.4865
16681W        W32942  16.311  13.797  12.415 -0.3197  0.1981 -0.1804
16682W        W32943  16.826  16.873   0.019  0.0442  0.0327  0.2689
16683W        W32944   6.817   1.994   5.169  0.1356  0.1878  0.0876
16684W        W32945  12.216   4.555   4.323  0.2096  0.2611 -0.1250
16685W        W32946   4.498   9.011  12.399  0.1357  0.0760 -0.1328
16686W        W32947  17.779  12.083  12.839 -0.0781 -0.5157  0.0435
16687W        W32948  10.538  14.963  13.734  0.0248  0.0259  0.1399
16688W        W32949  13.808  15.864  14.773 -0.1944  0.2562  0.1130
16689W        W32950   8.287   8.998   5.495  0.0752 -0.0323 -0.1800
16690W        W32951  10.127   2.353   5.124 -0.0313 -0.2231 -0.2926
16691W        W32952   7.885  14.641   3.416 -0.4201  0.1678  0.4685
16692W        W32953  17.302   7.375   0.225 -0.3559  0.2912  0.3273
16693W        W32954  15.695   8.695   4.508 -0.2008  0.1873 -0.2974
16694W        W32955   1.822   9.344  16.045  0.0321 -0.1393 -0.0191
16695W        W32956  16.862  10.767  15.435 -0.0785 -0.2688  0.0802
16696W        W32957  11.701   6.408   4.021 -0.0414 -0.0151 -0.1107
16697W        W32958   0.187   4.377   0.525  0.2567 -0.1772 -0.2962
16698W        W32959  13.136   4.069  15.079  0.3254  0.0234 -0.0063
16699W        W32960   3.938  10.557   3.619  0.1089  0.1724 -0.0760
16700W        W32961   7.334  16.495   2.929  0.1057  0.1925  0.2245
16701W        W32962  17.684   4.539  11.748 -0.2742  0.2802  0.3099
16702W        W32963   3.494  17.611   2.765  0.0747 -0.0578  0.2208
16703W        W32964   2.537   0.627   4.941  0.0397 -0.0447  0.0272
16704W        W32965  10.313   5.896   5.946  0.1631  0.2182 -0.0829
16705W        W32966  15.675   2.319  14.453  0.0894 -0.0864 -0.4440
16706W        W32967   5.711   4.366  14.389 -0.1875  0.2408 -0.1331
16707W        W32968   5.616   1.165   0.229  0.0262  0.1212  0.0864
16708W        W32969  10.091  13.874   2.508  0.1425  0.1593  0.1391
16709W        W32970   3.904  10.679  15.774  0.3448  0.2451 -0.1356
16710W        W32971  16.958   4.763  11.598  0.0544 -0.3303  0.3454
16711W        W32972   9.383   6.977   4.796  0.3805 -0.2181  0.2245
16712W        W32973   2.376   9.408  12.250  0.2572  0.0000 -0.1725
16713W        W32974   9.121  15.336  13.379  0.2635  0.1016 -0.3372
16714W        W32975   8.411   7.039   5.582  0.0512 -0.1121 -0.0065
16715W        W32976  13.112  18.139   2.054  0.1444 -0.2687  0.1692
16716W        W32977  13.786   6.191  15.462 -0.1417  0.1302 -0.0045
16717W        W32978  13.559   4.576  13.568  0.4645  0.1128  0.2944
16718W        W32979  14.703   0.692   3.473 -0.0911  0.0948 -0.1659
16719W        W32980  11.754   4.723  13.814  0.0178  0.1838 -0.3387
16720W        W32981   7.850   0.091   5.679 -0.2389  0.1665  0.0350
16721W        W32982  11.552  16.094  15.575  0.4835  0.0308  0.0707
16722W        W32983   3.193  16.655  11.527  0.0114 -0.2456  0.1232
16723W        W32984   2.135   7.397  14.618 -0.0965 -0.0977  0.1336
16724W        W32985  17.661  16.984   1.382  0.0490  0.4105 -0.1704
16725W        W32986  15.005  16.892  12.297 -0.2607 -0.0258 -0.2757
16726W        W32987   8.364   0.431   0.220 -0.0722 -0.1123  0.2488
16727W        W32988   3.731   5.032   0.810  0.4163 -0.1570  0.1688
16728W        W32989  18.062   0.023  15.158  0.1958  0.3266 -0.0101
16729W        W32990  11.309  17.737   0.687  0.1436 -0.0563 -0.1213
16730W        W32991  15.842   4.226  11.291 -0.1089  0.2688  0.1094
16731W        W32992   6.083   6.421  11.667 -0.1192 -0.1300  0.0746
16732W        W32993   6.491   9.483   0.835  0.1235  0.0694  0.1949
16733W        W32994  11.723   7.908  12.676 -0.2263  0.1481  0.0473
16734W        W32995   8.054   5.454   2.212 -0.1594 -0.0347  0.2712
16735W        W32996   1.354  14.929   5.596 -0.3208  0.0745 -0.0032
16736W        W32997   5.065   6.157   1.445 -0.2145 -0.1809  0.0737
16737W        W32998  11.552   3.485   5.207 -0.0169 -0.3626  0.3563
16738W        W32999   6.640   3.237  11.944  0.5121 -0.0612 -0.0426
16739W        W33000   8.820   5.274   0.380 -0.3194 -0.1137 -0.0729
16740W        W33001  13.965   3.067  13.113  0.2191  0.1234 -0.4064
16741W        W33002   8.307  14.672  11.938 -0.2829  0.2130  0.0295
16742W        W33003   0.490   7.965   1.016  0.1400  0.0756 -0.1890
16743W        W33004   7.654   4.515  10.914  0.0265  0.3916  0.0885
16744W        W33005  13.076  14.641  13.769  0.0413  0.2581 -0.1424
16745W        W33006   8.707  15.379   4.761  0.1923  0.0254 -0.0134
16746W        W33007  11.581  17.290  11.219 -0.1029  0.2053 -0.1891
16747W        W33008   9.840  10.703  11.898  0.2044  0.1221 -0.0757
16748W        W33009   3.932  13.738   3.838  0.2514 -0.1306  0.0648
16749W        W33010  16.761   6.009   3.225 -0.2906 -0.1586  0.1477
16750W        W33011   9.796   6.383  12.048 -0.1663  0.3461 -0.1939
16751W        W33012   6.518  17.277  13.186  0.1057  0.0791 -0.2793
16752W        W33013   2.090  12.249  13.969 -0.2938 -0.0948 -0.1820
16753W        W33014  13.359  10.384  12.746  0.0134  0.1162 -0.1784
16754W        W33015   0.727   9.425  14.935  0.1310 -0.0623 -0.0311
16755W        W33016   4.625   1.577   0.847 -0.2763 -0.0383 -0.0669
16756W        W33017  10.366  11.307  10.880 -0.0625 -0.1816 -0.4170
16757W        W33018   8.610   1.071   4.238  0.0635  0.0454 -0.1354
16758W        W33019  10.030   5.223  13.173 -0.2899 -0.1220 -0.2471
16759W        W33020   2.626   4.574  15.479  0.1554  0.0976 -0.3176
16760W        W33021  14.449  11.567  10.583  0.2711  0.2453  0.0824
16761W        W33022   6.940  10.249   3.660  0.1144  0.0886 -0.2209
16762W        W33023   7.597   1.966   0.672  0.1394  0.0427  0.1272
16763W        W33024  15.768   7.711   0.073  0.1709  0.0368 -0.3202
16764W        W33025   8.936  15.638   5.658 -0.2639 -0.0077 -0.2927
16765W        W33026   9.097  12.432  15.919  0.2141  0.2097 -0.0200
16766W        W33027   8.244   1.385  11.774 -0.1465  0.3080 -0.0066
16767W        W33028  11.151   7.881   3.759 -0.4438 -0.1001 -0.0932
16768W        W33029  14.920   7.888   5.854  0.1651  0.0050  0.0255
16769W        W33030  11.919   9.324  13.879  0.1572 -0.1410 -0.0120
16770W        W33031   4.249  16.342   5.167 -0.0897 -0.0288  0.0490
16771W        W33032   5.482  14.726  15.751  0.0060 -0.1849 -0.7329
16772W        W33033   1.734  11.929   1.375 -0.1658  0.0535 -0.1081
16773W        W33034   9.958  13.259   4.154  0.0070  0.3238 -0.1062
16774W        W33035  13.077   8.972   5.316  0.2646  0.0755  0.0033
16775W        W33036  16.149   1.913  16.175 -0.2359 -0.2662  0.1738
16776W        W33037   8.524   4.426   0.609 -0.2073  0.2400 -0.0155
16777W        W33038  12.261  15.784  15.100 -0.2171  0.0891 -0.0955
16778W        W33039   2.734   6.060   2.062 -0.0301 -0.0694  0.3199
16779W        W33040   1.170   3.810  15.661  0.0423  0.2168  0.0602
16780W        W33041   2.993   4.001   1.692  0.0446  0.3511  0.2541
16781W        W33042   6.318   1.353  15.459 -0.2494  0.1930 -0.2130
16782W        W33043   2.555  14.163   4.470 -0.1079 -0.0806  0.0035
16783W        W33044  11.895   2.388   1.932 -0.0288 -0.1605 -0.1884
16784W        W33045   9.019   6.838   1.931  0.2235  0.0742 -0.0801
16785W        W33046  10.887  17.108  13.360  0.1800  0.1871 -0.0953
16786W        W33047  17.793   3.881   3.239  0.0408 -0.0413  0.0587
16787W        W33048   1.997  18.478   1.512  0.0659 -0.1103 -0.1727
16788W        W33049  13.028   8.188  13.703 -0.0819 -0.2572 -0.2205
16789W        W33050  10.907  13.020   2.220  0.0006 -0.1267 -0.3281
16790W        W33051  10.524  15.189   0.913  0.3415  0.2082  0.0090
16791W        W33052  14.356   4.943  14.816 -0.1086  0.1237 -0.0700
16792W        W33053  12.004   0.615   4.910  0.0535 -0.2351 -0.0560
16793W        W33054   7.437   4.312   1.970  0.1882 -0.1611  0.1683
16794W        W33055   2.283   4.878   0.319  0.3317  0.2360 -0.0513
16795W        W33056   8.515   3.339   6.592 -0.1031 -0.4793  0.0006
16796W        W33057   5.644  13.962  13.795  0.1922 -0.0333 -0.3411
16797W        W33058   8.952   8.758   4.983  0.4438 -0.3319 -0.0048
16798W        W33059  10.189  10.953  15.977 -0.0450 -0.2220 -0.0061
16799W        W33060  17.791  17.212  14.730 -0.2196  0.0694 -0.0604
16800W        W33061  18.309   0.839   5.115  0.0062 -0.1335 -0.1079
16801W        W33062   8.692  16.928  16.148 -0.0396  0.0507 -0.0934
16802W        W33063   6.863  16.891   4.971  0.2687  0.1957  0.2549
16803W        W33064  17.444  12.584  12.883 -0.1006  0.0876 -0.0673
16804W        W33065  11.455   6.942  11.317 -0.1104 -0.1618  0.0847
16805W        W33066  14.297  14.314  12.541 -0.1068  0.1026  0.0075
16806W        W33067  11.516   1.194   1.482  0.0152 -0.0180 -0.2084
16807W        W33068  15.647   9.672  12.353 -0.2763 -0.0287  0.2488
16808W        W33069   2.033   3.077   4.235  0.1352 -0.1378 -0.0137
16809W        W33070  14.833  16.571  11.153  0.2938 -0.3049  0.1466
16810W        W33071  15.791   2.744  14.685  0.0759 -0.0618 -0.0108
16811W        W33072  18.453  13.819   4.607  0.0013  0.0662  0.0593
16812W        W33073  16.580   2.135   5.408  0.1670  0.1340  0.2166
16813W        W33074   4.628   4.485   2.195  0.2933 -0.1594  0.1797
16814W        W33075  11.695  16.702   3.997  0.0315 -0.1587 -0.0359
16815W        W33076   8.285  13.637   4.668 -0.1404 -0.0856  0.0254
16816W        W33077   8.258   7.683   0.179  0.1890  0.1285 -0.3547
16817W        W33078   4.232   8.701   5.641 -0.0964  0.2919 -0.0556
16818W        W33079  14.789  18.210   2.842 -0.1466 -0.2097  0.1802
16819W        W33080   2.096   7.905   2.960  0.1978 -0.1209 -0.0443
16820W        W33081   9.866  13.494  14.256  0.0088 -0.0518 -0.1144
16821W        W33082  14.815  10.982   5.067 -0.0251 -0.0389 -0.0137
16822W        W33083   4.635   0.903  14.520  0.0286 -0.2836 -0.0252
16823W        W33084  11.690  17.147   4.288 -0.4295  0.2607  0.1081
16824W        W33085  11.622   0.878  14.000  0.0718 -0.1765  0.0631
16825W        W33086   2.544  10.253   5.085  0.1942  0.0173  0.6746
16826W        W33087   4.196   9.927  15.439  0.5375 -0.3140 -0.2776
16827W        W33088   4.937   2.147   2.569  0.0428 -0.0306 -0.4841
16828W        W33089  14.592   7.813  13.279 -0.0805  0.1969 -0.0531
16829W        W33090  14.238   3.154  12.537  0.5043  0.1796 -0.0097
16830W        W33091   0.097  13.907  10.939 -0.0542 -0.0893  0.1962
16831W        W33092  17.164  11.033   0.913 -0.0359 -0.4274 -0.2130
16832W        W33093  18.255   4.080   1.423  0.1085 -0.1158  0.0493
16833W        W33094  14.371   7.538  11.897 -0.0414  0.2456  0.0471
16834W        W33095  10.718   8.612   5.030 -0.0376  0.0393 -0.0592
16835W        W33096  12.580   8.054   2.477 -0.2444 -0.0425 -0.1043
16836W        W33097   2.808   3.344  14.490  0.1062 -0.2407  0.1806
16837W        W33098  18.057   3.457   3.231 -0.1417 -0.2000  0.0850
16838W        W33099  17.299  13.892  11.740 -0.2524 -0.3202  0.1709
16839W        W33100   2.595  16.410   4.118  0.0862  0.1238  0.2314
16840W        W33101  16.239   9.305  15.692 -0.1566 -0.0562  0.1858
16841W        W33102  12.686  18.175   4.255 -0.4006 -0.2302 -0.2246
16842W        W33103  14.285  17.851  15.696  0.1040 -0.3505  0.0397
16843W        W33104  14.153  18.333   0.644  0.2535 -0.6279 -0.0475
16844W        W33105  11.678   8.505  13.291  0.0671  0.0874 -0.0425
16845W        W33106   3.646  15.121  11.872  0.0066 -0.1531 -0.1089
16846W        W33107   3.209   4.323   5.657 -0.3945 -0.0669  0.1538
16847W        W33108   7.486   6.600   1.080 -0.1903 -0.1995 -0.3853
16848W        W33109   3.300   5.306   5.004 -0.0075 -0.0031  0.1957
16849W        W33110   9.851  12.185   0.850 -0.2594  0.2170 -0.0608
16850W        W33111  11.723   4.698  14.818  0.1230 -0.1157  0.1443
16851W        W33112  17.463  10.726  13.970 -0.2031  0.0178 -0.2214
16852W        W33113  17.929   0.642  10.898  0.1306 -0.3387  0.3492
16853W        W33114  13.892   4.024  15.368 -0.2370  0.4063  0.1239
16854W        W33115   4.740   3.018   3.101  0.0046  0.2584 -0.0625
16855W        W33116  15.994   3.594   0.005 -0.2222 -0.1545 -0.2134
16856W        W33117  14.104  14.976  10.257  0.1793 -0.0310  0.1266
16857W        W33118  16.018  14.342  15.980 -0.1929 -0.0115  0.2859
16858W        W33119   3.636   9.332   4.946  0.5761 -0.0180  0.2376
16859W        W33120   2.576  13.221   0.645  0.0995  0.1906 -0.1592
16860W        W33121   8.028  17.653   4.725  0.1626  0.0300 -0.2568
16861W        W33122   0.589   2.323  14.403  0.0357 -0.2376 -0.1137
16862W        W33123   8.971   6.477   5.005  0.1948  0.5450 -0.0750
16863W        W33124   9.192  14.677  15.184 -0.1175 -0.0314  0.2760
16864W        W33125  12.982  10.484  13.163 -0.4409  0.1066 -0.2066
16865W        W33126  16.708  14.969  14.680 -0.2919  0.0541  0.1209
16866W        W33127  12.289  11.269   0.750 -0.0256  0.4499  0.1598
16867W        W33128  11.174   3.369  12.483 -0.3333 -0.0948 -0.1069
16868W        W33129  13.844  11.499  16.102  0.0019  0.2478 -0.1257
16869W        W33130   6.887  11.397   2.776  0.0110 -0.0761 -0.1832
16870W        W33131   2.317  13.789  16.013  0.2188 -0.4050  0.4082
16871W        W33132   1.450  16.035  14.291  0.2054  0.2310 -0.0697
16872W        W33133  13.620  15.145   3.055 -0.3061 -0.2036 -0.3955
16873W        W33134  11.631   0.210  13.148  0.0971 -0.2524 -0.2103
16874W        W33135   8.478  18.098   0.700 -0.2349  0.1649 -0.1793
16875W        W33136  16.800  16.393  14.307  0.1559 -0.2422  0.3557
16876W        W33137   1.750   6.517   0.977 -0.2160  0.0755 -0.0633
16877W        W33138   3.030  15.249   1.901  0.0852  0.2044  0.3088
16878W        W33139  10.198  12.529   5.853  0.1671 -0.1519 -0.2481
16879W        W33140  14.610   6.064   4.144 -0.0930  0.0010  0.0377
16880W        W33141   3.034  11.944   4.516 -0.0159 -0.2475  0.2070
16881W        W33142   4.335   9.647   6.488 -0.1823  0.0444 -0.0581
16882W        W33143  17.088   0.511  11.832 -0.0706 -0.2016  0.1553
16883W        W33144  12.639  12.144  14.090  0.2437  0.0007 -0.1794
16884W        W33145   4.229   6.081  14.738  0.1018 -0.1702 -0.0481
16885W        W33146   7.541   1.855   2.031  0.2748 -0.1762  0.1384
16886W        W33147   7.821  17.348   0.958  0.1345 -0.0313 -0.1694
16887W        W33148   5.359  15.003  12.282  0.1042 -0.2640 -0.1753
16888W        W33149   4.423   0.735   2.885 -0.0555 -0.0275 -0.1786
16889W        W33150  11.298   5.713   2.063 -0.1028 -0.1054  0.0496
16890W        W33151  14.991   4.433  12.489 -0.0152 -0.0907  0.0890
16891W        W33152  11.896   8.571  15.741 -0.0617  0.1088  0.2990
16892W        W33153  12.105  16.711  15.941 -0.2497  0.1156  0.1700
16893W        W33154  11.339   0.427   0.182  0.2035  0.3265 -0.0637
16894W        W33155  16.960   2.904  11.396  0.0185  0.3044 -0.0439
16895W        W33156  13.983  10.227  10.554 -0.1869 -0.2933 -0.0037
16896W        W33157   5.136   1.631  12.974 -0.0303  0.0077  0.1423
16897W        W33158   8.103   3.566   4.250  0.0954 -0.1619  0.0310
16898W        W33159  13.544   0.521  12.650 -0.1122 -0.3210 -0.1412
16899W        W33160   0.334   7.026   3.809  0.1290  0.0396 -0.2366
16900W        W33161   3.676   4.551   2.502 -0.2307  0.2975 -0.0651
16901W        W33162   3.964   4.269   1.644 -0.4190  0.0692 -0.5280
16902W        W33163  10.018   6.129  14.183  0.0341  0.2051  0.1392
16903W        W33164   8.101   0.454   3.202  0.0209 -0.1886  0.0207
16904W        W33165  14.643  15.822  14.386 -0.1572  0.2687 -0.0660
16905W        W33166   6.613  17.478   5.368 -0.1086  0.3197  0.0221
16906W        W33167   5.490   1.825   3.974 -0.1133 -0.3730 -0.0644
16907W        W33168   5.701  10.206  12.411  0.1532  0.3004  0.2251
16908W        W33169   9.624   0.264   1.645  0.0826  0.0286  0.1569
16909W        W33170   7.013  17.144  14.017  0.2107 -0.1281  0.0922
16910W        W33171   6.130   8.938  13.888  0.0121  0.0378 -0.1077
16911W        W33172   3.174   3.132  12.617  0.1352  0.0898 -0.1212
16912W        W33173  17.753  15.418  15.237  0.1112 -0.0312 -0.2660
16913W        W33174  16.458  11.144   4.099 -0.2869 -0.2328  0.0835
16914W        W33175  11.092   2.847   2.896  0.1536 -0.0260 -0.3484
16915W        W33176  13.236  11.750  11.537  0.0195  0.0109 -0.0801
16916W        W33177   6.434  18.418  11.825  0.1125 -0.0574  0.3109
16917W        W33178  16.243  10.022  11.305 -0.2232  0.1116 -0.2240
16918W        W33179  17.173   6.517   0.363 -0.1542  0.0400 -0.0356
16919W        W33180   2.946   5.312   1.179  0.1031  0.1857 -0.2674
16920W        W33181   9.930   0.356   1.282 -0.2524 -0.2926 -0.3053
16921W        W33182  17.315   2.287   3.245 -0.0095 -0.2077  0.2647
16922W        W33183   1.939   5.040  14.539  0.1380 -0.1771 -0.1741
16923W        W33184  10.853   5.246   4.818 -0.3439 -0.1524 -0.2713
16924W        W33185   1.743   4.070   6.359  0.1243 -0.1440  0.3516
16925W        W33186   4.013  10.363   1.590  0.1753  0.0703  0.3436
16926W        W33187  17.427  12.118  12.400 -0.0056  0.1858  0.0814
16927W        W33188   0.357   8.150   4.608  0.2659  0.0134 -0.2186
16928W        W33189   7.081   3.537   5.427 -0.0202  0.1990 -0.2241
16929W        W33190  15.449  17.019  13.940  0.1633  0.0591  0.1282
16930W        W33191  16.698   4.699   1.814 -0.1262 -0.0326  0.1953
16931W        W33192  11.260   1.871   3.827  0.0530  0.1703  0.1312
16932W        W33193  13.781   6.918   1.090 -0.2144  0.1024  0.3194
16933W        W33194   2.967  10.963   4.601 -0.2717 -0.0259  0.3016
16934W        W33195   0.786  17.612  14.685  0.0362  0.0979 -0.1421
16935W        W33196  16.149   3.692   3.719  0.1462 -0.2456 -0.1738
16936W        W33197   6.295   1.437   1.678 -0.0617  0.2025 -0.1296
16937W        W33198   9.970  16.966   4.749  0.4240 -0.1401  0.1327
16938W        W33199   1.765   4.114   4.836  0.0233 -0.0248  0.0797
16939W        W33200  17.713  12.036  15.597 -0.2759  0.0078 -0.3435
16940W        W33201  15.540   0.102   3.519  0.2469 -0.1576 -0.5326
16941W        W33202   1.750   1.395  14.011  0.1246 -0.1247 -0.0281
16942W        W33203  13.176  12.754  11.785 -0.3177  0.0833  0.1822
16943W        W33204  14.238   3.810   2.747  0.3418 -0.1166 -0.1438
16944W        W33205   7.031  18.425   3.322  0.1784  0.0449  0.1131
16945W        W33206  15.937   0.454   2.833 -0.2383  0.1854  0.2925
16946W        W33207  10.886  18.112  11.115 -0.0570  0.0763  0.1066
16947W        W33208   1.799   7.021   1.991  0.0412  0.0621 -0.2180
16948W        W33209   1.595   3.257   3.279  0.0375 -0.3128 -0.0687
16949W        W33210   4.685   4.778  13.496 -0.4377  0.0579  0.4928
16950W        W33211  12.031  10.053   2.593 -0.0937 -0.0279  0.1657
16951W        W33212  10.022   0.993   3.445 -0.1169 -0.2734  0.1564
16952W        W33213  17.581  16.181   0.996  0.2599  0.0260  0.2334
16953W        W33214  15.726   8.347  13.319  0.1462 -0.2410 -0.0149
16954W        W33215   7.387   4.757  13.984 -0.1748 -0.1046 -0.1016
16955W        W33216  16.508  11.898   3.410  0.0677  0.3091  0.2613
16956W        W33217  12.671   3.440  11.694 -0.0812  0.0970  0.1753
16957W        W33218   1.084   6.822   0.197 -0.2613  0.1706 -0.0044
16958W        W33219  15.214   1.214  13.579 -0.1015 -0.2409  0.1366
16959W        W33220  11.851  14.124  15.507  0.0180  0.2056  0.1506
16960W        W33221   3.340   3.973  12.134 -0.2930 -0.3874  0.2400
16961W        W33222  17.701   8.376   4.907 -0.0333 -0.0452  0.0181
16962W        W33223   0.859   1.611   6.259 -0.2005  0.4560  0.0138
16963W        W33224  12.089  10.493   4.054 -0.2222 -0.2261  0.2458
16964W        W33225   9.610   0.863  15.647  0.1691  0.0319  0.1408
16965W        W33226   5.854   4.441   5.400  0.2421 -0.2020 -0.0499
16966W        W33227  12.815   9.135   0.858  0.2777 -0.0408  0.3839
16967W        W33228  13.460   0.107  15.268 -0.1549 -0.1473 -0.0705
16968W        W33229   8.771  15.299  13.982  0.2484 -0.1553 -0.1292
16969W        W33230  14.658   0.050   1.151  0.1618  0.0606  0.1202
16970W        W33231   4.326   0.504   1.061 -0.1803  0.0622  0.1359
16971W        W33232  16.346   6.710  14.802  0.2062  0.2519  0.2582
16972W        W33233  15.593   6.972  11.041  0.1894 -0.1778 -0.0737
16973W        W33234  11.429   7.223   5.421 -0.1673 -0.1566 -0.0965
16974W        W33235   0.567  13.545   1.739 -0.0123 -0.0798 -0.3471
16975W        W33236  15.250   7.937   6.241  0.0911 -0.0535 -0.0269
16976W        W33237  10.114   9.173   0.503 -0.0699 -0.3043 -0.1728
16977W        W33238   9.947   4.962  13.620 -0.2246 -0.1865 -0.0577
16978W        W33239  10.038   9.070   5.816  0.3513  0.0210 -0.1268
16979W        W33240   6.431   6.143  12.028 -0.3465  0.0846 -0.0474
16980W        W33241  10.446   9.530   1.656 -0.0214 -0.2343  0.2509
16981W        W33242   5.302  14.388   5.418 -0.2858 -0.0180  0.0437
16982W        W33243  11.265   5.893   4.670 -0.0294  0.2622 -0.0648
16983W        W33244  16.642  17.540   2.201 -0.0132  0.1439 -0.3689
16984W        W33245  13.198  18.445  10.889 -0.0980 -0.1794 -0.0662
16985W        W33246   4.504   4.702   3.354 -0.2741 -0.3319 -0.4651
16986W        W33247   7.415  16.213   1.978 -0.1448 -0.1454  0.1714
16987W        W33248   6.834   2.346   3.758  0.1771  0.0052 -0.3612
16988W        W33249  17.526  12.748   1.896  0.2767  0.3015  0.1775
16989W        W33250  13.759   1.892   2.623 -0.1590  0.2611  0.3012
16990W        W33251   7.909  15.130  14.334 -0.1033  0.4239  0.4087
16991W        W33252  12.759   1.613   3.449 -0.0362  0.0277 -0.0007
16992W        W33253  12.423   0.200   3.173 -0.2100 -0.2333  0.2157
16993W        W33254  10.625  10.118   2.345  0.1938  0.1481 -0.1122
16994W        W33255  10.265  13.873   2.966 -0.0430  0.1408  0.1347
16995W        W33256  18.347   3.733  15.936  0.1043  0.1023 -0.0256
16996W        W33257  16.475  14.196  14.030  0.1183 -0.2308 -0.0877
16997W        W33258  18.421   2.374  12.464 -0.1856  0.3978  0.0510
16998W        W33259   8.767  13.715   4.550 -0.0551  0.0499  0.0336
16999W        W33260  10.318   9.770   3.018 -0.1372 -0.3620  0.1987
17000W        W33261  15.586   1.924  12.140  0.1760  0.3717  0.1223
17001W        W33262   1.984  10.977   2.314  0.1035 -0.1183  0.0693
17002W        W33263  17.331  10.534  15.263 -0.6655 -0.0024  0.1375
17003W        W33264   0.079  17.135  14.967  0.1125  0.0468  0.1824
17004W        W33265   0.920   9.151  14.525  0.1445 -0.2860 -0.2264
17005W        W33266  17.603  18.455   3.575 -0.1109 -0.1023  0.3849
17006W        W33267  17.890   2.368  12.896  0.1041  0.1538  0.1003
17007W        W33268   2.100  13.340   0.772 -0.3328  0.0501  0.3671
17008W        W33269  10.098  11.460  14.179 -0.0882 -0.1781 -0.1519
17009W        W33270  10.428  12.973  15.991 -0.2591 -0.0987  0.1012
17010W        W33271   8.732   2.329   5.528  0.2451  0.3610  0.0829
17011W        W33272   1.850  12.606  12.640 -0.1819  0.1900  0.6172
17012W        W33273  17.264  13.381  11.899 -0.1151  0.0756 -0.1753
17013W        W33274   6.209  17.509  15.841 -0.0383  0.1481 -0.2225
17014W        W33275   4.317   3.660   5.007  0.1234 -0.0988 -0.0482
17015W        W33276   4.016  16.121   2.161 -0.0101  0.0601 -0.0923
17016W        W33277  17.700   2.771  11.101  0.0816  0.0644 -0.0024
17017W        W33278  17.569   7.746   0.369  0.0003 -0.1409  0.0887
17018W        W33279  11.045   7.393   2.919  0.1532  0.0569 -0.2277
17019W        W33280   6.930  12.746  12.738 -0.0005  0.0036 -0.0353
17020W        W33281   8.801  12.086   1.276  0.2247 -0.0917  0.0092
17021W        W33282  18.409   1.408  15.758  0.0221  0.1444 -0.3110
17022W        W33283   8.231  16.376   0.897 -0.1635 -0.0064 -0.2097
17023W        W33284   3.592   9.455   2.493  0.2610 -0.0643 -0.1639
17024W        W33285  12.505   7.811  11.100 -0.0231  0.1034 -0.0714
17025W        W33286  17.146   9.881   3.100  0.3423  0.1472  0.2631
17026W        W33287  11.709  11.066   4.560  0.0999  0.4944 -0.1017
17027W        W33288   6.825  15.612   0.076 -0.0289  0.0842 -0.0901
17028W        W33289   5.859  12.153   6.073 -0.0953  0.2496  0.1017
17029W        W33290  13.203  10.737   5.018 -0.0520  0.4844  0.1226
17030W        W33291  11.893  10.030  12.923  0.0723 -0.0398 -0.2902
17031W        W33292  18.063   8.925   5.888 -0.0749  0.1555  0.2064
17032W        W33293  11.978  11.092  15.724 -0.2150 -0.0179 -0.0787
17033W        W33294   8.050  18.158   4.775 -0.3144  0.0592  0.0406
17034W        W33295  12.139  15.593  12.459 -0.0095  0.0499  0.1150
17035W        W33296  14.199   4.616   0.158 -0.0010 -0.2977 -0.1226
17036W        W33297   2.658   8.316  14.525  0.1679 -0.2274  0.0729
17037W        W33298   4.720  17.371   3.039 -0.0679 -0.0139 -0.4845
17038W        W33299  16.282   7.545   1.467 -0.0655 -0.1928  0.2575
17039W        W33300   1.518  18.086  14.567 -0.2660  0.1004  0.0084
17040W        W33301  16.312  17.405   0.660 -0.0819  0.0853 -0.2225
17041W        W33302   8.734   1.262   5.977 -0.0512  0.0375  0.4212
17042W        W33303   4.560   9.533   3.817  0.0740 -0.0822  0.0486
17043W        W33304   7.237   3.203   3.551 -0.2420  0.0109  0.0040
17044W        W33305   1.025  16.224  15.599 -0.0906 -0.1568 -0.2628
17045W        W33306  16.728   5.332  15.176 -0.3463  0.0857  0.1490
17046W        W33307   1.961  11.184   5.025  0.3222  0.2116  0.1416
17047W        W33308   5.850   1.547  14.724 -0.0007 -0.1978 -0.0771
17048W        W33309  15.240   2.299  12.029  0.0364 -0.0830  0.0547
17049W        W33310   6.478  10.916   2.902 -0.0087 -0.0811  0.1636
17050W        W33311   4.140  13.609   2.316 -0.3905 -0.0304 -0.2231
17051W        W33312  13.176   3.875  14.615  0.1917 -0.0083 -0.0637
17052W        W33313  13.739   2.044  14.897 -0.3292 -0.0247  0.1494
17053W        W33314   6.832  13.692   5.274 -0.4061 -0.1229 -0.0478
17054W        W33315   5.282   0.226   3.611  0.5351  0.0037 -0.2559
17055W        W33316   2.826  13.791  12.681  0.1189 -0.0623 -0.1262
17056W        W33317   6.404   3.108   2.545 -0.0695  0.2102 -0.2455
17057W        W33318  12.653  18.471   2.144 -0.0220 -0.1835  0.3474
17058W        W33319   9.139  13.854   0.467  0.0389  0.2233  0.2821
17059W        W33320   9.588  14.908   1.318 -0.0844  0.2358  0.0165
17060W        W33321  10.898   3.229   3.192 -0.0333  0.2826 -0.2309
17061W        W33322   8.790   4.881  14.466 -0.3569 -0.0458  0.1671
17062W        W33323  13.908  17.963  12.502  0.0686  0.1329 -0.2179
17063W        W33324   1.667   3.123  13.627  0.0664 -0.1969 -0.0642
17064W        W33325   9.670   1.087  16.171  0.3174 -0.2667 -0.1027
17065W        W33326   2.539   7.124  13.305  0.0867  0.0892  0.1843
17066W        W33327  16.670   4.744  12.583 -0.3873 -0.1198 -0.0552
17067W        W33328   7.189   1.367   0.358  0.1624  0.2143  0.2185
17068W        W33329   2.886   9.531   2.542 -0.1433  0.0404  0.4461
17069W        W33330   6.409  12.088  12.325  0.3547 -0.2651  0.0758
17070W        W33331   2.201  15.713   3.316 -0.0284 -0.2962  0.0424
17071W        W33332  11.578   7.788  11.043  0.3435 -0.2032  0.1110
17072W        W33333  10.074  13.401   2.672 -0.2363  0.1694 -0.0241
17073W        W33334  15.884  12.492  11.654 -0.0408 -0.0350  0.0317
17074W        W33335   0.993   7.783   0.374 -0.0441  0.1963 -0.1149
17075W        W33336   9.681   1.225  13.188  0.1363  0.1067  0.1774
17076W        W33337   1.273   9.276  14.955  0.1126 -0.0878  0.0520
17077W        W33338   8.823   1.617   3.596 -0.2245 -0.1678  0.0058
17078W        W33339   7.855  15.468   0.151 -0.3385 -0.0766 -0.0987
17079W        W33340   1.848   9.958   0.612  0.1569 -0.0746  0.0444
17080W        W33341  10.952  16.976  14.839 -0.0081  0.0937  0.1995
17081W        W33342   6.006   2.987   2.902  0.6364  0.0098 -0.1183
17082W        W33343  15.469  12.978  12.004 -0.1401 -0.1328  0.1174
17083W        W33344   2.086  16.711  10.994 -0.0036  0.3077 -0.2830
17084W        W33345   6.190   2.468   1.829 -0.0999 -0.0647  0.0715
17085W        W33346   6.480  16.949  15.098  0.0364 -0.2429  0.1290
17086W        W33347  17.941   3.159   4.311 -0.1354 -0.3934  0.0702
17087W        W33348  17.349  17.064   2.810  0.0580 -0.0413 -0.0473
17088W        W33349   0.899   0.811   4.364  0.2591  0.0585  0.1722
17089W        W33350   8.559  11.093   4.740  0.5537  0.2252  0.0984
17090W        W33351   3.309  15.046   0.675  0.1188  0.0198 -0.2187
17091W        W33352   0.680   4.037  15.956  0.1240  0.2250  0.4465
17092W        W33353   2.128   0.058  12.377 -0.0504  0.0041 -0.1620
17093W        W33354  12.152  15.460   3.035 -0.1342  0.0212 -0.1426
17094W        W33355  13.111  10.880   3.162 -0.0258 -0.1211 -0.2587
17095W        W33356  13.821  11.023  13.048 -0.0968 -0.1559 -0.1887
17096W        W33357   2.948   3.801  14.633  0.2393  0.1350  0.1088
17097W        W33358  10.535  13.949  13.608  0.0710  0.0176  0.1715
17098W        W33359   8.209  12.431  12.497  0.0297  0.2993 -0.0833
17099W        W33360   0.283  13.049   0.424  0.4866  0.0440  0.1179
17100W        W33361   8.479  13.369  15.190  0.0976  0.2352 -0.4320
17101W        W33362   5.578   5.763   2.177  0.0452 -0.5007 -0.1102
17102W        W33363  14.446  13.216   2.579  0.3492 -0.2092  0.2703
17103W        W33364   2.693  13.841   2.472  0.2039  0.4925  0.3776
17104W        W33365  15.007   9.986  16.139  0.2497 -0.1149 -0.2488
17105W        W33366  17.604   2.790   5.265 -0.0344 -0.0353  0.4076
17106W        W33367  11.442   8.351   3.805 -0.1336  0.3660  0.1298
17107W        W33368   4.478   0.653  15.879 -0.2450  0.0185 -0.0564
17108W        W33369   1.839  10.169  13.658 -0.0379  0.1809  0.2081
17109W        W33370   8.593  12.139  12.463  0.0863 -0.0924  0.3565
17110W        W33371   6.661   5.871   1.802 -0.1938 -0.3075  0.0003
17111W        W33372   8.993   1.855  12.158  0.0327 -0.0331 -0.0022
17112W        W33373   4.284   1.645   2.459  0.0925  0.1082 -0.0600
17113W        W33374   8.353  12.468  15.466  0.1617 -0.0802  0.4777
17114W        W33375   2.056  13.893  11.909  0.0511 -0.1365 -0.1270
17115W        W33376   0.739  16.027  12.501  0.0515  0.2851 -0.0983
17116W        W33377   8.140  12.770   3.342  0.0426  0.2644 -0.0053
17117W        W33378   0.250  10.087   3.205  0.0737 -0.1837  0.1254
17118W        W33379   7.098   2.579   2.266  0.0524  0.2885 -0.1345
17119W        W33380  12.715   2.680   3.592 -0.1459  0.0983  0.0834
17120W        W33381   7.021  18.063   6.502 -0.2162  0.0430  0.0534
17121W        W33382  12.782  10.386   1.588  0.0043 -0.1413 -0.3212
17122W        W33383  11.969  11.961  11.017 -0.1300 -0.0108 -0.0450
17123W        W33384   5.658   2.577  16.021 -0.0161 -0.1720  0.0147
17124W        W33385  17.058   4.089  13.092 -0.0269  0.2234  0.2705
17125W        W33386   7.211  12.338   3.099 -0.1843  0.1683 -0.0591
17126W        W33387   6.448  15.546  15.367  0.0166 -0.0593  0.2086
17127W        W33388  15.163   1.360   3.639  0.1359 -0.0483 -0.0043
17128W        W33389   6.164  17.298  14.570 -0.2331 -0.0897 -0.1697
17129W        W33390   9.743   1.592   2.173 -0.1805  0.1950 -0.1991
17130W        W33391   5.236   7.918   0.748 -0.0571  0.2399  0.0014
17131W        W33392   4.591   1.485  15.656 -0.0504 -0.3910  0.0820
17132W        W33393  10.323  12.251   0.523  0.0552 -0.0465 -0.0410
17133W        W33394   4.179  16.454   2.485 -0.1996 -0.1482  0.1672
17134W        W33395   2.068   1.096   0.636  0.1583 -0.1987 -0.4079
17135W        W33396   0.855   3.842  12.146  0.2255 -0.3072  0.0792
17136W        W33397   5.916   5.784   1.012 -0.0031 -0.0667 -0.2538
17137W        W33398   8.298  17.208   0.443 -0.1121 -0.0689  0.2212
17138W        W33399   9.031   2.403   3.107  0.1940  0.2394 -0.0916
17139W        W33400  10.046   8.899   2.161  0.2002  0.3739 -0.2705
17140W        W33401  13.929   6.678   0.681 -0.0616  0.2948 -0.1492
17141W        W33402   1.115   2.615   0.544  0.0599 -0.1916 -0.0379
17142W        W33403  15.257  14.886   1.287 -0.1574  0.0252 -0.0264
17143W        W33404   0.167  14.810   4.501  0.0854  0.0029  0.0827
17144W        W33405  13.891   8.562  13.199  0.0290  0.2850 -0.0894
17145W        W33406   9.325   8.540  15.807 -0.2234 -0.0137  0.0805
17146W        W33407  16.739  10.512  12.866 -0.4090 -0.0062  0.0262
17147W        W33408  13.351  12.124   9.848 -0.1884 -0.1254 -0.0143
17148W        W33409  11.975  13.991   3.784 -0.0568  0.3948 -0.2491
17149W        W33410   3.925  13.967  13.381 -0.2695  0.0544  0.2101
17150W        W33411   6.207   6.215  15.474  0.1143  0.0451 -0.0893
17151W        W33412   5.723  14.824   1.700 -0.0447  0.1810  0.0246
17152W        W33413   3.032  15.559  15.526  0.2134 -0.2571 -0.0802
17153W        W33414   2.962   4.208   0.089 -0.2155 -0.2909  0.1243
17154W        W33415  10.760  11.231  13.431  0.2703  0.0750 -0.0677
17155W        W33416   0.606   0.530   3.564 -0.1554 -0.2130  0.0866
17156W        W33417   6.871   9.748  14.476  0.1001 -0.1562  0.1430
17157W        W33418   9.189   0.774   3.428 -0.2510  0.2442 -0.2397
17158W        W33419   6.362   6.170   0.464 -0.0482 -0.0409 -0.0037
17159W        W33420   4.524   4.892   4.254 -0.1111  0.0566  0.0384
17160W        W33421  17.475  11.364  11.716 -0.1008  0.2017 -0.1310
17161W        W33422  18.104  16.518   3.889  0.3098 -0.0344  0.2018
17162W        W33423  13.376   0.605   1.774 -0.1083  0.2626 -0.1037
17163W        W33424  16.672   7.450  10.803  0.1014  0.0565  0.1765
17164W        W33425   4.339  16.567   3.031 -0.1117  0.0526  0.1542
17165W        W33426  14.790   3.555  12.506  0.0570  0.1347  0.0197
17166W        W33427   2.625   8.025   2.023 -0.0534 -0.2477  0.2936
17167W        W33428   2.073   0.679   5.198  0.1610  0.0925  0.3979
17168W        W33429   5.072  17.073   6.026  0.3988 -0.1533  0.1548
17169W        W33430  14.496  12.299  11.265 -0.1704 -0.0055 -0.0624
17170W        W33431  18.386  12.385  12.756 -0.2093  0.1739  0.1285
17171W        W33432   1.199  13.166  11.503  0.1571 -0.4118 -0.0682
17172W        W33433  17.172   8.033   1.261 -0.0746  0.2739  0.0781
17173W        W33434  14.658   3.948   0.572 -0.0682 -0.2348 -0.1326
17174W        W33435   9.197  11.406  14.606 -0.0827  0.1892 -0.4168
17175W        W33436  10.801   8.862  14.548  0.2556  0.0530  0.2782
17176W        W33437   0.839   6.991   5.341  0.3461  0.4678 -0.0145
17177W        W33438   9.596   4.694  14.533  0.1880 -0.1845 -0.1272
17178W        W33439   1.967   3.849   3.306 -0.1019 -0.0497 -0.1507
17179W        W33440  11.293   1.293  13.956  0.0598 -0.0272  0.1042
17180W        W33441  10.844  11.358   3.051 -0.0578 -0.0080  0.3257
17181W        W33442   2.676   8.655   1.670 -0.0947  0.0622 -0.0046
17182W        W33443   8.762   9.010  11.894  0.1366  0.0188  0.3973
17183W        W33444   4.440   1.965   3.642  0.2690  0.1747  0.2594
17184W        W33445  11.388  17.434  13.379 -0.1600  0.1731 -0.2042
17185W        W33446   5.289  11.883  14.048 -0.0815  0.0355 -0.1616
17186W        W33447  13.994   7.235   0.738 -0.3091  0.4102 -0.0626
17187W        W33448   3.025  10.997   3.352  0.0855  0.1746 -0.1662
17188W        W33449   9.261  14.840  13.282  0.0621 -0.2197  0.1519
17189W        W33450  13.226   7.553   4.124 -0.0011  0.0396 -0.3947
17190W        W33451   7.650   1.795  13.483 -0.2717  0.1017 -0.0251
17191W        W33452   1.034   7.241  14.888  0.2113 -0.2312  0.1387
17192W        W33453   3.294   2.779   2.232 -0.2840  0.0417 -0.0405
17193W        W33454   6.153   5.914   1.794  0.0513 -0.0064 -0.1795
17194W        W33455   2.148  12.734  13.164 -0.2360  0.2749  0.3317
17195W        W33456  13.200   7.477  10.090  0.2135  0.2054 -0.0313
17196W        W33457   1.541  14.829   0.314 -0.0134  0.2847  0.2446
17197W        W33458   8.985  15.596   1.004  0.2023 -0.2196  0.1659
17198W        W33459   1.042  14.678  13.993 -0.2767 -0.1755 -0.2629
17199W        W33460   7.573   0.966  15.702 -0.0582  0.0163 -0.0700
17200W        W33461   1.640   1.459  15.494  0.1284  0.1100 -0.0311
17201W        W33462   0.175  17.177  12.330  0.3723 -0.2415 -0.0709
17202W        W33463   1.421   5.663  14.891 -0.1098  0.1308  0.2988
17203W        W33464  14.446   9.100  12.074  0.2832  0.0994  0.0110
17204W        W33465   8.061  17.514  13.747 -0.1796  0.0690  0.0204
17205W        W33466  14.985  17.415  11.638 -0.2426 -0.1869 -0.1502
17206W        W33467  10.132  14.286   5.217 -0.1952 -0.2095 -0.0265
17207W        W33468  16.945   6.587  14.453 -0.2200 -0.0304  0.1630
17208W        W33469  16.973   8.511  15.366 -0.0387  0.2679  0.0467
17209W        W33470   2.965  10.076   2.344  0.0385  0.1708  0.0960
17210W        W33471   7.776   7.860  14.272  0.1669  0.1193 -0.1258
17211W        W33472  14.676   7.347  14.481  0.5354  0.2184 -0.2570
17212W        W33473   5.617   6.925   4.693 -0.0697  0.0683  0.2415
17213W        W33474  10.783  18.383  13.581 -0.1209  0.2514 -0.1812
17214W        W33475   0.310   1.560   2.854 -0.1089  0.0777 -0.2622
17215W        W33476   6.376   3.094  13.811  0.1773  0.1499 -0.0725
17216W        W33477   6.318  13.194   1.598 -0.2095 -0.2953 -0.1323
17217W        W33478  14.425  13.556  14.856  0.0345  0.1327 -0.0182
17218W        W33479   0.944   8.276   0.139 -0.0165 -0.1164  0.0232
17219W        W33480   9.037   0.184   1.689  0.0376  0.1228 -0.2054
17220W        W33481   2.720   5.550   1.696  0.0567 -0.2374 -0.0190
17221W        W33482   4.185   5.718  14.291  0.0039 -0.0836 -0.1822
17222W        W33483   5.956   4.893  11.709  0.3749  0.0718  0.1439
17223W        W33484  14.903  16.628   3.123  0.1199  0.3358  0.2204
17224W        W33485  12.443   4.861   2.665  0.1476  0.1974  0.0658
17225W        W33486   7.559  16.570  14.404 -0.1735 -0.1035 -0.2394
17226W        W33487  15.137  11.869   2.546  0.0580 -0.0127 -0.0183
17227W        W33488  10.022   8.131   5.069 -0.1523  0.0325  0.1439
17228W        W33489  12.188  10.699  14.376 -0.0963  0.1533  0.2957
17229W        W33490  10.800   1.635  13.988  0.0731 -0.0724 -0.3727
17230W        W33491  11.425   9.839  15.763 -0.1219  0.3059  0.2313
17231W        W33492   3.540  12.270  12.365 -0.1108 -0.1401 -0.1114
17232W        W33493   9.643  11.199   2.864 -0.1864 -0.0451  0.2239
17233W        W33494   6.881   4.691   3.148 -0.1572  0.0543 -0.0232
17234W        W33495   7.514   5.628   1.730  0.2600 -0.2090 -0.1184
17235W        W33496   0.211  12.083  13.025 -0.0082 -0.0525 -0.1990
17236W        W33497  12.704  13.587   1.180  0.0954  0.0815  0.1779
17237W        W33498   8.008   8.076  14.642 -0.2723  0.2988  0.2362
17238W        W33499   7.123   5.648  13.245 -0.1748  0.1578  0.0775
17239W        W33500  11.843  10.840   2.607 -0.0724 -0.1938  0.1300
17240W        W33501  11.778  16.295   2.849 -0.0159 -0.1240 -0.1418
17241W        W33502  15.552  10.432  13.427 -0.2548 -0.1495 -0.1585
17242W        W33503   7.877  12.296   0.947  0.0777 -0.0564  0.0104
17243W        W33504  16.562   1.703   4.993 -0.2443  0.2484 -0.1018
17244W        W33505   7.308   0.683  11.575  0.0227  0.2482 -0.0156
17245W        W33506  12.329   2.263  15.332 -0.0513  0.2087  0.1176
17246W        W33507  10.019   3.637   3.471  0.0945  0.0689 -0.0108
17247W        W33508  18.279  13.693  13.196  0.2905 -0.2263 -0.0139
17248W        W33509   5.264  14.564   6.275  0.1176  0.2160 -0.1708
17249W        W33510  18.037   4.929   4.368  0.1877 -0.0129 -0.1162
17250W        W33511   3.571  16.495  14.463  0.0081  0.0372 -0.3310
17251W        W33512  14.535  12.845  10.884  0.2158  0.4730  0.1138
17252W        W33513   1.951  11.702  12.676  0.0426 -0.1946  0.1663
17253W        W33514  17.624   3.116   2.706  0.0230  0.3580 -0.4301
17254W        W33515  16.695   4.818  14.527 -0.2066  0.2188  0.4367
17255W        W33516   2.126   6.044  14.510  0.2109 -0.2988  0.6368
17256W        W33517  14.641  11.398  13.339 -0.0752  0.2694  0.1529
17257W        W33518  13.983   3.504  13.513 -0.2871  0.1493 -0.0370
17258W        W33519   5.859  17.555  14.841 -0.1130  0.0254  0.1599
17259W        W33520  12.887  12.106  15.306 -0.1239 -0.1522 -0.3581
17260W        W33521   3.519  16.666   5.914  0.0412 -0.2427 -0.2058
17261W        W33522   5.598  13.663  12.984  0.2618  0.2327  0.0461
17262W        W33523   8.369   0.073  11.495  0.1823  0.1701  0.3560
17263W        W33524   9.401   7.539  13.076 -0.2456 -0.1301 -0.1711
17264W        W33525  16.156   5.578   1.071 -0.0568  0.0239  0.0648
17265W        W33526   4.714  11.788   2.769 -0.2110  0.3686 -0.0585
17266W        W33527   4.312  18.030   0.082  0.0838  0.1737 -0.0598
17267W        W33528  14.704   4.484  11.582  0.1380  0.1881  0.0598
17268W        W33529  16.414  12.293  15.659 -0.0549  0.2213  0.4419
17269W        W33530   2.096   2.859  15.556 -0.0071 -0.0409 -0.1051
17270W        W33531   1.647  16.460   2.357  0.1943  0.1025 -0.1979
17271W        W33532  12.252  14.786  14.742  0.1720 -0.1598 -0.0877
17272W        W33533  10.586   4.916   2.844  0.0025  0.0609 -0.3027
17273W        W33534  11.990   2.846   0.767 -0.1319  0.0957 -0.0742
17274W        W33535   8.633  17.580   1.297  0.2657  0.4660 -0.1764
17275W        W33536  12.993  14.397   3.170  0.1397 -0.2324  0.1218
17276W        W33537   5.758   6.650   4.304 -0.4250  0.0830 -0.3120
17277W        W33538   5.639  17.018  11.979 -0.0891  0.0045 -0.0468
17278W        W33539   7.325   8.100   2.559 -0.2181  0.1010  0.0866
17279W        W33540   0.695  14.594  11.646 -0.0623  0.0738  0.3984
17280W        W33541  11.230   8.934  11.431  0.0564  0.2120  0.0619
17281W        W33542   0.257  10.351  11.794 -0.2961  0.1746 -0.1205
17282W        W33543  10.276   3.243  15.682 -0.0137 -0.0675 -0.2338
17283W        W33544   6.962  18.334  13.948  0.0254 -0.0746  0.1304
17284W        W33545  13.634   4.968   2.481 -0.2687  0.0478  0.0793
17285W        W33546   0.839   7.967  15.814  0.1398  0.0540 -0.0748
17286W        W33547   4.182   1.309   3.851 -0.1468 -0.1012 -0.2189
17287W        W33548  13.130   3.295  13.527 -0.2064 -0.1787 -0.0725
17288W        W33549  11.497   9.243   2.867  0.1599 -0.0208 -0.3081
17289W        W33550  14.377  11.460  14.423  0.2034 -0.1868 -0.1894
17290W        W33551   8.516  13.339  13.860  0.2453  0.1673 -0.3613
17291W        W33552   1.653  16.787  14.287 -0.2014  0.0578 -0.2862
17292W        W33553  14.318   3.679  11.537 -0.1338  0.1396 -0.1274
17293W        W33554   4.244  17.660   3.674 -0.2035  0.1928 -0.1786
17294W        W33555   1.634  10.536   0.968 -0.4721  0.1364  0.2588
17295W        W33556   4.917   7.740  15.623 -0.0374 -0.2314 -0.0578
17296W        W33557  14.709   9.861  15.719  0.1132 -0.1461  0.1224
17297W        W33558  10.926  14.261  15.467  0.1687  0.1843 -0.0139
17298W        W33559  16.254   2.432  15.390 -0.1957  0.0730  0.0704
17299W        W33560  16.652   2.510  11.609  0.2033 -0.2315 -0.1816
17300W        W33561  13.830   2.396  11.434 -0.0576 -0.0032 -0.0966
17301W        W33562   3.329  14.559   0.509  0.2979  0.0357 -0.0326
17302W        W33563   3.339   3.243  15.055 -0.0293 -0.0993  0.0745
17303W        W33564  13.957   1.140   2.233 -0.0212  0.1657  0.3947
17304W        W33565   2.812   6.829   2.749 -0.0040  0.0225 -0.1251
17305W        W33566  12.762   4.391   4.943  0.0313  0.1825 -0.1557
17306W        W33567  17.951   6.061   0.530 -0.1522  0.3994  0.1319
17307W        W33568   7.199  16.341  15.267  0.1020  0.1939  0.0928
17308W        W33569  17.464   1.295   4.749 -0.2816 -0.1378  0.3915
17309W        W33570   2.475  15.320   4.289  0.0511  0.1454  0.1593
17310W        W33571  10.010   8.899   0.061 -0.1595 -0.0201  0.1502
17311W        W33572   1.545  18.452   1.266  0.2836 -0.3161  0.0617
17312W        W33573   0.745   3.579   1.582  0.0426 -0.0203 -0.1591
17313W        W33574   8.363   8.466  15.339 -0.0405 -0.4430  0.0522
17314W        W33575  10.304   0.782  14.777  0.0671  0.1091 -0.5373
17315W        W33576   6.880  16.139  14.828  0.1661  0.3584 -0.0112
17316W        W33577  14.334   9.092   4.352 -0.4867  0.3140  0.1488
17317W        W33578  14.892  17.727   0.619 -0.0727 -0.0233 -0.2030
17318W        W33579  11.050   8.988   4.309 -0.1659  0.1292 -0.0033
17319W        W33580  12.137   9.719   4.607 -0.2998 -0.4548 -0.3495
17320W        W33581   7.219   4.041   3.960 -0.0798  0.0734 -0.1397
17321W        W33582   0.699   1.979  13.624  0.2636 -0.3496 -0.3497
17322W        W33583  12.198   0.849  14.404 -0.1219 -0.0296  0.1769
17323W        W33584   4.751  16.538   4.780 -0.0266  0.0006 -0.1094
17324W        W33585  17.011   3.396   3.296  0.2370 -0.3790  0.2394
17325W        W33586  17.546  15.831  14.008 -0.0836 -0.1932 -0.3848
17326W        W33587  17.747   4.609   1.567 -0.2012  0.2506 -0.0997
17327W        W33588  14.793   1.965  12.717 -0.0192  0.1713 -0.1758
17328W        W33589   1.105   3.771   4.628  0.2962 -0.1387 -0.1343
17329W        W33590   3.090   0.436   1.554  0.0555  0.1233 -0.2527
17330W        W33591  17.740   3.658   4.172 -0.0375  0.4167  0.0027
17331W        W33592  10.227   0.358  16.053  0.1130 -0.0993 -0.0442
17332W        W33593   0.514   0.714  14.438  0.1116  0.0906 -0.1703
17333W        W33594   6.866  15.679   4.856 -0.4048  0.1012  0.1704
17334W        W33595  12.896   4.606   2.565 -0.1070  0.1103  0.0028
17335W        W33596   8.498  15.270   3.472  0.0770 -0.0454  0.1461
17336W        W33597  11.709  10.488  13.734  0.0649  0.2674  0.3010
17337W        W33598  15.552   0.924  10.531 -0.0664 -0.0065 -0.0166
17338W        W33599  13.108   7.433   1.831  0.1641 -0.1660  0.1273
17339W        W33600   4.860  16.847   0.649  0.0019 -0.3151  0.3141
17340W        W33601  15.855  17.627   0.858  0.1943  0.0475  0.0410
17341W        W33602   4.695  14.176  11.657  0.0184 -0.3486  0.1153
17342W        W33603   8.111   1.311   2.536  0.1234  0.0667  0.0077
17343W        W33604  17.777   2.409   4.840  0.0212  0.2720 -0.0633
17344W        W33605  12.053   4.912  15.331 -0.0087  0.2105  0.2164
17345W        W33606  10.844  14.878   1.868  0.1683  0.1224 -0.0173
17346W        W33607   6.802  17.257  15.335 -0.0993 -0.1286 -0.0413
17347W        W33608  11.278  18.135   1.699  0.3230  0.0444  0.0779
17348W        W33609  11.168  15.851  14.218 -0.1322 -0.0780 -0.1588
17349W        W33610   6.631  18.343  15.352  0.4840  0.2159  0.1382
17350W        W33611  16.879   1.966  13.043  0.1063 -0.1778  0.0851
17351W        W33612  12.494  10.122   5.012  0.0827 -0.2897  0.1397
17352W        W33613   6.682  12.738  11.583 -0.1312 -0.1165  0.2405
17353W        W33614  10.542  17.608   0.042 -0.2428  0.1698  0.1403
17354W        W33615  16.958   5.407   4.875 -0.2694  0.6183 -0.4679
17355W        W33616   9.496  10.036   2.574  0.0669  0.0535  0.2470
17356W        W33617   6.128  11.177   6.189 -0.3196 -0.1485  0.0165
17357W        W33618   6.546  11.645  13.314 -0.1692  0.4115 -0.0458
17358W        W33619   3.211  11.974   5.001  0.0210 -0.2723  0.2162
17359W        W33620   8.888   3.676   1.476 -0.2986  0.0607 -0.3004
17360W        W33621   1.334   8.428  12.542  0.0985  0.0548  0.0607
17361W        W33622   2.712   3.211   2.522 -0.0448 -0.0291  0.2378
17362W        W33623  10.744   2.163  12.107  0.3106  0.1519 -0.0824
17363W        W33624  11.000   7.820  13.105 -0.1355 -0.3147  0.0084
17364W        W33625  14.519   8.917  13.770 -0.0984 -0.0567 -0.3817
17365W        W33626   2.841  13.531  14.838  0.0643 -0.1571  0.0919
17366W        W33627   2.176   1.033  12.914  0.1265  0.0412  0.1823
17367W        W33628  18.438   1.129  14.334 -0.1233 -0.0142 -0.1923
17368W        W33629   6.251  11.015   0.029  0.0158  0.0296  0.0010
17369W        W33630   7.547   1.238   4.492  0.0201 -0.1876 -0.0363
17370W        W33631   9.993   8.296   0.950 -0.0672  0.2039  0.1435
17371W        W33632  17.794  18.166  12.270  0.2771 -0.1716  0.0971
17372W        W33633  15.866  10.787  12.327 -0.0706  0.1906  0.0157
17373W        W33634  15.021   4.720  11.343  0.1314  0.0012  0.1231
17374W        W33635   4.722   2.747   4.806  0.0047  0.1589  0.1752
17375W        W33636  14.999  13.377   1.354 -0.1761 -0.3379 -0.1136
17376W        W33637   8.109  11.232   5.840 -0.0489  0.0019  0.0462
17377W        W33638   3.682  18.116  13.450  0.1178 -0.2984  0.0030
17378W        W33639  18.306  15.632   1.542  0.0410  0.2266  0.3160
17379W        W33640  14.647   1.209  13.444 -0.2394  0.0353  0.0118
17380W        W33641  18.257   8.181   3.870 -0.1493  0.0324 -0.0077
17381W        W33642   2.307  17.796  15.144 -0.0257 -0.2595  0.1662
17382W        W33643  10.667  14.618   2.475  0.0697 -0.1140 -0.1017
17383W        W33644  11.263   3.972  14.275  0.1162  0.2235 -0.1982
17384W        W33645  16.041   0.930   0.389 -0.0160  0.3259  0.0950
17385W        W33646   1.528  16.931   2.424 -0.0434 -0.1983  0.1620
17386W        W33647   0.879   5.223   0.955 -0.3842 -0.3545  0.0820
17387W        W33648   2.367  15.217   3.159  0.0062  0.0762  0.0385
17388W        W33649   0.271   6.618  13.877  0.0722 -0.2208  0.0374
17389W        W33650  13.429  11.400  15.238 -0.0969 -0.0710 -0.0838
17390W        W33651  10.919   5.108   2.510  0.0262 -0.0518  0.0011
17391W        W33652   2.252   5.719  16.044 -0.1281  0.0183  0.3531
17392W        W33653   6.210   6.988   3.918  0.2036  0.0197  0.2201
17393W        W33654  15.402   7.066  15.132  0.0134  0.0036  0.2908
17394W        W33655  12.669  12.568  11.832  0.0383  0.1198  0.0229
17395W        W33656  15.941  15.880   3.113  0.1678 -0.0992  0.0066
17396W        W33657   4.365  13.717  14.961 -0.0029  0.0409 -0.0817
17397W        W33658  12.929  15.293   4.172  0.1309 -0.1472 -0.0469
17398W        W33659  17.307  10.278   4.024  0.0002  0.0850 -0.0780
17399W        W33660  13.149  17.606   3.008  0.3029  0.1638 -0.2210
17400W        W33661   5.845   5.876  13.106  0.3221 -0.2754 -0.1377
17401W        W33662  12.158   3.867  14.762 -0.0013 -0.0776  0.2255
17402W        W33663  15.718  16.539  12.822 -0.1322 -0.2014  0.2440
17403W        W33664   2.736  16.030   3.648  0.0464  0.1426  0.2878
17404W        W33665  12.153   3.088   4.658 -0.3338  0.0820  0.0521
17405W        W33666   6.175  16.701  14.492  0.3977 -0.1828  0.2868
17406W        W33667   4.045  10.529  12.400  0.3052  0.1678 -0.0128
17407W        W33668   1.099  11.775   4.856 -0.1219  0.0293 -0.0622
17408W        W33669   8.825   6.492   1.154  0.0024  0.0787 -0.1082
17409W        W33670   3.900  11.397   3.922 -0.1803 -0.0052  0.0250
17410W        W33671   1.081   7.715   2.591 -0.1916  0.2693 -0.1478
17411W        W33672   9.883   8.736   3.036 -0.0666 -0.1283  0.0511
17412W        W33673  16.370   4.211   1.015  0.1912 -0.2563 -0.0648
17413W        W33674   1.784   3.032   2.173 -0.0987 -0.3312  0.1070
17414W        W33675   9.694   5.590   3.116 -0.1041  0.0028 -0.0284
17415W        W33676  10.036  16.491   4.697 -0.2057 -0.1822 -0.0969
17416W        W33677   8.740   7.693  15.123 -0.1272  0.1669  0.0553
17417W        W33678  13.461   4.663  14.094 -0.2459 -0.2804 -0.1073
17418W        W33679   9.095  17.475  12.686  0.2106  0.0498 -0.0768
17419W        W33680   5.932   1.417   3.868  0.0454 -0.2880  0.2435
17420W        W33681   4.038   8.103  12.851 -0.1133  0.1124 -0.0906
17421W        W33682  10.749   0.326   2.898  0.0634  0.0977 -0.0349
17422W        W33683  13.995  14.996   0.668 -0.2501 -0.1214 -0.3487
17423W        W33684   4.473   3.078  12.739 -0.2041  0.0926  0.2126
17424W        W33685  18.322   3.311   3.953 -0.0544  0.1192 -0.0821
17425W        W33686   7.441  18.052  12.432 -0.0386 -0.0257 -0.0587
17426W        W33687   2.352   2.026  14.264  0.1611  0.0087  0.0075
17427W        W33688  12.791   4.845   6.039 -0.2179  0.0317 -0.0728
17428W        W33689   9.473   6.719   2.403 -0.0449 -0.1319  0.0136
17429W        W33690   2.310   2.323   5.128 -0.1630  0.1428 -0.2496
17430W        W33691   8.772   8.643   5.406  0.0753 -0.2534  0.0462
17431W        W33692  12.472   9.085   2.887  0.0537 -0.0731  0.1381
17432W        W33693   5.583   3.389   2.071  0.0095  0.0350 -0.0336
17433W        W33694   4.815   2.094   5.251 -0.1333 -0.2441 -0.0404
17434W        W33695  10.189  14.121   4.300  0.1004 -0.0695  0.2362
17435W        W33696  11.645   0.136   3.516 -0.0527  0.0248  0.0745
17436W        W33697   4.130  12.202  14.159  0.1221  0.1041  0.0347
17437W        W33698  15.911   3.308  11.506 -0.1010  0.3381  0.2542
17438W        W33699   4.521   3.290   3.468 -0.1523 -0.2973 -0.2562
17439W        W33700   2.196   7.427  13.547 -0.3460 -0.2454  0.1393
17440W        W33701  16.916   1.973  12.264 -0.0973  0.4192 -0.1763
17441W        W33702   0.520  18.113   5.695  0.1131 -0.0446  0.2942
17442W        W33703   4.861   7.260  14.303 -0.3022 -0.0474  0.0139
17443W        W33704  15.537  12.045   1.660 -0.1279  0.0580  0.1579
17444W        W33705   0.602  16.425  15.410 -0.0253  0.0191  0.2592
17445W        W33706   6.069   7.707   5.258 -0.2897  0.1346 -0.1332
17446W        W33707   4.449   2.021   2.714 -0.0944  0.0302 -0.1184
17447W        W33708   9.994  13.748   0.629  0.5423 -0.5290 -0.2907
17448W        W33709  12.252   5.022  12.055 -0.0510  0.2531 -0.1631
17449W        W33710   4.961  13.116  12.755 -0.3092 -0.1884 -0.1922
17450W        W33711   4.878   2.154  12.708 -0.1030 -0.2255 -0.2453
17451W        W33712   1.336   5.865   0.121 -0.0200  0.0084  0.1419
17452W        W33713   7.884   8.870   2.848 -0.1420 -0.1854 -0.0348
17453W        W33714   3.226   3.197  10.511  0.1992 -0.2680  0.1250
17454W        W33715  14.308  17.483  13.905 -0.0369  0.0712  0.3013
17455W        W33716  12.488   6.070  15.137  0.2144 -0.2047  0.1661
17456W        W33717   9.250   0.294   4.159  0.3030 -0.1681  0.0618
17457W        W33718  16.768   6.836  15.646 -0.2424 -0.1596  0.4013
17458W        W33719  15.260  13.448   2.203 -0.0936 -0.1181  0.1214
17459W        W33720  17.299   0.262  13.512 -0.0133 -0.1161 -0.3962
17460W        W33721   2.524  11.583  12.788 -0.2808 -0.0029  0.0227
17461W        W33722  16.160   2.417  14.867 -0.2920 -0.0993  0.1651
17462W        W33723   0.654   2.101   1.173 -0.1056  0.1627 -0.1223
17463W        W33724  10.272  18.161  12.771 -0.0356 -0.2012 -0.2668
17464W        W33725   9.911   6.384   5.686 -0.0009  0.3546 -0.1547
17465W        W33726  16.563   1.048  15.795  0.2227  0.2478  0.3220
17466W        W33727   8.102  15.313   2.025 -0.0370 -0.0527  0.2870
17467W        W33728   3.962  13.069   3.064  0.0830  0.0693 -0.0127
17468W        W33729  10.548   7.332  12.300  0.3161 -0.1442 -0.0249
17469W        W33730   2.367   9.090   4.840  0.3938  0.0768  0.1675
17470W        W33731   9.540  17.611   2.003  0.0461  0.1406  0.2493
17471W        W33732   4.661  11.180  11.359 -0.0070 -0.2598  0.0285
17472W        W33733  13.036  15.259  10.740 -0.0837 -0.0529 -0.0821
17473W        W33734   1.244   1.010  13.281  0.1957 -0.0490  0.1545
17474W        W33735   5.441   4.588  12.587  0.2953 -0.0060  0.0375
17475W        W33736   5.707  10.177   1.112 -0.0958  0.0404  0.2275
17476W        W33737  18.057   2.710   5.079 -0.1454 -0.1725  0.0965
17477W        W33738   2.704  11.020   0.186  0.0598  0.1375  0.1119
17478W        W33739  18.355  13.220   4.673  0.1295 -0.3580 -0.0509
17479W        W33740  12.535  16.210  11.398  0.0378 -0.3510 -0.1319
17480W        W33741  14.539   5.116   2.411 -0.1282  0.2816  0.1248
17481W        W33742   6.008  14.785   3.767 -0.0998 -0.1560  0.1855
17482W        W33743  11.411  14.016  13.020 -0.0241 -0.0486 -0.1209
17483W        W33744   0.251  14.372  10.806 -0.0772 -0.1417 -0.0466
17484W        W33745  17.128  15.997  12.071  0.0640  0.0580  0.0088
17485W        W33746  11.212   3.928  12.520  0.1310 -0.0690 -0.1080
17486W        W33747   9.483  11.746  11.666 -0.4778 -0.0878 -0.2081
17487W        W33748   8.140  15.578   4.160 -0.0504 -0.0802  0.1305
17488W        W33749   4.163  17.348   1.236  0.1177 -0.0252 -0.1155
17489W        W33750  17.127  10.725   5.178 -0.1380  0.0735  0.1396
17490W        W33751  15.772   4.822  10.145  0.1395  0.1973 -0.2790
17491W        W33752   4.387   4.774  13.870 -0.1865 -0.1096 -0.2321
17492W        W33753   7.561   0.487  12.114  0.0726  0.1432  0.0880
17493W        W33754   9.179   0.319   2.531 -0.1013 -0.0363  0.1265
17494W        W33755   9.053   1.767  14.579 -0.0398  0.0617  0.1755
17495W        W33756  10.315   6.803  13.679 -0.1393  0.0406 -0.1922
17496W        W33757  17.182   9.426  13.421  0.0699 -0.3435  0.2150
17497W        W33758   1.224   9.522   1.911 -0.1017 -0.0910 -0.0666
17498W        W33759   1.792   5.987  15.875  0.0539  0.1197  0.1750
17499W        W33760   9.599  11.355   1.863 -0.2491  0.0076 -0.0570
17500W        W33761   2.758   0.451  11.808  0.1052  0.3915 -0.3289
17501W        W33762  11.729  13.640  12.936 -0.1584  0.1171 -0.1579
17502W        W33763  12.958   3.717   1.313  0.2132 -0.3167 -0.3958
17503W        W33764   1.068   8.633   2.919  0.0760  0.0711  0.2349
17504W        W33765  10.811  12.343  11.945  0.0048 -0.0024 -0.0274
17505W        W33766  11.354  17.561   4.677 -0.2336 -0.1007  0.0636
17506W        W33767   4.226  17.841  15.810 -0.0902  0.2974 -0.0946
17507W        W33768  11.757  14.043   1.951 -0.2226 -0.0333  0.0644
17508W        W33769   2.402  14.012   3.256  0.0253  0.1405  0.1937
17509W        W33770   4.418   7.030   3.477 -0.0955 -0.0905  0.2678
17510W        W33771  15.036   0.378  13.078  0.4293  0.1853 -0.3193
17511W        W33772   3.466  15.644   5.629 -0.0592 -0.0434  0.0813
17512W        W33773   7.449   3.036  11.738 -0.0055  0.0345  0.1750
17513W        W33774   7.847  16.592  13.945 -0.1936  0.1436 -0.0307
17514W        W33775  17.939  12.591  12.962 -0.2777 -0.2096 -0.1048
17515W        W33776   9.924  13.509  11.803 -0.3239  0.0447  0.1143
17516W        W33777   1.280  13.506   3.985  0.0718  0.3399 -0.0109
17517W        W33778   9.978  13.811   2.021 -0.0541  0.0625  0.1929
17518W        W33779   7.782   9.802  12.904 -0.0775  0.1340  0.1398
17519W        W33780  15.421  14.084   2.873 -0.0298  0.1469  0.2311
17520W        W33781  10.482   1.295  11.289  0.2120 -0.1774 -0.0722
17521W        W33782   5.715  11.005  12.067  0.2387 -0.2306  0.0028
17522W        W33783  13.569   7.186   3.958 -0.0865  0.0680  0.2370
17523W        W33784   6.290  13.494  12.183 -0.0639 -0.1200 -0.2254
17524W        W33785  11.755  11.876  12.489  0.0559 -0.1033 -0.1316
17525W        W33786  13.534  12.675  14.144  0.0711  0.0972  0.2958
17526W        W33787   4.184  11.727   4.330  0.2083 -0.1312  0.1930
17527W        W33788  12.467   9.546   4.130 -0.2584  0.4397  0.0956
17528W        W33789   1.764   9.812  12.144 -0.1314  0.3438 -0.0299
17529W        W33790  13.085  16.973  12.841 -0.2956 -0.1658 -0.1029
17530W        W33791  10.201  10.478   1.383 -0.3379  0.0193  0.3559
17531W        W33792  15.674  15.940   1.626 -0.1268  0.3741  0.0421
17532W        W33793  13.951   3.963  14.304 -0.1265 -0.1217 -0.0416
17533W        W33794  14.805   3.324  16.152 -0.0157 -0.4216  0.0263
17534W        W33795   3.683   2.923   2.566  0.0845 -0.2636  0.0873
17535W        W33796   2.646   7.961   0.403 -0.2414  0.0532  0.1947
17536W        W33797   3.059  17.389  14.549  0.0400 -0.2827 -0.1495
17537W        W33798   9.855   4.593  14.955  0.1311 -0.1128 -0.3136
17538W        W33799  11.001   2.284   1.191 -0.3952 -0.1178  0.0629
17539W        W33800   9.930  18.212  10.796 -0.0045  0.1387  0.0743
17540W        W33801  17.557   4.002  12.874  0.1006  0.2394 -0.0419
17541W        W33802   5.857  12.752   0.430  0.0485 -0.0098  0.1243
17542W        W33803   1.480   2.011   3.056  0.1009  0.2521  0.1023
17543W        W33804  10.837   4.266   1.126 -0.0803  0.3080  0.1106
17544W        W33805  13.059   5.150   3.343  0.2484 -0.0081 -0.1434
17545W        W33806  12.174   0.103   2.300 -0.2288  0.1069 -0.0842
17546W        W33807  11.196  17.238   5.063  0.0921 -0.4120  0.0478
17547W        W33808  15.950   7.647   4.341  0.1301  0.3116 -0.1884
17548W        W33809   3.001   4.823  12.105 -0.1586  0.0136  0.2389
17549W        W33810   8.286  16.119   4.415  0.0192  0.1034 -0.0864
17550W        W33811   2.094   1.828  13.848 -0.2447 -0.0706 -0.3148
17551W        W33812  17.889   6.171  11.585 -0.1963  0.1425  0.2712
17552W        W33813  12.878   5.948  11.618  0.1211 -0.1224  0.0054
17553W        W33814   5.159  10.605   0.777 -0.0752 -0.2368 -0.0544
17554W        W33815   1.095   8.331   3.772  0.2246  0.2104 -0.3070
17555W        W33816  10.284  13.176  11.573  0.2285 -0.1910  0.0253
17556W        W33817   8.303  11.958   0.065 -0.0967  0.1025 -0.1441
17557W        W33818  11.863   6.781   1.403  0.2523 -0.0033 -0.0029
17558W        W33819  12.603  17.162   2.026 -0.0525  0.1106  0.0787
17559W        W33820  13.380   2.286   4.333 -0.1017 -0.1904 -0.0348
17560W        W33821   8.220   5.300   3.993  0.1367 -0.0261 -0.0352
17561W        W33822  14.795   9.699   4.447  0.0457  0.0335  0.1935
17562W        W33823   7.734  11.204  16.149 -0.0188 -0.2213 -0.2591
17563W        W33824   4.235  11.524  11.445  0.0272  0.0124  0.1654
17564W        W33825  13.243   3.136   5.382 -0.2130 -0.0322  0.0041
17565W        W33826  15.406  11.065   0.577  0.1048 -0.0459  0.0446
17566W        W33827   5.217  11.952   2.541 -0.0834  0.1234  0.3316
17567W        W33828  17.696  14.182  15.531  0.2123  0.2513  0.0323
17568W        W33829   7.108   9.538   2.587 -0.0911 -0.0280 -0.1020
17569W        W33830  16.962   4.008   3.313  0.1519  0.1176 -0.1240
17570W        W33831  17.792  10.140   1.112 -0.2771 -0.0165 -0.2104
17571W        W33832   2.161  14.779  13.228  0.2172  0.0682  0.1439
17572W        W33833   0.371  12.782   4.077 -0.1045  0.0010 -0.2926
17573W        W33834   8.575  10.240  11.786  0.2590 -0.0569 -0.1930
17574W        W33835   3.438   6.363  11.529 -0.0851 -0.1083 -0.2014
17575W        W33836   7.966   1.703   2.252 -0.0362  0.1346 -0.0642
17576W        W33837   7.908  16.928   0.551  0.0352 -0.0457 -0.0012
17577W        W33838   9.500  14.313  14.416 -0.0534  0.3387  0.0828
17578W        W33839   3.332  15.716  13.463  0.3793  0.2151  0.0754
17579W        W33840   2.957   8.208   5.650  0.0185 -0.5199  0.1874
17580W        W33841   0.936  17.055   1.537  0.0115  0.2375  0.0063
17581W        W33842   4.383  12.389   0.533  0.0160 -0.2768  0.0713
17582W        W33843  14.346   2.583  15.169 -0.0548  0.1329 -0.1429
17583W        W33844   5.582   4.276  12.229  0.0052  0.0354 -0.0948
17584W        W33845   1.566  17.142  10.535 -0.0443 -0.0750  0.3095
17585W        W33846   9.096   5.671  13.431 -0.0579  0.0010 -0.1363
17586W        W33847   9.580   3.612   2.287  0.2375 -0.3044 -0.2038
17587W        W33848  13.363  10.356  15.429  0.0191  0.0083  0.1825
17588W        W33849  12.183   5.961   4.834 -0.0830 -0.1369  0.1111
17589W        W33850  16.042  10.466  11.009 -0.1767 -0.2985 -0.0982
17590W        W33851   0.128  17.237  15.500 -0.1258  0.0186  0.4122
17591W        W33852  18.180   9.478   5.968  0.0169  0.0957  0.0336
17592W        W33853   1.414   6.340  16.006 -0.0435 -0.1687  0.3323
17593W        W33854   9.961   6.400  14.622  0.1817 -0.1994  0.0756
17594W        W33855  12.458  13.947  14.343 -0.0365 -0.1785 -0.0167
17595W        W33856   4.372  17.043  13.774  0.1406  0.0640  0.0884
17596W        W33857  13.498  13.020   1.453  0.2432 -0.2591 -0.2378
17597W        W33858   6.460  17.970  15.939  0.0389 -0.0017  0.0029
17598W        W33859   1.833  10.408   2.117  0.1367  0.2411 -0.0545
17599W        W33860   9.203   9.880   1.452  0.1546 -0.1006  0.0826
17600W        W33861   7.370  12.236  11.622 -0.1639 -0.2901 -0.0546
17601W        W33862  16.138   0.679  16.122 -0.1110  0.2037  0.1148
17602W        W33863   9.129   3.308   0.619 -0.3888  0.1350 -0.0499
17603W        W33864  16.516   9.755  12.025 -0.4107  0.1078 -0.0924
17604W        W33865  13.358   0.970   4.163  0.1690  0.3426  0.0122
17605W        W33866   2.785   8.905   2.426 -0.2995  0.1365 -0.2130
17606W        W33867  12.725   1.839   0.293 -0.1159  0.3447 -0.2530
17607W        W33868   9.788  14.269   2.556  0.0152 -0.1793  0.0237
17608W        W33869  17.490  18.350   4.131 -0.1985 -0.1124 -0.3195
17609W        W33870  14.903  18.333  11.296  0.1063 -0.1039  0.2264
17610W        W33871   6.902   4.388   3.953  0.0250 -0.1305  0.0791
17611W        W33872  12.687   9.995   2.532 -0.0474 -0.0864 -0.0214
17612W        W33873  15.402   9.233  16.079 -0.0095  0.0808  0.0997
17613W        W33874  10.236  17.706  13.136  0.1346  0.3619 -0.1585
17614W        W33875  10.375   9.953  12.560 -0.1309  0.1750 -0.2364
17615W        W33876   6.284  15.168   4.488  0.0192 -0.2243  0.3076
17616W        W33877  18.190  14.616   4.363 -0.0361  0.0575  0.0181
17617W        W33878   2.255   3.155   0.122 -0.1004  0.0367 -0.0853
17618W        W33879   1.330   9.770   1.505 -0.2472  0.0081  0.2726
17619W        W33880   2.682  17.780   4.938  0.2030  0.1088 -0.0801
17620W        W33881   5.588   1.273  13.605  0.0828 -0.3924 -0.1140
17621W        W33882   5.523   3.686  15.346  0.1226  0.2672  0.0567
17622W        W33883  16.004   5.991  12.222 -0.1446  0.1602 -0.0060
17623W        W33884  17.926  12.595   0.497  0.1554 -0.2478  0.2376
17624W        W33885  11.514  12.268   4.768  0.0521  0.5248  0.0308
17625W        W33886   8.778   0.006   4.480  0.0972 -0.2341 -0.0222
17626W        W33887   5.364   2.048   5.249  0.0058  0.0031 -0.1867
17627W        W33888   2.895   5.159   4.222 -0.2374  0.0951 -0.0968
17628W        W33889   8.189   6.470   2.228 -0.0501 -0.1665 -0.1084
17629W        W33890  17.132   1.162  14.448 -0.0941  0.1053 -0.2864
17630W        W33891   6.253   7.762  13.725 -0.1140  0.2201 -0.1330
17631W        W33892   9.758   3.628  14.524  0.0144 -0.1248  0.0636
17632W        W33893   9.140  14.667   0.492 -0.1241  0.2671 -0.2583
17633W        W33894  11.934  11.466   1.017  0.0966 -0.1348  0.3797
17634W        W33895   0.042  15.793   0.189 -0.0612  0.1038 -0.0972
17635W        W33896  12.107  16.506   0.970 -0.2791 -0.0765 -0.2559
17636W        W33897  12.141   5.006   4.473  0.0303 -0.1036  0.2004
17637W        W33898   4.873   7.488   1.016  0.1685 -0.0307  0.0450
17638W        W33899  16.679   2.745   3.085 -0.0385  0.0559 -0.0242
17639W        W33900   2.460  16.532  15.774  0.3233  0.3891 -0.3008
17640W        W33901   6.369  16.517   4.980  0.2005 -0.1094 -0.1365
17641W        W33902  17.395  10.610   0.083 -0.1223 -0.0040  0.2648
17642W        W33903   7.398  13.274   1.805 -0.0922 -0.3281  0.2307
17643W        W33904  11.823   9.228   5.398  0.1733 -0.1367 -0.1024
17644W        W33905   2.434   3.213   1.490 -0.1830  0.0016  0.0463
17645W        W33906   6.698   2.396  11.435 -0.1910 -0.2255 -0.0337
17646W        W33907   0.163   9.441   1.849  0.2211 -0.0187 -0.0185
17647W        W33908  12.982  13.097   1.183 -0.0990 -0.0252  0.1550
17648W        W33909   1.123  14.952   4.496  0.5191  0.1279  0.0251
17649W        W33910  12.081   2.053   4.004  0.1599  0.1285 -0.0700
17650W        W33911  15.439  15.928   1.210  0.2617 -0.0318  0.0649
17651W        W33912  16.949   1.651   3.970  0.1545  0.0131 -0.2212
17652W        W33913   2.889   3.040  15.425 -0.0859 -0.2018  0.2093
17653W        W33914  10.423  11.903  14.364  0.3146  0.2770 -0.0198
17654W        W33915   7.646   3.623  14.752 -0.2797  0.0060 -0.0952
17655W        W33916  13.116  15.249   3.664  0.0351 -0.2226  0.2176
17656W        W33917   4.525  14.195  13.974 -0.1605  0.0794  0.3786
17657W        W33918  15.621  17.433  14.428  0.2214 -0.0783  0.1463
17658W        W33919   4.385   6.073  15.997  0.0924 -0.1077  0.3672
17659W        W33920   7.242  17.397  11.725 -0.2599 -0.1479  0.1729
17660W        W33921  16.857   8.750  14.084 -0.1435 -0.2115  0.0876
17661W        W33922   0.405   0.767  12.171  0.1860 -0.1314  0.1346
17662W        W33923  11.200  12.244   0.151  0.0584  0.1020 -0.6594
17663W        W33924  15.484   9.657  13.286 -0.2324  0.0914 -0.1432
17664W        W33925  17.656  16.261   0.489  0.2870 -0.4448  0.2658
17665W        W33926   9.009   6.624   2.748  0.4432 -0.1213  0.0051
17666W        W33927  14.507   6.065   0.300  0.0857 -0.0408  0.1357
17667W        W33928  15.884   2.494   5.929  0.1150  0.3595 -0.0721
17668W        W33929  18.031   2.631   0.279  0.1616 -0.1441 -0.0247
17669W        W33930  12.345  13.233  14.430  0.0530  0.0378  0.1769
17670W        W33931   6.523  10.266   3.390 -0.5463 -0.0399 -0.0013
17671W        W33932   7.193  13.575  13.469 -0.2705  0.1251 -0.3203
17672W        W33933  12.948   5.493  15.069 -0.0233  0.0930  0.1238
17673W        W33934   0.071   2.404  13.002 -0.2588 -0.2527  0.2455
17674W        W33935  13.650  13.132  10.963 -0.0206 -0.1336  0.3021
17675W        W33936   2.095   1.995  11.572 -0.0747 -0.0284 -0.1938
17676W        W33937   9.246  15.392   0.639 -0.1716  0.0862 -0.0849
17677W        W33938  14.698   6.017  15.660 -0.1666 -0.3111  0.0554
17678W        W33939   1.667   7.290   5.744  0.1074  0.2834  0.2558
17679W        W33940   4.649   9.524  11.937  0.0945 -0.2202 -0.0926
17680W        W33941  15.111   3.153   0.522  0.0472  0.0620  0.2474
17681W        W33942   9.632   9.402  10.563  0.0496 -0.1396 -0.0380
17682W        W33943  13.940  18.229   3.160  0.2123  0.3199  0.2041
17683W        W33944   3.125  17.604  13.584  0.0019 -0.1220 -0.3927
17684W        W33945  11.284   7.228   1.067 -0.2163  0.2694 -0.1826
17685W        W33946  17.657  13.658  11.449  0.1456 -0.0894  0.0973
17686W        W33947  13.224  13.735   2.586  0.3046  0.0119  0.0792
17687W        W33948   2.858  11.739  12.136 -0.2580 -0.1572  0.0111
17688W        W33949   2.925   4.834   5.196  0.3775  0.0911  0.3591
17689W        W33950  10.747   7.765  14.102 -0.1920 -0.0430  0.0920
17690W        W33951   0.282  10.200   4.497 -0.1568 -0.1202 -0.0854
17691W        W33952   8.209  14.596   1.908  0.1025  0.1591 -0.3431
17692W        W33953   7.096  16.034  16.090 -0.0821 -0.1490  0.0263
17693W        W33954   2.442   9.868  11.972 -0.1834 -0.0535  0.0332
17694W        W33955   3.516   5.620   0.117  0.0168 -0.1059  0.3431
17695W        W33956  16.470  13.798  13.214  0.1942 -0.2617  0.3458
17696W        W33957   3.128  12.833  16.146  0.1162 -0.0558  0.3490
17697W        W33958  15.107   3.641   3.735 -0.0638  0.0419 -0.1090
17698W        W33959  12.131  11.974  15.167  0.6472 -0.0194  0.0130
17699W        W33960   3.280   3.344  14.587 -0.0843  0.0941 -0.6513
17700W        W33961  10.421   5.865   4.170  0.1148 -0.0877 -0.0649
17701W        W33962  15.793   5.315  14.557  0.2594  0.0146 -0.0068
17702W        W33963   7.314   0.601   1.359  0.0473 -0.2604 -0.0438
17703W        W33964  12.472   8.673  11.587 -0.0825  0.2247  0.3755
17704W        W33965   7.053   3.742  13.260  0.1135 -0.0576  0.0840
17705W        W33966   6.487  10.024   2.865  0.0207  0.1666  0.3663
17706W        W33967  14.101  15.000   3.929 -0.0556 -0.2840  0.0751
17707W        W33968  12.850   9.582  13.791 -0.0033 -0.1387 -0.4518
17708W        W33969   4.733   2.198   0.117  0.6506  0.0131  0.1121
17709W        W33970   9.149  10.708  12.611  0.0126 -0.0893 -0.0057
17710W        W33971  17.395   5.643   4.744  0.1201  0.1181  0.1644
17711W        W33972  10.353  15.910  15.998 -0.0522  0.0131 -0.0545
17712W        W33973  17.249   2.776  13.223  0.3124 -0.3062  0.1851
17713W        W33974   5.134  11.726  15.955  0.0257 -0.1825 -0.1697
17714W        W33975   0.387   0.077   2.978 -0.2625 -0.1421  0.0425
17715W        W33976   9.602  16.607   4.467 -0.2466 -0.2176  0.2489
17716W        W33977   2.262   5.975   5.437  0.1771  0.1886  0.4766
17717W        W33978  16.317  11.565  11.815  0.0494 -0.2089 -0.1980
17718W        W33979  13.501   6.822  13.969 -0.0447  0.2015  0.1165
17719W        W33980   5.265   0.356   4.114 -0.3718 -0.0928 -0.0067
17720W        W33981  15.396   5.184   3.445 -0.1223  0.1247  0.3029
17721W        W33982   5.213  14.258   2.505  0.0430 -0.0225  0.0378
17722W        W33983  17.987  18.298   4.721  0.3491  0.2426 -0.0508
17723W        W33984  14.755  12.517   2.117 -0.3882  0.0219  0.0962
17724W        W33985   2.589  14.035   0.613  0.1198 -0.2201 -0.3077
17725W        W33986   6.159   2.746   4.679  0.1340  0.2798  0.1633
17726W        W33987   2.747   1.627   0.266 -0.2130 -0.0978  0.0816
17727W        W33988   5.352   4.461   0.943 -0.2358  0.3950 -0.3029
17728W        W33989  12.237   5.043   5.066 -0.1070  0.3703  0.0469
17729W        W33990   5.969  15.546   4.292 -0.0116  0.3203  0.0332
17730W        W33991  12.011  13.328  12.693  0.0282  0.0159  0.0794
17731W        W33992   8.712   2.173  13.991 -0.1021  0.2938  0.2156
17732W        W33993   3.126  18.096  13.447 -0.2244 -0.0320  0.2781
17733W        W33994   7.092   7.146   5.514 -0.0413 -0.0969 -0.3343
17734W        W33995  12.406   8.544   0.373 -0.3000 -0.0569  0.1654
17735W        W33996   9.770   2.376  12.526  0.0253 -0.2897  0.1064
17736W        W33997  17.092   8.356  13.837  0.1414  0.2067  0.0726
17737W        W33998   6.871   3.064   0.921  0.1126 -0.4279 -0.0227
17738W        W33999   0.891   2.936  14.769  0.0720  0.1382 -0.4611
17739W        W34000  12.111   2.802   2.781 -0.3043 -0.0925  0.0265
17740W        W34001  17.550  11.090   4.148 -0.0262 -0.0696  0.1475
17741W        W34002  15.044  10.860  11.724 -0.3052  0.0715 -0.0098
17742W        W34003   1.867   9.093   4.140  0.3892 -0.0169 -0.0515
17743W        W34004   9.713   2.008  15.818  0.3524  0.1264 -0.3448
17744W        W34005   1.786   8.447  12.769  0.3377  0.2209 -0.3144
17745W        W34006   6.842   5.605   5.977 -0.0832 -0.1060  0.1784
17746W        W34007   8.258   9.925  14.499 -0.1569  0.1561  0.4707
17747W        W34008   1.619   1.775  11.369  0.1416  0.1260  0.1815
17748W        W34009   0.987  11.950   3.613  0.3209 -0.1786 -0.1786
17749W        W34010  13.320  16.174  12.182  0.0864 -0.1016 -0.1752
17750W        W34011   0.131   9.139   4.671 -0.2831  0.0316  0.2687
17751W        W34012  11.267  17.041   4.563  0.0248  0.0136 -0.1521
17752W        W34013   3.540   5.303  11.830  0.1148 -0.3063 -0.1318
17753W        W34014   1.362  13.896   4.398  0.1154  0.1838 -0.1436
17754W        W34015  15.296   1.209  14.171  0.0080 -0.0900  0.1841
17755W        W34016  14.328  10.576  12.820 -0.0334  0.0873 -0.1703
17756W        W34017  10.417   6.987  13.176  0.0338  0.0428 -0.0036
17757W        W34018  14.765  11.531   0.170  0.0034  0.0106  0.1670
17758W        W34019  11.122  10.282   1.657 -0.1843  0.2019  0.1083
17759W        W34020  15.605   0.185  14.893  0.0010 -0.1393  0.3770
17760W        W34021  10.721  10.658  10.870 -0.1274 -0.0065 -0.0952
17761W        W34022  15.887   1.912   0.821 -0.1197 -0.2470 -0.5121
17762W        W34023   6.373   8.737  11.740 -0.1136  0.0975  0.1251
17763W        W34024  13.909   7.625  15.512  0.1175  0.3909  0.0623
17764W        W34025  17.762   2.108   3.500  0.1035 -0.2305  0.4247
17765W        W34026   4.621  13.695   2.986  0.1981 -0.1924 -0.0086
17766W        W34027  10.494  10.125  12.117  0.0029 -0.0831  0.0986
17767W        W34028   4.245  14.947   2.991  0.2318 -0.1494  0.3262
17768W        W34029  16.318   5.094  12.457 -0.1057 -0.1114 -0.2824
17769W        W34030   6.317  16.968   4.775  0.0430 -0.0431 -0.1436
17770W        W34031   6.028   0.550  14.892 -0.0133 -0.2685  0.3346
17771W        W34032   9.133   0.037   5.280  0.0898 -0.1367  0.0619
17772W        W34033   5.852  16.203   1.150 -0.2007 -0.0787 -0.1693
17773W        W34034   5.846   8.401   2.972 -0.1078 -0.0367 -0.3277
17774W        W34035   4.293  16.480   1.966 -0.1029 -0.0659 -0.1033
17775W        W34036  10.352   5.567   3.806 -0.5594  0.0685  0.0714
17776W        W34037   0.746  15.859  14.759  0.4070 -0.1643  0.1568
17777W        W34038  15.383  14.032   4.757  0.0396 -0.1258 -0.2882
17778W        W34039   1.377   9.750   4.284 -0.3034 -0.2267  0.1139
17779W        W34040   9.010   0.797   1.378  0.0616 -0.0599  0.2807
17780W        W34041  11.211  18.264  12.343  0.0118 -0.0205 -0.3526
17781W        W34042   2.842   2.781   1.915  0.0543 -0.0167  0.2840
17782W        W34043   7.436   4.617   5.181 -0.0919 -0.3406  0.1114
17783W        W34044   9.153  10.549   5.801 -0.4145  0.0334 -0.0229
17784W        W34045  11.424   1.529  13.557  0.0358  0.0429 -0.1911
17785W        W34046  17.782   9.836  15.451 -0.2290  0.0269 -0.2226
17786W        W34047   5.447   0.710  11.472  0.0844  0.0365 -0.1133
17787W        W34048   3.755   8.686  11.247  0.1135 -0.4489  0.0395
17788W        W34049   9.893   2.318  13.193 -0.1391  0.1865  0.3609
17789W        W34050  16.893  15.467   1.546 -0.2712 -0.0895  0.1347
17790W        W34051   1.444   9.467   3.406 -0.3577  0.1220 -0.1462
17791W        W34052  11.928  10.177  14.109 -0.4524  0.3594 -0.0152
17792W        W34053   3.122  12.512   4.935  0.0730  0.0062 -0.0919
17793W        W34054  12.289  18.023  14.959 -0.2699  0.1005  0.0478
17794W        W34055  10.910  15.896  12.821 -0.1571  0.2954 -0.0386
17795W        W34056  11.620  12.750   1.522  0.1731 -0.0100  0.1392
17796W        W34057  14.036   0.995  13.702 -0.4575  0.1236 -0.1306
17797W        W34058  13.250   2.889   1.115 -0.0499 -0.1465 -0.5099
17798W        W34059   4.369  16.569  12.645  0.1830  0.0253 -0.1992
17799W        W34060   5.261   9.409  16.123 -0.0656 -0.3191  0.1055
17800W        W34061  10.278   7.641   2.369  0.0923  0.1603 -0.1445
17801W        W34062   6.114   3.095  15.119 -0.1757  0.3429 -0.0608
17802W        W34063   2.800  10.973   1.166  0.1437 -0.0269 -0.0871
17803W        W34064   2.114   8.212  14.356 -0.1902 -0.1185  0.3680
17804W        W34065  17.300  14.292   1.995 -0.0968  0.0114  0.3770
17805W        W34066  16.267  15.023  14.433  0.1300 -0.0522  0.3278
17806W        W34067   7.861  15.398  14.852 -0.0657 -0.0794 -0.2461
17807W        W34068   9.485   0.110   4.529 -0.3252  0.0076  0.1199
17808W        W34069   1.060   3.182   5.448 -0.1214  0.0732  0.4013
17809W        W34070  14.938   1.487   0.950 -0.1605  0.1911  0.0139
17810W        W34071   4.109  11.099  15.409 -0.2010 -0.0401 -0.1646
17811W        W34072  14.201   4.107  13.881 -0.1132 -0.2759  0.2131
17812W        W34073   9.765   1.589   1.223 -0.2693 -0.3034 -0.3345
17813W        W34074   3.007   9.165  14.075 -0.3962 -0.2973 -0.0791
17814W        W34075   5.625   0.610   2.490  0.1903 -0.1109 -0.0170
17815W        W34076   4.291   5.709   3.001 -0.1868  0.0504 -0.4122
17816W        W34077  14.994  14.639   5.175  0.1067  0.1150 -0.2459
17817W        W34078   0.639   2.371   4.512  0.1906 -0.3505 -0.1448
17818W        W34079   2.911  10.373  15.738  0.0372 -0.0961  0.1690
17819W        W34080  15.452  10.442   1.150  0.1212 -0.0068  0.1929
17820W        W34081   9.652  17.943  14.470 -0.1797 -0.3382  0.0980
17821W        W34082   3.303   4.348  11.710  0.3884 -0.1441  0.0014
17822W        W34083   8.108   0.382  12.707 -0.2454  0.0484  0.1401
17823W        W34084  12.115  15.319  15.278 -0.1348 -0.0976  0.1320
17824W        W34085   1.243   8.704   0.198 -0.1721 -0.3520 -0.0499
17825W        W34086  10.072  12.800  13.421 -0.1589 -0.0301  0.0306
17826W        W34087  14.783  13.652   1.035 -0.1731 -0.2291  0.1220
17827W        W34088  12.239  13.629   5.703 -0.0520 -0.1639  0.0132
17828W        W34089   0.802  13.885  14.296 -0.1785  0.1244  0.2502
17829W        W34090   3.842   9.153   4.389 -0.2943 -0.3724  0.0644
17830W        W34091   5.957  14.423  14.433  0.1332 -0.0354 -0.1233
17831W        W34092  10.271  14.842  11.639 -0.2148  0.1703  0.0988
17832W        W34093   5.630  12.175   2.150  0.0506 -0.1653 -0.0134
17833W        W34094   4.128   3.401  13.818  0.0499  0.2049 -0.1557
17834W        W34095  14.503  13.563   5.416 -0.2488 -0.1749 -0.2036
17835W        W34096   5.014  15.576   2.520 -0.2041  0.0761  0.0304
17836W        W34097  14.644   8.310  12.311 -0.3130 -0.2131  0.2496
17837W        W34098   7.002   2.884  13.130  0.2320 -0.0549  0.1242
17838W        W34099  18.109   6.981  15.034 -0.1853 -0.0108 -0.2874
17839W        W34100  12.123   3.452   6.055  0.0710  0.1939  0.2134
17840W        W34101  16.191  15.892  14.966  0.0128 -0.2849  0.1971
17841W        W34102   7.669   6.098   3.281 -0.1239 -0.1768 -0.3375
17842W        W34103   1.336  15.931  15.322  0.2402  0.1140 -0.0686
17843W        W34104  17.133   9.002   4.967 -0.4423 -0.2368  0.1288
17844W        W34105  10.234   1.565  15.236 -0.1691  0.0512  0.1711
17845W        W34106  16.399   2.396   4.526  0.1049  0.3630 -0.1403
17846W        W34107  15.962   9.512   1.215  0.2352  0.0508 -0.1444
17847W        W34108   7.164  15.579   3.894  0.0593  0.0809  0.1443
17848W        W34109   7.288   6.334   3.713 -0.1053 -0.1491  0.3346
17849W        W34110   9.218   0.811  13.981  0.0752 -0.2031 -0.0675
17850W        W34111   0.359   7.493   1.757  0.2175  0.1066  0.1592
17851W        W34112   2.645  15.381  11.488 -0.0137  0.0723  0.1105
17852W        W34113  12.561   0.004   1.620 -0.0543 -0.0536  0.0529
17853W        W34114   8.703   1.034  13.899  0.1758 -0.0442 -0.0263
17854W        W34115   1.102   1.144   1.987 -0.1004  0.1188  0.2249
17855W        W34116   4.081   8.649  14.926  0.1547  0.0436  0.1594
17856W        W34117  12.565   9.557   0.292 -0.1206  0.3065  0.2501
17857W        W34118  10.654  10.480   1.541  0.0272  0.2550 -0.1609
17858W        W34119  14.139  14.209   3.460  0.1667 -0.0494  0.1737
17859W        W34120   5.059  10.846  11.487 -0.0579 -0.1279 -0.1590
17860W        W34121   4.427  18.351  13.038 -0.3297 -0.0454  0.1202
17861W        W34122   6.585  14.723   4.481 -0.0303  0.2605  0.0830
17862W        W34123  18.240  14.166  10.636 -0.1782  0.1822 -0.0234
17863W        W34124   1.859  15.944   2.446 -0.2201  0.2231 -0.6783
17864W        W34125  12.247  12.759   1.207  0.2147 -0.1699 -0.0193
17865W        W34126   3.434  13.073  13.481  0.0924 -0.0982  0.2075
17866W        W34127  15.853   6.836  14.727  0.0823 -0.1096 -0.1752
17867W        W34128   3.118   2.178   1.905  0.1424  0.0735 -0.2258
17868W        W34129  12.552  17.000  10.607  0.1836  0.0392 -0.2398
17869W        W34130  13.379   5.883   3.409 -0.0792 -0.0237  0.3616
17870W        W34131   8.228   0.201  14.477 -0.0188 -0.0363  0.0791
17871W        W34132  12.574   2.235  11.360  0.1736 -0.0613  0.5163
17872W        W34133   6.836   5.840   2.700 -0.0768 -0.0314  0.1462
17873W        W34134  11.373   1.245   1.999  0.1218 -0.0487 -0.0066
17874W        W34135   5.394   7.771  15.935 -0.0323 -0.2160  0.0381
17875W        W34136   7.356  11.271   2.973  0.0141 -0.0116 -0.1063
17876W        W34137   9.583  12.298   1.949 -0.1839  0.1627 -0.1728
17877W        W34138  18.405   7.720   2.116  0.2402  0.0942  0.2093
17878W        W34139  10.952  15.918   0.700  0.2032  0.3236 -0.0300
17879W        W34140  17.176  13.492  11.364  0.0142 -0.1058 -0.0872
17880W        W34141   8.543   3.214   1.250 -0.1240  0.0328 -0.1218
17881W        W34142   5.862   3.363  15.527  0.2806 -0.0768 -0.0021
17882W        W34143   1.724   0.115  13.241 -0.5669 -0.4029  0.0904
17883W        W34144   9.776  12.735  15.364  0.1241 -0.1086  0.0802
17884W        W34145   2.712  13.699   2.923 -0.1830 -0.2126 -0.2016
17885W        W34146  17.947  18.244  16.104  0.2337  0.5773 -0.1834
17886W        W34147  14.206  15.141   2.080 -0.1854 -0.2065 -0.1169
17887W        W34148   1.434   6.729  11.449  0.1584 -0.0113  0.0723
17888W        W34149  11.704   3.259  13.634  0.1442 -0.4491  0.1313
17889W        W34150  11.259  14.225   4.040 -0.2848 -0.0238  0.0121
17890W        W34151  13.518  16.325   3.636  0.0121 -0.1994 -0.3812
17891W        W34152   1.654   8.105  14.184  0.0938 -0.1934 -0.2155
17892W        W34153  12.818   9.584   2.219 -0.0335  0.2257 -0.2724
17893W        W34154  11.173  14.168  11.061 -0.1790 -0.2999  0.0009
17894W        W34155  10.928   1.489  14.936 -0.2047 -0.2035 -0.2084
17895W        W34156  14.428  13.624  13.636 -0.1380 -0.3037 -0.0885
17896W        W34157  17.304   7.522  13.439  0.0727 -0.2021  0.1700
17897W        W34158  12.733   0.693  14.423 -0.0609 -0.3067  0.1257
17898W        W34159  15.311  17.053   4.329 -0.0284  0.0973  0.0219
17899W        W34160   5.901   0.707   3.381  0.2036 -0.2965  0.4551
17900W        W34161   9.628   8.051   3.495  0.0010  0.0014 -0.1567
17901W        W34162   3.425   3.433   5.505  0.0582  0.0660 -0.2509
17902W        W34163   6.396   7.830  15.981 -0.1250 -0.0407  0.1212
17903W        W34164   4.847  16.368   5.539 -0.3346 -0.1022  0.0284
17904W        W34165  12.457  17.799   1.157  0.1222 -0.0221  0.1761
17905W        W34166   8.751  14.245   0.495  0.2605 -0.1496 -0.2587
17906W        W34167  16.053  16.586  10.705  0.1995  0.1803 -0.2280
17907W        W34168   0.583   8.399   1.931  0.2473 -0.0300  0.1460
17908W        W34169  16.091   8.321   4.475 -0.0278  0.1583  0.0163
17909W        W34170  16.016  14.129   5.377 -0.1190 -0.0836 -0.0948
17910W        W34171  18.369   8.003   4.680  0.0118  0.1543  0.0519
17911W        W34172  12.000   1.301  14.653  0.5816  0.0018 -0.3000
17912W        W34173   6.501  11.174   0.575 -0.0226 -0.3647 -0.4540
17913W        W34174   1.691   0.094   3.389 -0.1303  0.1550 -0.1002
17914W        W34175   0.978  10.240  14.586  0.2441 -0.2625  0.0572
17915W        W34176  11.949   5.971   3.039 -0.1859  0.2918 -0.1769
17916W        W34177  17.210   2.029   2.063  0.1208  0.2340 -0.1890
17917W        W34178   7.422  13.728   3.180 -0.0618 -0.3386 -0.3412
17918W        W34179   9.215  13.150   3.250 -0.4446  0.2734  0.0502
17919W        W34180  17.598   0.248   1.031 -0.0564  0.2258 -0.1616
17920W        W34181  18.088  15.207  10.711 -0.0200 -0.1394 -0.2653
17921W        W34182   5.925  17.986   0.888  0.3194  0.1243  0.1589
17922W        W34183  13.406   3.994  11.818  0.1998  0.1139  0.1846
17923W        W34184   3.396  14.420  15.322 -0.0109  0.3436 -0.2688
17924W        W34185  13.295   2.865  13.801  0.1975  0.0383 -0.2765
17925W        W34186  15.190  15.965  14.858 -0.0124 -0.2943  0.2685
17926W        W34187   8.794   7.556  13.027  0.0194 -0.2125 -0.1186
17927W        W34188  15.572  15.301   0.689 -0.2011  0.0099 -0.0325
17928W        W34189  17.241   6.350  13.936  0.3145  0.0715 -0.0417
17929W        W34190   8.155   8.045   5.010 -0.1035 -0.0814 -0.0485
17930W        W34191  18.458   0.013   1.472  0.1693  0.2118 -0.0011
17931W        W34192  17.957  15.762  15.520  0.2252  0.2051 -0.0361
17932W        W34193  15.628   8.055   0.971 -0.1106 -0.0756  0.1257
17933W        W34194   8.853   6.313  14.500 -0.1207 -0.0157  0.1145
17934W        W34195  13.438  16.770   0.323  0.1050 -0.1458 -0.0495
17935W        W34196  11.788   5.909  13.515  0.3233  0.1047 -0.2766
17936W        W34197   7.746  17.509   2.683  0.2712  0.0295 -0.2400
17937W        W34198   6.016   4.482  14.797 -0.0809  0.0419 -0.0606
17938W        W34199  14.408  12.834   3.507  0.0976  0.2595  0.0225
17939W        W34200   9.626   7.396  12.026  0.0557 -0.1159 -0.1601
17940W        W34201   6.459  14.302   1.362  0.1767 -0.1035  0.3364
17941W        W34202  13.234  10.534   1.932  0.1554  0.2188 -0.1979
17942W        W34203   6.418   1.224   4.024  0.0357  0.0187  0.1490
17943W        W34204  14.265  12.149  13.354 -0.2713  0.4423 -0.0926
17944W        W34205  15.502  16.128  13.769 -0.2895 -0.2037 -0.1791
17945W        W34206   0.432   4.533   4.724 -0.0011 -0.1176 -0.2874
17946W        W34207   8.484   3.654   2.252 -0.5614 -0.0122  0.2882
17947W        W34208   7.001   3.496  12.460 -0.1138  0.5397  0.1788
17948W        W34209   4.794   1.048  15.017 -0.1893  0.0483  0.2326
17949W        W34210  10.709  11.054   2.686  0.1329  0.2427  0.0182
17950W        W34211   8.484   8.795   2.963 -0.0158 -0.1704 -0.2613
17951W        W34212  16.993   2.656   0.117 -0.2380 -0.0547  0.1939
17952W        W34213  16.351   5.039  15.661  0.0063 -0.2490 -0.2540
17953W        W34214  13.730   3.687   4.369  0.0654  0.1417 -0.1051
17954W        W34215  14.219   8.349  11.584  0.2343  0.0708 -0.1392
17955W        W34216   7.941  16.803  15.780 -0.1908 -0.0401  0.0271
17956W        W34217   1.787   0.919   4.190  0.0096  0.4072 -0.1778
17957W        W34218  13.984   0.487   1.733  0.3138 -0.3014 -0.0094
17958W        W34219   4.935  11.427   0.332  0.2186  0.2358  0.0307
17959W        W34220   8.896  10.472  15.929  0.0887  0.0060  0.3159
17960W        W34221   0.924  11.931   2.042  0.2108  0.0486  0.0909
17961W        W34222  14.246   2.392   4.368 -0.1087  0.1792  0.3908
17962W        W34223  14.635  16.797  13.772  0.1291 -0.1500  0.0441
17963W        W34224   1.694  10.315   3.079  0.1739  0.0548  0.2279
17964W        W34225   7.785  10.911   3.422 -0.3564 -0.1728 -0.0178
17965W        W34226   7.004   0.543   4.101 -0.1989  0.0983  0.1721
17966W        W34227   4.015   4.445  14.352  0.0508 -0.1817 -0.2458
17967W        W34228   4.793   3.037  14.884 -0.1654 -0.1474 -0.1488
17968W        W34229  15.322  17.372   2.460  0.0487 -0.0717  0.0975
17969W        W34230   8.014  15.892   2.865  0.3368 -0.1973  0.0927
17970W        W34231  10.779   6.565   2.322 -0.3023  0.0128 -0.2312
17971W        W34232  11.554   7.509  14.723  0.1126 -0.2257  0.0055
17972W        W34233   7.476   5.873  14.834  0.1715  0.0282  0.2147
17973W        W34234   8.149  17.255  12.235  0.1640  0.1952 -0.0638
17974W        W34235  10.522   7.382   5.987  0.2229 -0.0927 -0.0033
17975W        W34236   0.290  18.054   1.546  0.3271  0.1169 -0.0155
17976W        W34237   1.282   4.453  11.848  0.0138 -0.2932 -0.0154
17977W        W34238   6.214  11.990   1.016 -0.1391 -0.2284 -0.1502
17978W        W34239   5.669  17.036   0.446  0.0174  0.0522  0.0933
17979W        W34240   8.210   0.498  11.728 -0.1989  0.2598  0.0371
17980W        W34241  10.862  13.271  12.977 -0.0681  0.0885  0.0634
17981W        W34242  10.949  15.834  13.751 -0.1049 -0.1205  0.1637
17982W        W34243   9.402   4.196  12.048 -0.2763 -0.0664 -0.1183
17983W        W34244  16.345  16.850   0.473  0.1644  0.2546 -0.3640
17984W        W34245   8.993  18.038   1.366  0.1080 -0.2460  0.1931
17985W        W34246   9.395   4.428   0.076  0.0260 -0.3000 -0.1069
17986W        W34247   2.648   6.825   5.735  0.1558 -0.1864 -0.1610
17987W        W34248   1.867   7.811  14.798  0.4105 -0.2880  0.1858
17988W        W34249  18.245   7.439  12.940  0.0487 -0.1980  0.0460
17989W        W34250  15.500  12.646  13.787  0.1335 -0.0618 -0.1140
17990W        W34251   9.872   9.857  13.534 -0.2190 -0.0768  0.0702
17991W        W34252  10.734  12.238   4.295  0.2588  0.1060 -0.0998
17992W        W34253   6.220   4.954  15.512 -0.0817  0.2307 -0.1906
17993W        W34254   7.461  10.900   0.965 -0.0267  0.2007  0.1324
17994W        W34255  15.047  12.013  11.938 -0.3312 -0.0410 -0.0457
17995W        W34256   3.233  13.970  16.035 -0.2747 -0.0359  0.0705
17996W        W34257   3.548  15.500   4.189 -0.4500  0.1417 -0.1642
17997W        W34258   1.877   7.412  15.073 -0.2985  0.0654  0.0452
17998W        W34259   6.510   6.159   3.897 -0.1596  0.0815  0.1076
17999W        W34260   6.728  13.614  13.658  0.0224 -0.1808  0.0019
18000W        W34261  17.309   6.209   4.120 -0.1062 -0.1519 -0.1800
18001W        W34262   1.605  15.993   0.647 -0.1823 -0.0032 -0.1657
18002W        W34263   6.187  17.589   1.779 -0.1076  0.1104 -0.1849
18003W        W34264  10.290   0.416  13.243  0.3701 -0.0848 -0.1757
18004W        W34265  12.761   2.692  12.772  0.2341 -0.0114 -0.1159
18005W        W34266  13.140  17.305   0.278 -0.2405  0.3647  0.0895
18006W        W34267  12.853   7.744  14.376  0.1771  0.0481  0.0496
18007W        W34268   1.462   8.033   3.423  0.3699 -0.1705  0.2306
18008W        W34269   8.679   1.570   2.223 -0.4061 -0.0936 -0.1475
18009W        W34270   3.298  12.717   1.144  0.2936 -0.1182 -0.0778
18010W        W34271   4.842  15.113   5.151 -0.0866 -0.3000  0.0432
18011W        W34272   9.779  10.637  12.615 -0.4673  0.1087 -0.0433
18012W        W34273   2.500   5.013  10.401 -0.1014  0.1052  0.2116
18013W        W34274  12.289  12.798   4.349 -0.0319 -0.0454  0.1901
18014W        W34275  10.572  13.864  12.361  0.1107 -0.0095 -0.1300
18015W        W34276  15.113  14.405   0.084 -0.2828  0.1182 -0.0718
18016W        W34277   6.926   1.006   5.249  0.1943 -0.3142  0.1275
18017W        W34278   2.200  14.257  15.133 -0.2607 -0.2384 -0.3033
18018W        W34279   4.621   8.147   2.575  0.0478  0.2072  0.1751
18019W        W34280   4.147   1.746   3.040  0.0026 -0.3931 -0.0013
18020W        W34281  13.047  11.388   5.262  0.1398 -0.2013 -0.0415
18021W        W34282  18.107   3.481  15.578  0.1709 -0.0039  0.0993
18022W        W34283  11.939  12.040   0.142 -0.2014  0.0857 -0.1675
18023W        W34284   3.218   2.579   1.687 -0.3020  0.0449  0.2034
18024W        W34285   6.860  13.539   2.458 -0.1055 -0.1711 -0.2479
18025W        W34286   4.599   8.495   1.020  0.2163 -0.1454 -0.1223
18026W        W34287   8.613  11.607   5.006 -0.1033 -0.2939 -0.2678
18027W        W34288   5.587   5.961   1.428  0.2083 -0.0451  0.0440
18028W        W34289   8.826   8.184  15.321  0.0796 -0.1618 -0.2557
18029W        W34290   4.076  10.391   2.637  0.0614 -0.0712  0.1805
18030W        W34291   1.924  17.922  12.834 -0.1231 -0.0283 -0.1556
18031W        W34292   6.399   9.808  14.778  0.0176 -0.1776  0.0659
18032W        W34293  10.848  13.543   0.584  0.0258  0.1217  0.2600
18033W        W34294   7.537  13.839   1.703  0.0378  0.1631  0.2175
18034W        W34295   4.462  12.928  11.197 -0.2355 -0.1599  0.2371
18035W        W34296  15.389  10.551  14.985 -0.0398 -0.4626  0.0995
18036W        W34297  16.654   1.363   1.015  0.3350  0.3121  0.2473
18037W        W34298  16.512   7.139  13.627  0.0356  0.0017  0.5311
18038W        W34299   3.084   1.284  12.453  0.0528  0.3101  0.1118
18039W        W34300  10.721   1.493   1.603 -0.0406  0.4723 -0.1803
18040W        W34301  17.902  14.546   5.111 -0.1104 -0.2518 -0.0927
18041W        W34302  17.919  12.888   3.635  0.1776  0.1761  0.1550
18042W        W34303   5.644  13.297   4.663 -0.0875 -0.1112 -0.3424
18043W        W34304  14.268   8.487  13.598 -0.2766 -0.0971 -0.1001
18044W        W34305  13.057  13.971  14.355  0.0969  0.1673 -0.3873
18045W        W34306  13.437   3.078   2.318  0.1577 -0.0912 -0.0764
18046W        W34307  14.458  10.189  10.409  0.0793  0.1797 -0.0235
18047W        W34308   6.953   0.097   3.865 -0.1346  0.1022  0.2191
18048W        W34309   9.782   2.971  14.324  0.0148  0.0822 -0.2215
18049W        W34310  12.826  16.163   3.998 -0.0631  0.0801  0.0814
18050W        W34311   8.341  10.689  11.976  0.1838 -0.0909  0.3768
18051W        W34312   9.804  11.255  13.263  0.3586 -0.0079  0.2008
18052W        W34313   0.059   7.538  14.223  0.0685 -0.5645  0.1224
18053W        W34314  17.834   9.464   3.184  0.1646  0.1496  0.0319
18054W        W34315  15.077   7.945   5.281 -0.3286 -0.0260  0.1919
18055W        W34316   3.658  11.019   2.166  0.4983  0.3715  0.0639
18056W        W34317  13.394  10.510  14.268 -0.1119 -0.0815 -0.0393
18057W        W34318   0.114  17.966  14.005 -0.0557  0.0829 -0.1135
18058W        W34319   4.201  16.841  11.781 -0.1250 -0.2995  0.0840
18059W        W34320   1.262   4.615  15.948 -0.0965  0.2643 -0.3069
18060W        W34321   4.540   8.398  13.506  0.0850  0.4316 -0.1592
18061W        W34322  13.820  15.482  11.191 -0.4071  0.1468 -0.1122
18062W        W34323  16.164  12.685   5.062 -0.3459  0.0224  0.2799
18063W        W34324  17.738   3.424   1.475  0.3635  0.0561  0.0408
18064W        W34325   3.700  13.353   4.729 -0.0107  0.1031  0.0747
18065W        W34326  14.146   9.004   1.679  0.5769  0.0350  0.1620
18066W        W34327   2.206   0.906  14.458  0.1249  0.1109 -0.0525
18067W        W34328   8.375   6.386  13.559  0.1564  0.0909 -0.0512
18068W        W34329  12.175  11.386  16.058 -0.3101  0.0648  0.1567
18069W        W34330  15.140   7.511   2.770 -0.0010 -0.3154  0.0314
18070W        W34331   2.597  17.870   2.415 -0.0958 -0.1883 -0.1545
18071W        W34332  15.639  10.646   2.515 -0.1118 -0.0150 -0.2101
18072W        W34333   4.765   9.533  16.002 -0.0533  0.0543  0.2288
18073W        W34334   3.783   3.488   4.291  0.0143 -0.2434  0.5441
18074W        W34335  13.427   6.385  10.264 -0.2110 -0.0538 -0.0214
18075W        W34336   0.556   7.364   5.759 -0.0205  0.0358  0.1043
18076W        W34337   9.373   2.366   0.600  0.1387 -0.0485  0.0515
18077W        W34338  12.153   5.544  12.062 -0.1787  0.0750 -0.2879
18078W        W34339   7.577  14.292   5.602 -0.3535 -0.4334  0.0939
18079W        W34340   7.359  15.341  11.309 -0.0777 -0.1090 -0.5228
18080W        W34341  11.239   1.163   4.931  0.0348 -0.2420  0.0883
18081W        W34342   3.662   3.189   0.928 -0.1052 -0.0291 -0.0351
18082W        W34343   5.262   9.548   2.328 -0.2279  0.0890  0.2555
18083W        W34344   5.283  16.733  11.072 -0.0213 -0.1348  0.3280
18084W        W34345   1.952   7.040  15.922 -0.0707 -0.0253  0.2347
18085W        W34346  11.250  13.013  14.244  0.0204 -0.0121 -0.1209
18086W        W34347  18.451  10.585   0.185 -0.0964 -0.2012 -0.0926
18087W        W34348  12.560   2.683  16.102  0.3806  0.1466 -0.0697
18088W        W34349   9.684  12.324   1.352  0.3188  0.1314 -0.0714
18089W        W34350  17.540  10.817   0.651  0.1568 -0.2983 -0.0821
18090W        W34351  12.763  16.830   0.805  0.3885  0.2011  0.1348
18091W        W34352  18.423  16.770  12.719  0.0753  0.5008 -0.1876
18092W        W34353   5.914   9.271  12.636  0.1012 -0.1079 -0.0168
18093W        W34354   1.116   3.737   2.708 -0.1429 -0.2262  0.3447
18094W        W34355  14.776   1.576   2.849 -0.0586  0.1552  0.0341
18095W        W34356  12.675   0.372  13.973  0.0061 -0.1297 -0.2832
18096W        W34357   3.121  17.280   2.845 -0.0428 -0.2300 -0.1447
18097W        W34358  11.188   1.248  13.168 -0.3045 -0.0666 -0.2016
18098W        W34359   3.883  11.403  13.430 -0.0952 -0.0210 -0.3181
18099W        W34360  11.072   7.878   1.402  0.1354  0.0442  0.0372
18100W        W34361   9.325   2.761   2.838  0.2763 -0.0860 -0.3673
18101W        W34362  11.126  17.193  13.820 -0.0661 -0.1240 -0.2352
18102W        W34363  13.925   8.852   5.771 -0.2348  0.1982 -0.3170
18103W        W34364  15.210   4.074  15.630  0.1098  0.1558 -0.3413
18104W        W34365   6.628  15.020  13.189  0.0859  0.1671 -0.3858
18105W        W34366  13.577   9.416  13.916  0.0847  0.2827 -0.3588
18106W        W34367  11.955   7.779   2.915 -0.1225 -0.0797  0.0423
18107W        W34368  14.978  17.264  13.830  0.2403  0.1399  0.0121
18108W        W34369  16.461   9.797   3.936 -0.1288  0.1750 -0.0898
18109W        W34370  15.203   2.053  13.020 -0.1603 -0.4050  0.3967
18110W        W34371  13.210   0.100  14.759 -0.1244 -0.0685  0.2431
18111W        W34372   6.289   5.710   2.713  0.0951 -0.1443  0.2669
18112W        W34373  17.284  14.690  14.314 -0.0536  0.0503  0.0019
18113W        W34374  12.373   4.375   2.411  0.0561 -0.1501  0.1962
18114W        W34375  18.090   4.495   1.151  0.0191 -0.0066  0.3300
18115W        W34376   3.173   9.110   2.728 -0.0716  0.0230 -0.0468
18116W        W34377  11.066   1.384   3.773 -0.3453  0.0225  0.3193
18117W        W34378  17.908   4.005   0.476 -0.0450 -0.1459  0.0242
18118W        W34379   7.115   8.648  14.828 -0.3390 -0.0728 -0.0555
18119W        W34380   3.422   9.179   4.094 -0.0970  0.3546 -0.3168
18120W        W34381  17.279   0.141  13.008  0.6169  0.0322 -0.3322
18121W        W34382   2.884  14.707   2.680  0.3732  0.2905  0.0039
18122W        W34383   0.266   1.085   1.127 -0.1642  0.3849  0.1612
18123W        W34384  10.099   8.416  15.015 -0.1342 -0.1343  0.0394
18124W        W34385  17.193  11.123  13.601  0.1724  0.1358 -0.3499
18125W        W34386   2.514   4.786  13.933 -0.2550  0.1544  0.0095
18126W        W34387  14.050   8.735   0.913 -0.0647  0.1151 -0.0718
18127W        W34388  17.356  16.639   0.401 -0.3628 -0.1267  0.1053
18128W        W34389   0.559  14.608  13.612 -0.1251 -0.0410 -0.1327
18129W        W34390   4.810  16.104  14.958  0.0544 -0.1731 -0.2522
18130W        W34391  11.331   9.778  14.219  0.1911 -0.0698 -0.0870
18131W        W34392   1.856   7.005  14.705  0.1079  0.0449 -0.0147
18132W        W34393   5.013   4.147   3.898 -0.1109 -0.2077  0.1608
18133W        W34394   1.078   8.454   1.980  0.0392  0.2282  0.0211
18134W        W34395   9.152  12.828   1.636 -0.2415  0.4120 -0.1565
18135W        W34396  16.701   5.847  15.287 -0.2231  0.2219  0.0433
18136W        W34397   9.960   2.571  11.588 -0.0077 -0.2036 -0.0979
18137W        W34398   2.374  11.317   2.390  0.0827 -0.2383 -0.0094
18138W        W34399  15.584   3.876   5.365 -0.3702 -0.2107  0.2733
18139W        W34400   2.887   8.901   3.480 -0.1552 -0.2833  0.1956
18140W        W34401  14.341   1.197   0.469  0.0549 -0.1524  0.2979
18141W        W34402   9.715  17.271  15.639  0.2158 -0.2458  0.1044
18142W        W34403   0.911   5.360   5.514 -0.1151  0.5271  0.4265
18143W        W34404   0.054   2.737   3.264 -0.0270  0.0077 -0.0446
18144W        W34405  11.592  10.670   0.411 -0.0031 -0.1730 -0.3353
18145W        W34406   0.025   2.057   2.765 -0.0441  0.0216  0.1083
18146W        W34407  13.313  16.821  11.795  0.0387 -0.3135  0.0771
18147W        W34408   3.542  17.887   6.336  0.0226 -0.0453  0.0309
18148W        W34409   4.390   1.184  16.021 -0.0745  0.1420 -0.2778
18149W        W34410   2.239   9.188  14.634 -0.1578  0.0780  0.0515
18150W        W34411   4.732   5.715  15.133  0.3791 -0.2649  0.1438
18151W        W34412  13.270  13.038   3.436  0.3640  0.3059  0.1550
18152W        W34413  14.658  15.631  14.912 -0.1599 -0.2306 -0.5068
18153W        W34414   5.777   5.441  13.306  0.0784 -0.1495 -0.1854
18154W        W34415   5.566  10.967  11.517 -0.1315 -0.2390 -0.1601
18155W        W34416   4.930   8.223   4.241 -0.3018 -0.0413  0.0223
18156W        W34417  10.619  15.513   3.243 -0.3394 -0.0563  0.0829
18157W        W34418  12.378   7.318   5.465 -0.0283 -0.1956 -0.1138
18158W        W34419  18.069   0.179   1.715 -0.0091 -0.0939  0.0694
18159W        W34420  14.693   2.901   0.802  0.0083  0.2732 -0.0771
18160W        W34421  17.696  15.408  11.754 -0.1663 -0.1295 -0.3134
18161W        W34422  15.770  17.588  11.028  0.0836 -0.0590 -0.2260
18162W        W34423   0.706  15.179   5.810  0.1263 -0.2479 -0.1553
18163W        W34424   6.243  14.291  15.831  0.0687  0.0196 -0.5013
18164W        W34425   7.493  11.403  12.313  0.0048  0.3161 -0.0102
18165W        W34426  16.090   7.690   1.034 -0.0688 -0.0088 -0.0584
18166W        W34427  15.565   7.475  13.386 -0.0287  0.1232 -0.0243
18167W        W34428   6.347  14.302   0.872 -0.2443  0.0177 -0.1882
18168W        W34429   9.647  12.119   2.921  0.2596 -0.3778  0.0124
18169W        W34430  10.329  10.502  12.518 -0.1142  0.0525  0.3859
18170W        W34431   4.150   9.764   4.045  0.0577  0.1496 -0.1383
18171W        W34432   0.707  10.048   3.043 -0.1328  0.2974  0.2375
18172W        W34433  14.738  14.101  16.147  0.0735  0.4361 -0.0474
18173W        W34434  14.111  13.029  11.849 -0.2291 -0.1235  0.2997
18174W        W34435  11.817   8.691   2.405  0.1861  0.1242  0.0494
18175W        W34436  16.520  10.027   5.669  0.2921 -0.1355 -0.0997
18176W        W34437   8.041   6.239  14.138 -0.2374  0.1539  0.3199
18177W        W34438  17.063   7.460   4.849  0.1067 -0.0092 -0.1066
18178W        W34439   9.871   2.983  11.371 -0.1287 -0.0230 -0.0323
18179W        W34440   2.836  18.144   3.326 -0.1229 -0.2284  0.1302
18180W        W34441  10.602  14.097  11.232  0.0580 -0.0509 -0.2190
18181W        W34442   7.463   7.580   6.401  0.3572 -0.1446  0.1838
18182W        W34443   3.107  15.376   0.347 -0.1052 -0.0516 -0.3086
18183W        W34444   5.267   2.867   4.145 -0.2028  0.2629 -0.1299
18184W        W34445  13.487  14.484   3.945 -0.2077  0.0759  0.1107
18185W        W34446  12.719  17.076   5.020 -0.2190 -0.2865  0.0307
18186W        W34447  11.562   9.759  10.841  0.2327  0.0864 -0.0472
18187W        W34448  16.867  15.737  11.193 -0.5395  0.2299  0.3673
18188W        W34449  16.671   2.412  12.130  0.3651 -0.1191 -0.0027
18189W        W34450   7.583  12.415  15.107  0.0224 -0.0949 -0.0920
18190W        W34451   6.658  12.166  15.731 -0.2087  0.1456 -0.1431
18191W        W34452  18.430  18.162   3.852 -0.2325  0.2414  0.0208
18192W        W34453   0.412  15.747   4.238 -0.0883 -0.1508  0.0623
18193W        W34454   1.158  15.378   5.826  0.0036  0.1521  0.1050
18194W        W34455  13.558  15.481   3.417  0.1626  0.3076 -0.0274
18195W        W34456   4.145   1.808   5.935 -0.0087 -0.1224 -0.1938
18196W        W34457  17.224  11.950   2.574  0.0495 -0.0334 -0.0546
18197W        W34458  17.376   0.584  16.024  0.5171 -0.0081 -0.0749
18198W        W34459   6.281  18.305  14.435 -0.1613  0.2065  0.0656
18199W        W34460  10.977  14.118  11.566 -0.3164  0.1323 -0.3262
18200W        W34461  11.299   8.190   5.705 -0.3181  0.0398 -0.2096
18201W        W34462  15.947  13.831  15.790  0.1504  0.0843 -0.0338
18202W        W34463  16.016   3.931  13.873  0.1979 -0.2118  0.3084
18203W        W34464   6.851  11.167   5.267 -0.0050  0.1453 -0.0605
18204W        W34465  17.061   6.711   1.246 -0.0805 -0.0861 -0.2758
18205W        W34466   1.573   0.337   1.634 -0.1133 -0.0174 -0.1791
18206W        W34467  15.058  10.051   9.730  0.0737  0.0591 -0.2850
18207W        W34468   7.315   7.623   2.194 -0.0560 -0.1241 -0.0891
18208W        W34469   0.826   3.646   5.654  0.2526 -0.0683 -0.1430
18209W        W34470   4.513   2.964   2.227  0.0653  0.1678  0.0589
18210W        W34471   9.393   1.120   5.298 -0.0621  0.3198 -0.2454
18211W        W34472  11.524  16.987  13.535  0.1742 -0.0791 -0.5292
18212W        W34473   1.832  14.979  11.160  0.0339 -0.1103  0.1265
18213W        W34474   2.708   3.966   3.757 -0.0201  0.1004  0.0488
18214W        W34475   5.320  13.492  12.597  0.2283  0.3206 -0.0608
18215W        W34476   3.208  12.094  14.686 -0.0024 -0.0504  0.0505
18216W        W34477  15.917   8.981  15.508  0.0847  0.2210 -0.3289
18217W        W34478   1.279  17.636  14.644  0.0786 -0.0086  0.0919
18218W        W34479   1.791   2.895   1.031  0.0150  0.1637  0.3066
18219W        W34480  13.463  10.789   3.885 -0.2558  0.0896  0.1849
18220W        W34481   8.864  14.227   4.565  0.1180  0.0732  0.1439
18221W        W34482  13.955   5.235  14.632  0.0756  0.0037 -0.0153
18222W        W34483   1.016   5.912  14.719  0.0520  0.0683 -0.2461
18223W        W34484  15.683   6.398   1.405 -0.1093 -0.2551 -0.0905
18224W        W34485   3.874  10.722  14.300 -0.0136 -0.2687 -0.3469
18225W        W34486   0.803   4.352   4.416  0.1423  0.0447 -0.0569
18226W        W34487  13.435   2.342   1.701  0.1087 -0.1221 -0.1233
18227W        W34488  14.719  12.781   2.530 -0.2989 -0.1978  0.1915
18228W        W34489   7.504  14.196   1.279  0.2555  0.1279  0.1632
18229W        W34490  10.129  16.752  14.472 -0.0264 -0.0550  0.2336
18230W        W34491   4.657  14.105   1.536  0.2132  0.2609  0.4110
18231W        W34492  12.590  10.285   2.115  0.0580 -0.2726 -0.2013
18232W        W34493  10.833   9.296   2.404 -0.0259  0.4040 -0.1097
18233W        W34494   1.658  14.900   2.124  0.1917  0.1403 -0.1270
18234W        W34495   7.009  13.872  12.249  0.1350 -0.1015  0.3103
18235W        W34496   8.741   0.371   5.317 -0.1595 -0.1747 -0.1584
18236W        W34497  16.176   8.750   0.829 -0.0999  0.0610  0.2698
18237W        W34498  10.476   9.647  12.125 -0.2572 -0.1232 -0.7405
18238W        W34499  12.533   8.169  11.415 -0.1140 -0.2066 -0.2994
18239W        W34500  14.239  14.309   1.482 -0.1847  0.1056 -0.2396
18240W        W34501  15.251   2.328   4.438 -0.3849 -0.1925 -0.1533
18241W        W34502   7.868   7.563  14.675 -0.1802 -0.0518  0.0692
18242W        W34503  15.525  13.649   1.624  0.3955  0.2790  0.1366
18243W        W34504   7.359   1.001   4.928 -0.0988  0.0249 -0.1954
18244W        W34505   2.791   7.623  14.820 -0.2731 -0.0432 -0.0669
18245W        W34506  15.115  13.074  15.359  0.0316  0.0539 -0.0069
18246W        W34507   3.394  16.757   2.479  0.0730  0.2334 -0.1755
18247W        W34508   4.185   7.217  14.321 -0.2560 -0.0486  0.1841
18248W        W34509  16.477   2.579   3.876  0.2707 -0.0550 -0.0994
18249W        W34510   6.000  11.002   0.619 -0.0109 -0.0437  0.0408
18250W        W34511  14.975  10.505  13.561 -0.2474 -0.0332  0.3116
18251W        W34512   5.790   7.403   3.166  0.1155  0.1818  0.4513
18252W        W34513   9.568   3.750   1.476  0.0071  0.1305  0.1824
18253W        W34514  11.233  16.927   3.376  0.3386 -0.1444  0.1132
18254W        W34515   0.482   5.533  14.599 -0.0786  0.1583  0.2316
18255W        W34516  13.620   7.957  15.753  0.2390 -0.1420  0.1054
18256W        W34517   0.731   8.977  11.415 -0.1834 -0.1135 -0.0319
18257W        W34518  12.106   1.360   4.409 -0.1170 -0.0069 -0.1519
18258W        W34519   8.149   3.807  13.753  0.0238  0.1950 -0.1637
18259W        W34520   2.556   7.264   2.912 -0.3975 -0.2284 -0.0211
18260W        W34521  14.851   8.324   0.388  0.5709 -0.1354  0.0624
18261W        W34522  16.244  13.962  13.683 -0.1787 -0.0002  0.0384
18262W        W34523   5.793  18.298   0.445  0.0954  0.2014  0.1373
18263W        W34524   3.096  10.767  13.562  0.0181 -0.1131  0.3228
18264W        W34525  14.247   1.011   2.663 -0.1309  0.0742 -0.0105
18265W        W34526  11.565   0.371  13.938  0.0970 -0.0144  0.1370
18266W        W34527   8.545   2.569   3.699 -0.0772 -0.1609  0.0635
18267W        W34528  10.941  11.888   4.863  0.0623 -0.2174 -0.2193
18268W        W34529  11.097  13.554   4.032 -0.7122  0.1969 -0.0824
18269W        W34530  14.059   2.655  12.394  0.0379 -0.1460  0.1590
18270W        W34531   0.044   3.349  14.427  0.1216 -0.4224  0.2324
18271W        W34532  12.394   9.574  15.847 -0.0722 -0.1825 -0.1016
18272W        W34533  14.248  12.567   4.343 -0.2819 -0.2926  0.3087
18273W        W34534   4.052   5.199  10.793 -0.1356  0.1471  0.0064
18274W        W34535   2.903   7.000   2.189 -0.1837 -0.0273  0.2100
18275W        W34536   3.744   9.736  11.899 -0.0095  0.2928  0.4955
18276W        W34537   8.079   7.595   2.928  0.1506 -0.0325  0.5241
18277W        W34538   4.179  14.088  12.077 -0.0897 -0.1153 -0.0405
18278W        W34539  16.084  13.899   2.471  0.3595 -0.0724  0.2608
18279W        W34540   3.968  10.053   4.406  0.0564 -0.5050 -0.0664
18280W        W34541   0.632  16.261   1.459  0.1060  0.0052 -0.0282
18281W        W34542  11.470  12.721  12.436 -0.3197 -0.2117 -0.1625
18282W        W34543   0.893  11.732  11.689 -0.0018  0.0355 -0.0281
18283W        W34544  11.264   9.026  12.192 -0.3179  0.1049 -0.0032
18284W        W34545  10.388  16.010   0.985 -0.2279  0.1689  0.2840
18285W        W34546   3.212   1.722  13.720 -0.0258 -0.1692  0.0262
18286W        W34547  14.190  10.848  13.365  0.0834  0.0096 -0.2070
18287W        W34548   1.238   2.333  12.493 -0.3155  0.1578  0.0753
18288W        W34549  16.367  16.114   3.139 -0.1584  0.0643  0.0452
18289W        W34550  10.130   5.995   4.887  0.2430 -0.1575  0.1018
18290W        W34551  13.762  15.329   3.852  0.1211  0.1453  0.1382
18291W        W34552  14.080  16.633   5.316  0.0751 -0.1052  0.3971
18292W        W34553  13.977  13.729   3.212  0.1161 -0.0493  0.4781
18293W        W34554  17.479  17.974   2.987 -0.1145  0.2558 -0.1644
18294W        W34555   4.710  16.246  12.891  0.3087  0.0087  0.1305
18295W        W34556   7.814   1.654   2.825  0.0424  0.1695  0.2999
18296W        W34557  10.389   5.615   4.630  0.2028 -0.3529  0.2323
18297W        W34558  11.312  18.110  15.950 -0.0559  0.0785 -0.1951
18298W        W34559   7.612  14.855  12.621 -0.2775 -0.0530 -0.0157
18299W        W34560   5.406   6.523   1.581  0.2352 -0.2471 -0.4382
18300W        W34561   8.816   0.579   1.874  0.1122  0.1207  0.1848
18301W        W34562   6.814   2.361  14.961 -0.0771  0.1067 -0.1335
18302W        W34563  17.044  15.742   2.346 -0.2910  0.1953 -0.2786
18303W        W34564  17.166   0.387   2.202  0.2669 -0.1306 -0.1104
18304W        W34565   5.065  14.703  13.813 -0.0456  0.4228 -0.1256
18305W        W34566  17.294   2.419  14.122  0.0579  0.0183 -0.3957
18306W        W34567  14.818  12.418  10.885  0.1070  0.1750 -0.3803
18307W        W34568   6.206  12.100   4.678  0.0822  0.0205 -0.0432
18308W        W34569   6.036   6.740   5.650 -0.0536 -0.0872  0.0455
18309W        W34570   8.303   4.636  12.691 -0.0458 -0.1096 -0.4231
18310W        W34571  13.406   6.411   3.339  0.0426  0.2172 -0.4253
18311W        W34572   7.692  13.200  12.287  0.0410  0.0199  0.0603
18312W        W34573  14.182  16.808  13.885  0.2480  0.1282  0.0138
18313W        W34574   7.647  14.228  14.208  0.1186 -0.2756 -0.0497
18314W        W34575   6.818   7.070   2.950  0.1588  0.3184 -0.1916
18315W        W34576   3.562  10.490  12.340 -0.0289  0.3925 -0.3967
18316W        W34577   4.821  14.619  13.036  0.0112 -0.1287 -0.0355
18317W        W34578   3.394   1.175  13.656 -0.0112 -0.1004 -0.1437
18318W        W34579   8.375  17.287   3.841 -0.2124  0.1200  0.2029
18319W        W34580  18.074   5.630   1.757 -0.0458  0.1511  0.0124
18320W        W34581   7.310   5.725  13.909 -0.1153  0.2346 -0.1737
18321W        W34582  12.311   0.624   1.609 -0.1314  0.1341 -0.1635
18322W        W34583  10.613  15.496  12.487  0.0841 -0.1280  0.1503
18323W        W34584  17.795  12.658  16.104 -0.2646  0.5064 -0.1637
18324W        W34585   2.612   1.824   0.692 -0.0367  0.0516  0.0179
18325W        W34586   4.207  13.140   0.105  0.1783  0.0181 -0.2325
18326W        W34587  10.099  15.946  11.661  0.0510  0.1817  0.1847
18327W        W34588  12.704  14.853  11.014  0.0120 -0.2726 -0.0303
18328W        W34589   9.162  11.953  14.731 -0.0352 -0.1536  0.3752
18329W        W34590  18.204   8.071  15.757  0.0140  0.1608  0.3469
18330W        W34591  14.471  17.654  13.151  0.1001 -0.1176  0.0617
18331W        W34592   3.071   6.146   5.264  0.0364 -0.0189 -0.2168
18332W        W34593  17.149  12.276   1.663 -0.0793  0.1520 -0.1825
18333W        W34594  18.043  17.162  12.055  0.1136  0.2324 -0.0189
18334W        W34595  11.775  10.020  11.301  0.3814  0.0368 -0.1715
18335W        W34596  17.634  17.841  11.770 -0.0016 -0.0012  0.2956
18336W        W34597  17.348   3.700  14.022  0.3062  0.3026 -0.0725
18337W        W34598  17.045  17.925   4.764 -0.2497 -0.0352  0.2089
18338W        W34599  17.695   3.660  15.778  0.1179 -0.1967  0.1075
18339W        W34600  13.078   1.906   1.458  0.1277  0.0389 -0.0290
18340W        W34601   9.407   0.296   0.091 -0.0083 -0.0995  0.2825
18341W        W34602   4.757  17.791   0.011 -0.0729 -0.3063  0.1879
18342W        W34603   0.953   2.111   5.878  0.1019  0.0721 -0.2428
18343W        W34604  18.437   0.310   3.123 -0.4386  0.1942 -0.3316
18344W        W34605   9.857   7.021  15.623 -0.2111 -0.1428  0.1602
18345W        W34606  14.231  13.058  13.296  0.1086 -0.1258  0.2780
18346W        W34607   8.345   2.843  13.505 -0.1522 -0.0331 -0.2063
18347W        W34608   7.943  14.456   5.235 -0.0425  0.0931 -0.3510
18348W        W34609   7.532  15.151  15.103 -0.0538  0.1201  0.0719
18349W        W34610  15.720   6.902   0.415 -0.1118 -0.0395  0.2381
18350W        W34611  18.133  14.508   2.557  0.0627  0.3711 -0.1559
18351W        W34612   1.296   8.028   0.917  0.2865 -0.3391  0.0481
18352W        W34613   0.611   0.516  15.903  0.2719 -0.0308  0.0788
18353W        W34614   6.549  11.566   0.165 -0.1143  0.0005 -0.0239
18354W        W34615  12.391  12.649  15.841 -0.1581  0.1016  0.2863
18355W        W34616   7.021  18.193  12.054 -0.2783 -0.0408  0.2098
18356W        W34617   0.881   7.607  11.221  0.1965 -0.1401  0.0321
18357W        W34618   3.715   1.457   2.005  0.1072  0.0204 -0.0548
18358W        W34619  13.901  17.500   4.136 -0.0010  0.0090  0.0339
18359W        W34620  16.728   7.178   3.795  0.0038 -0.1114  0.1975
18360W        W34621  14.546   5.291   4.773 -0.3266 -0.2747  0.1996
18361W        W34622   2.927  14.014   0.235 -0.0474  0.0507 -0.0313
18362W        W34623   2.203   2.161   0.527 -0.0407  0.0410  0.0009
18363W        W34624   1.731   5.578  11.796  0.2652 -0.0962  0.0715
18364W        W34625   8.255   1.395   4.293  0.0232  0.1900 -0.0942
18365W        W34626   0.949   7.927   5.216 -0.0091 -0.0099  0.0472
18366W        W34627  11.880   9.334   0.678 -0.1482  0.0386  0.2321
18367W        W34628  10.789  13.230  11.369 -0.3948  0.1000  0.3056
18368W        W34629  12.647   7.751  11.775  0.4548  0.0871  0.0462
18369W        W34630   5.777  13.614  14.964  0.2276  0.0417 -0.0541
18370W        W34631   5.222   4.174  11.647 -0.0998  0.0824  0.2816
18371W        W34632  12.855  14.848   4.792  0.1175  0.1108 -0.1669
18372W        W34633   9.855  14.609  14.855 -0.0070  0.0871 -0.0458
18373W        W34634  13.153  15.628  12.315 -0.2003 -0.1272  0.0277
18374W        W34635   2.126   8.940  12.364  0.2271  0.3683  0.1681
18375W        W34636   8.188  14.006   3.648  0.1275  0.0442 -0.1467
18376W        W34637  13.147   5.591   0.564  0.1693 -0.2564  0.4798
18377W        W34638  13.069  16.613   3.498  0.1040 -0.3314 -0.3372
18378W        W34639   8.735  15.798  14.240  0.2099 -0.0771 -0.2222
18379W        W34640  12.667  13.436  13.559  0.0013 -0.0108  0.1121
18380W        W34641   7.038  15.331  11.761 -0.0394  0.1861 -0.0592
18381W        W34642  12.883  17.695  15.458 -0.2575 -0.0516 -0.3041
18382W        W34643  16.758   4.003   0.849 -0.1295  0.0860  0.1075
18383W        W34644  18.081  14.734   3.594 -0.3784 -0.0860 -0.0630
18384W        W34645  14.780  14.649   1.491  0.1051 -0.4140  0.0734
18385W        W34646  11.812   4.466   3.961  0.0832 -0.2140 -0.1691
18386W        W34647   7.887  16.178  14.489 -0.2261 -0.0285  0.0553
18387W        W34648  12.295  14.860  12.774 -0.0902  0.5324  0.0677
18388W        W34649   6.668  11.653  14.683 -0.1858  0.1112  0.0349
18389W        W34650   6.626   2.747   1.750  0.0107 -0.2281  0.0307
18390W        W34651   8.319   7.407  12.825  0.1248 -0.0280  0.1292
18391W        W34652   3.520   9.192  15.733 -0.5076 -0.0342  0.0787
18392W        W34653  13.320   0.525   0.081  0.1091  0.2360  0.2598
18393W        W34654   7.956  12.651  14.273 -0.2096  0.0611 -0.3436
18394W        W34655  12.947   4.237  12.355 -0.3083 -0.2851  0.0930
18395W        W34656   6.856  14.888   3.313  0.5512  0.3045 -0.0026
18396W        W34657   7.468  12.695  12.905  0.0024  0.0363 -0.2762
18397W        W34658  14.579   2.517   2.317 -0.2164 -0.0546 -0.0291
18398W        W34659  15.413   3.781  12.469  0.3398  0.0430 -0.0075
18399W        W34660  17.059  13.726   3.437  0.3580  0.3622  0.2128
18400W        W34661  17.714   3.043  13.480 -0.0360 -0.3319 -0.1714
18401W        W34662  17.730  13.850   1.202 -0.0177 -0.0455  0.5169
18402W        W34663  10.526   9.620   0.356 -0.0215 -0.0417  0.0834
18403W        W34664  14.251  16.774   2.355 -0.0646  0.0546 -0.0235
18404W        W34665  15.477   8.378  12.684 -0.1992  0.2922 -0.0058
18405W        W34666  16.271  13.495  11.949 -0.0682  0.2815 -0.0079
18406W        W34667   6.433  18.265  14.912 -0.0743  0.0045 -0.2449
18407W        W34668   6.116  12.552   3.769 -0.0223 -0.3406 -0.1665
18408W        W34669   6.854   1.505  12.262 -0.0638  0.4252  0.0366
18409W        W34670   1.641   9.543   5.088 -0.1180 -0.2013  0.0592
18410W        W34671  16.919   2.808   1.578 -0.0180 -0.2178 -0.0568
18411W        W34672  12.557  12.612   0.371  0.1838 -0.0249  0.0660
18412W        W34673  16.212   2.814   4.708  0.1571 -0.1907 -0.5855
18413W        W34674   7.203  11.420   6.255  0.0958  0.2025  0.0007
18414W        W34675  15.767  14.446   3.504  0.1450  0.0126 -0.0438
18415W        W34676   4.470  12.934   5.731  0.1672  0.1109 -0.0658
18416W        W34677   4.733   8.201  15.887 -0.3989  0.0475  0.0274
18417W        W34678   7.080  15.709  12.319 -0.1981 -0.2036  0.1989
18418W        W34679   9.752  17.192   4.315 -0.3261 -0.0924  0.1501
18419W        W34680   6.811   5.465  14.910 -0.0245  0.2193  0.5633
18420W        W34681   9.119  14.614  14.126 -0.0637  0.1256  0.1267
18421W        W34682  11.281   4.970  12.337 -0.2557  0.1003  0.0095
18422W        W34683  18.443   0.236   5.761  0.1001  0.0356 -0.1002
18423W        W34684  15.374  17.559   1.981  0.0533  0.1963  0.1622
18424W        W34685   9.919  10.330   5.156 -0.2464  0.0303  0.1634
18425W        W34686  18.440   1.820  12.396  0.0135 -0.2299 -0.2041
18426W        W34687   0.876   5.915  14.224  0.0403  0.0151 -0.1123
18427W        W34688   2.148  10.977   3.754 -0.2473  0.0520  0.2168
18428W        W34689  15.590  14.407  10.738  0.1191 -0.1950 -0.0952
18429W        W34690  17.777  16.507  14.015  0.1543  0.0492  0.2567
18430W        W34691  13.115  15.282  15.417  0.5071 -0.3364 -0.2324
18431W        W34692  10.797   8.810  12.209 -0.2715 -0.1428 -0.0952
18432W        W34693   3.166  15.878   0.305 -0.1605 -0.3336 -0.1675
18433W        W34694  12.202   6.297  12.616 -0.1138 -0.1052  0.2290
18434W        W34695  18.270   2.739  12.779  0.0090 -0.1016  0.1771
18435W        W34696   1.835   9.992  12.816 -0.4217  0.0176 -0.0355
18436W        W34697  15.662   9.004   0.733  0.0124  0.0018 -0.0647
18437W        W34698  10.777   5.772  14.729 -0.0532 -0.1020  0.0643
18438W        W34699   2.847   5.395  14.902  0.0565 -0.0487 -0.0185
18439W        W34700   1.259  18.369   4.395 -0.0315 -0.1181  0.1584
18440W        W34701  17.548  13.787   3.571  0.0243 -0.5974 -0.1971
18441W        W34702   8.126   7.187  13.166 -0.1359 -0.4756  0.0961
18442W        W34703   4.148  17.020  12.829  0.0046 -0.0212 -0.3309
18443W        W34704   4.273  10.869   3.884 -0.2365 -0.1323 -0.1563
18444W        W34705  12.849   4.793  12.057 -0.0425  0.2937 -0.1888
18445W        W34706  16.474   8.271   2.639 -0.0442 -0.0710  0.1529
18446W        W34707   6.932  16.897   2.202  0.1891  0.1640  0.2896
18447W        W34708   2.715  15.667  13.613  0.1147  0.3229  0.1403
18448W        W34709  16.355   6.242  14.949 -0.0213  0.1441  0.4422
18449W        W34710   2.396  10.023  13.703 -0.0135 -0.3435  0.4727
18450W        W34711  18.054   1.120   0.385 -0.0008  0.0465  0.1720
18451W        W34712   4.694   1.574   5.969 -0.0175  0.2000 -0.0080
18452W        W34713  10.663   7.955   2.376 -0.0354  0.0311 -0.1293
18453W        W34714  17.848   4.219   4.187 -0.0833 -0.1129  0.1226
18454W        W34715  13.940   8.319   0.074  0.0876  0.0682  0.2724
18455W        W34716   0.512   4.986   5.158 -0.2315 -0.2033 -0.2623
18456W        W34717  15.579   8.623  11.623  0.1983  0.2543  0.0845
18457W        W34718   6.146   8.961  15.938  0.3172 -0.0523  0.2722
18458W        W34719  12.592   0.388  15.382 -0.1990  0.2063 -0.2624
18459W        W34720  15.765   7.823  11.751 -0.0362 -0.0150  0.1934
18460W        W34721  10.010  16.181   0.129 -0.1342 -0.1426  0.0665
18461W        W34722   1.754   9.036   4.946  0.1054  0.3637  0.2160
18462W        W34723   2.066  18.057   0.762 -0.0135 -0.2713 -0.0293
18463W        W34724   9.945   1.646   4.425 -0.2771 -0.3322 -0.2847
18464W        W34725   3.366   9.701   2.155  0.0036 -0.2551  0.0301
18465W        W34726  11.722  18.347   1.392  0.1653 -0.1411 -0.1883
18466W        W34727  13.810   6.682   5.177  0.5667  0.0707 -0.5197
18467W        W34728   4.334  13.667  14.324 -0.1259  0.0938 -0.0776
18468W        W34729  10.124  13.765  12.185  0.0964  0.2183 -0.0346
18469W        W34730  11.262   9.980  14.639 -0.1961 -0.3831 -0.3105
18470W        W34731   7.685   3.725   6.592  0.3396 -0.0211 -0.1534
18471W        W34732  18.407  11.414   1.474 -0.1228  0.2878  0.2265
18472W        W34733   5.056   1.021   3.372  0.2589  0.2850  0.1280
18473W        W34734   3.986  11.259  12.209 -0.3547  0.0324 -0.3448
18474W        W34735  17.912   5.334   2.760  0.4059  0.0695  0.1024
18475W        W34736  14.977   9.418   1.738 -0.0756 -0.2578  0.0995
18476W        W34737  10.588   1.773  12.856 -0.0846 -0.4764 -0.2974
18477W        W34738  13.436   9.436   4.501 -0.1023  0.2015  0.1048
18478W        W34739   7.615  16.880   3.961 -0.0537 -0.0218  0.1572
18479W        W34740  16.695   5.847  13.319  0.0919  0.1831 -0.1722
18480W        W34741   1.864   9.306  12.078  0.2790 -0.4411 -0.2044
18481W        W34742  13.862   6.395   5.593  0.0240  0.1135 -0.0915
18482W        W34743   1.674  17.030  13.325  0.2650 -0.2532  0.0760
18483W        W34744   0.421  13.006  13.981 -0.0265  0.0590  0.1516
18484W        W34745   6.133  12.216  11.883  0.0234  0.0863  0.1713
18485W        W34746   8.091  10.099   3.109 -0.1937  0.2789 -0.2465
18486W        W34747   2.954  17.659   3.169 -0.3367  0.0782  0.1005
18487W        W34748   3.429   1.343   1.542 -0.3964  0.0081  0.2623
18488W        W34749  11.217   4.606   0.046  0.0470  0.0597  0.1404
18489W        W34750   4.849  14.858  14.900 -0.3683 -0.2421  0.3137
18490W        W34751   2.894  16.865  14.659  0.0229 -0.2177  0.0007
18491W        W34752  12.457   1.031  12.786 -0.0654 -0.0181 -0.1470
18492W        W34753  15.552  18.419   1.495  0.3333  0.0580 -0.0737
18493W        W34754   7.738  15.620  15.343  0.0178  0.4577 -0.5572
18494W        W34755  14.189  10.246  13.644  0.3192  0.2541  0.2849
18495W        W34756  16.128  18.116  11.774  0.1464  0.1564 -0.4501
18496W        W34757   7.587   3.513  12.395 -0.0841 -0.2122  0.0227
18497W        W34758   3.385   2.748   6.480  0.0614 -0.1717  0.0532
18498W        W34759  13.641  13.445   3.565  0.1378 -0.2058  0.0833
18499W        W34760   8.428  15.712   1.252 -0.0082 -0.2518  0.4701
18500W        W34761  13.578  14.618  11.481 -0.0659  0.1869 -0.2494
18501W        W34762   2.790  12.195  15.616  0.0822  0.1520 -0.3253
18502W        W34763   8.597  11.593   2.529  0.0571  0.1069  0.1056
18503W        W34764   1.777  18.149   2.275  0.0730 -0.0719  0.0413
18504W        W34765   8.785  17.948   4.022  0.1946  0.1167 -0.1178
18505W        W34766   1.394   2.287   5.350  0.6612  0.4508 -0.0300
18506W        W34767   5.082  17.417   3.527 -0.0151 -0.0049  0.1599
18507W        W34768  18.061   4.377  13.268 -0.1164 -0.2185  0.0879
18508W        W34769  16.188   3.540   2.451  0.2056  0.0083  0.1174
18509W        W34770  15.570   3.807   3.097  0.0335  0.2222  0.1701
18510W        W34771   4.291  14.683   3.766  0.0389  0.1650 -0.2175
18511W        W34772  15.171   1.671   3.186  0.1861 -0.2325  0.0758
18512W        W34773  15.672  18.193  15.113  0.1889  0.2708  0.0788
18513W        W34774   9.390  16.833   3.820 -0.1046 -0.1607 -0.0966
18514W        W34775   7.743  12.049  11.313  0.0413 -0.2432  0.0228
18515W        W34776   7.350  16.507  11.219 -0.1251  0.0525 -0.1537
18516W        W34777   6.140   3.502   4.222  0.2252 -0.1867  0.2689
18517W        W34778  17.370   2.667  14.601  0.0867 -0.2126  0.0187
18518W        W34779   8.344   7.628  14.800 -0.0344  0.0177 -0.2270
18519W        W34780   2.712  10.164  12.954  0.1646  0.0279  0.2797
18520W        W34781  17.589  13.096  12.223 -0.3989 -0.3913  0.3840
18521W        W34782  15.600  14.884   0.948 -0.2013  0.0471  0.2556
18522W        W34783  16.150  17.559  13.623  0.0793  0.0074  0.0663
18523W        W34784   3.552   4.224   5.100  0.0633 -0.3997  0.1020
18524W        W34785   7.240   6.422   5.302  0.0946 -0.2369 -0.2396
18525W        W34786   2.272  16.416  14.635  0.2593  0.1843  0.0599
18526W        W34787   5.146   4.086   4.415  0.0285  0.1441 -0.0004
18527W        W34788   3.824   2.886  14.394  0.1463  0.0848 -0.0319
18528W        W34789   7.340   4.941   4.099 -0.0542  0.0366 -0.3272
18529W        W34790  18.382   2.529   2.761 -0.0744  0.4050  0.2101
18530W        W34791  10.052  17.281  12.821 -0.2060 -0.0600 -0.3058
18531W        W34792  16.353  12.434  11.754 -0.2852 -0.0158  0.1425
18532W        W34793  11.963  15.317   1.767 -0.1113 -0.2010 -0.0299
18533W        W34794  12.617  11.695  15.513 -0.0484 -0.1572  0.3437
18534W        W34795  14.001  15.851  10.208 -0.1582 -0.3379  0.2178
18535W        W34796   4.476   4.897   4.879 -0.2317 -0.0536 -0.2655
18536W        W34797  14.514   4.128  12.567 -0.1413 -0.2375  0.1984
18537W        W34798  17.961   1.274  14.592  0.0760 -0.1060  0.0424
18538W        W34799  11.713  10.072   4.692 -0.2921 -0.1163 -0.0747
18539W        W34800  10.090   0.535  14.181  0.2835 -0.1380 -0.3140
18540W        W34801  16.731   4.356  16.057 -0.0899  0.2847  0.0499
18541W        W34802   9.004  11.420  15.854 -0.0287  0.0590  0.1761
18542W        W34803  17.654   0.915  12.755 -0.1417  0.1349 -0.3348
18543W        W34804  14.717   5.897   3.609 -0.1653  0.0847  0.1107
18544W        W34805  15.700   6.993  12.016  0.2174  0.1251 -0.2317
18545W        W34806   2.062   6.047   0.944  0.1716 -0.0640  0.0341
18546W        W34807  16.514  17.229  14.373 -0.0719  0.2979 -0.0276
18547W        W34808  14.221  11.247  12.062  0.0478  0.0750  0.0574
18548W        W34809   3.224  18.233   0.689  0.0969 -0.2100 -0.0972
18549W        W34810  15.711  10.973  15.704  0.2161  0.2968 -0.0217
18550W        W34811   8.148   2.082  14.178 -0.4367  0.3717  0.2870
18551W        W34812   4.780  12.710   4.768  0.0529 -0.0755  0.0866
18552W        W34813   0.522   2.501   3.491 -0.3669  0.1137 -0.0489
18553W        W34814  18.022   5.587   5.227  0.1221  0.1375 -0.4649
18554W        W34815  14.142   2.241  15.627 -0.3488  0.0788  0.3119
18555W        W34816  15.167   1.727   1.794 -0.0918 -0.1588 -0.0926
18556W        W34817   7.834  13.700  14.375 -0.0429 -0.0127 -0.2491
18557W        W34818  14.742   6.722  12.141 -0.1264  0.0937 -0.2584
18558W        W34819   7.616   5.740   2.249 -0.2161 -0.1284  0.1709
18559W        W34820   4.622  16.039  11.994 -0.1075 -0.1109 -0.1968
18560W        W34821   1.782   4.427   2.491 -0.0976 -0.1107  0.1921
18561W        W34822   7.294   1.697   3.608 -0.0503  0.1326  0.0495
18562W        W34823   1.838  17.584  15.221  0.0382 -0.2889  0.0136
18563W        W34824  14.416   9.734   4.844 -0.0743  0.0771 -0.1188
18564W        W34825   6.032  15.298   3.745 -0.2133  0.2489 -0.0298
18565W        W34826   3.024  17.678  15.189 -0.4479  0.3607 -0.0465
18566W        W34827  16.466  13.989  15.929 -0.0180 -0.3213  0.1230
18567W        W34828  17.589   8.916  11.871  0.3682 -0.2230 -0.0348
18568W        W34829  18.125   3.099   3.529  0.1371  0.2228 -0.1204
18569W        W34830   8.387  10.281  13.990 -0.1871  0.0863 -0.2998
18570W        W34831   0.120  16.101  14.072  0.1932  0.0574 -0.0005
18571W        W34832  15.905  16.773   3.871 -0.0311 -0.1743  0.5258
18572W        W34833   7.456  11.113  14.946  0.0651 -0.1400  0.1103
18573W        W34834  17.571   9.768  11.328 -0.1955  0.0520  0.0771
18574W        W34835   6.696  16.499   3.686 -0.0458 -0.2027  0.1315
18575W        W34836   4.102  18.443  13.587  0.1074 -0.1352 -0.0094
18576W        W34837   0.893  18.319   5.364 -0.5926  0.0970  0.1428
18577W        W34838   7.405   5.239   3.685  0.0535 -0.3576 -0.3267
18578W        W34839  15.409  12.365   0.271 -0.3227 -0.1086  0.0730
18579W        W34840   5.049  13.868   4.869  0.2482 -0.3341  0.0101
18580W        W34841  11.374  12.748  11.375  0.0554 -0.3122 -0.1488
18581W        W34842  18.460  17.525   4.163  0.0354 -0.0340 -0.1766
18582W        W34843  13.280  14.890  11.061  0.1482 -0.0007 -0.0637
18583W        W34844   5.724   2.819   4.359  0.2381 -0.0010 -0.0970
18584W        W34845   7.493  13.559  13.052 -0.0678  0.2447 -0.2572
18585W        W34846   9.054  16.087   5.456 -0.3199 -0.0678 -0.2449
18586W        W34847   6.553  13.585   6.433 -0.0408 -0.3069 -0.1284
18587W        W34848  12.696   5.883   2.214 -0.1736  0.2125  0.3014
18588W        W34849   8.648  16.368   4.663  0.0924 -0.4077  0.2865
18589W        W34850   3.984   7.160  12.798 -0.2684  0.0677  0.2358
18590W        W34851   9.239   1.755  12.561 -0.0768  0.0661  0.0405
18591W        W34852   3.514   1.124   4.364 -0.1200 -0.4051  0.0566
18592W        W34853  14.598   8.620   1.928  0.0749 -0.1327 -0.0433
18593W        W34854   0.294  14.926  14.609  0.1234 -0.0056 -0.1993
18594W        W34855   6.479  16.500   1.575  0.1005  0.1828  0.0862
18595W        W34856  18.481  16.293   3.443 -0.1726 -0.4051  0.0495
18596W        W34857   8.066  10.102   5.888 -0.4939  0.2587 -0.2833
18597W        W34858  12.118   3.471  14.472  0.1629 -0.2273  0.2003
18598W        W34859   4.456   9.344   3.324 -0.0553 -0.1352  0.0354
18599W        W34860  15.936   2.361   4.715  0.0185 -0.0308  0.1430
18600W        W34861   2.761   3.054   0.354  0.2167 -0.0002 -0.1359
18601W        W34862   0.573   4.448   5.306  0.3674 -0.2464 -0.0784
18602W        W34863   8.234   0.622   4.345 -0.2239 -0.0147  0.1406
18603W        W34864   4.201  11.239   0.672 -0.4133 -0.0521  0.0513
18604W        W34865  13.350   1.489   4.772  0.2085 -0.2793 -0.0468
18605W        W34866   3.433   0.614   4.221  0.3657 -0.3870  0.0719
18606W        W34867   5.917   3.713  13.038 -0.0039 -0.3170  0.0128
18607W        W34868   5.749   5.625   5.819  0.3474  0.0075  0.0425
18608W        W34869  11.332   2.979   1.514  0.2302  0.0607  0.3682
18609W        W34870   2.487  12.485   4.474 -0.0413  0.1245 -0.2475
18610W        W34871   6.045   5.960   4.045 -0.2897  0.0183  0.0805
18611W        W34872   6.000   4.274   2.310  0.2520  0.1993 -0.0500
18612W        W34873   8.287  14.635   2.460 -0.2671  0.1118 -0.0039
18613W        W34874  15.327   5.307  12.820 -0.1916 -0.3755 -0.0783
18614W        W34875  12.680   4.816   5.190  0.2213  0.0250 -0.2214
18615W        W34876  16.977  14.343  13.987 -0.2015 -0.0345  0.0382
18616W        W34877  13.105   2.363   1.228 -0.1785 -0.0803 -0.2093
18617W        W34878   9.272  10.016  13.434  0.1549  0.3089  0.3067
18618W        W34879   4.116   6.578   3.474 -0.1471 -0.6265  0.0223
18619W        W34880   0.860  14.538   3.874  0.0977  0.2917 -0.1213
18620W        W34881  13.391   9.613   1.672  0.1315 -0.0702 -0.0774
18621W        W34882  16.471  11.474   2.089 -0.0041  0.1350 -0.2452
18622W        W34883  10.105   1.606  12.586  0.2356 -0.3074  0.2282
18623W        W34884  13.445  16.325  11.714  0.0079 -0.1560 -0.3854
18624W        W34885   4.458   2.500   3.930 -0.1098 -0.1765 -0.2741
18625W        W34886   9.772  18.076   0.102 -0.0942  0.1399 -0.2787
18626W        W34887   5.314   5.058   2.415  0.0996 -0.5045  0.2393
18627W        W34888   0.851   6.080  12.631  0.1103  0.0868 -0.0168
18628W        W34889  16.331   7.340   4.076  0.1359 -0.0276 -0.0330
18629W        W34890   7.703  16.820   4.487  0.0174  0.2421  0.0868
18630W        W34891   0.604   0.255  15.357  0.1891 -0.0180 -0.1519
18631W        W34892   3.475   2.247  13.859 -0.3705  0.0209  0.0555
18632W        W34893  15.180   0.583   0.821  0.0968  0.3579 -0.2082
18633W        W34894   2.962   7.927   1.545 -0.1040  0.2035 -0.2088
18634W        W34895   6.566  17.295   2.069 -0.1050 -0.0652  0.2990
18635W        W34896  12.610   8.860  12.644 -0.1421 -0.3170 -0.0528
18636W        W34897   1.407   0.377   0.394 -0.1694 -0.0378 -0.0615
18637W        W34898   3.131   8.910   6.029  0.2786 -0.3348 -0.1168
18638W        W34899  12.757  10.364  11.457 -0.0229 -0.4562  0.0050
18639W        W34900  17.431  11.100   3.645 -0.3205  0.3418 -0.1583
18640W        W34901  17.762   1.918   1.784  0.2544  0.3851  0.0926
18641W        W34902   8.250   8.495  13.027  0.0323 -0.0914 -0.2785
18642W        W34903   1.268  11.011   4.473 -0.0098  0.1489  0.0191
18643W        W34904  12.451  11.516  13.499 -0.1919  0.0853  0.0149
18644W        W34905  13.246   1.076   0.081  0.0962 -0.1754  0.4237
18645W        W34906   1.422   0.482   5.495  0.0916 -0.1855 -0.2744
18646W        W34907   9.844  17.953   3.687  0.0454 -0.1400 -0.2247
18647W        W34908  13.023   1.177  14.390  0.0784  0.0179 -0.0822
18648W        W34909  14.404  13.947   4.142  0.1059  0.2882 -0.0998
18649W        W34910  16.814  11.470   1.642  0.0855  0.0423  0.3999
18650W        W34911  14.794   1.722  15.981  0.1602 -0.0600 -0.0244
18651W        W34912  11.775   6.732   2.772 -0.0123 -0.0947 -0.0085
18652W        W34913  11.938  10.591  15.631  0.0522 -0.0506 -0.1599
18653W        W34914  10.048   5.316   4.962  0.0613  0.0508  0.1391
18654W        W34915  16.315   5.056   2.666 -0.0296  0.0346  0.0613
18655W        W34916   8.380   2.848   0.901 -0.1511 -0.0314 -0.1511
18656W        W34917   1.566   3.745  14.700 -0.0946 -0.0784  0.0867
18657W        W34918  15.434   5.025  10.424 -0.0704  0.0334 -0.0227
18658W        W34919   0.983   9.584  12.671  0.2200  0.0116 -0.1534
18659W        W34920   9.612   6.457   4.426  0.1292  0.1511  0.5041
18660W        W34921   1.338   4.661  14.556  0.1210  0.0534 -0.2660
18661W        W34922   4.866  14.445  11.283  0.1363  0.0236 -0.1612
18662W        W34923  13.862  12.711  14.583  0.1655 -0.1770  0.2267
18663W        W34924  18.439   8.594   4.386  0.1902 -0.0157 -0.1664
18664W        W34925   9.359  13.813   3.919 -0.2664  0.2241 -0.0425
18665W        W34926  11.814  12.948  16.127 -0.0898  0.1117  0.0916
18666W        W34927   0.950  13.057  15.794 -0.1874 -0.0863 -0.1038
18667W        W34928   4.844   8.630  11.641  0.0105 -0.0869 -0.0329
18668W        W34929   6.181   7.474  12.145 -0.1832  0.1396  0.1024
18669W        W34930  17.795  14.437   4.630  0.2735 -0.1211  0.1639
18670W        W34931  12.833  17.438   1.033 -0.1808  0.0086  0.0600
18671W        W34932  10.484   1.275  15.583  0.0254 -0.0325 -0.0217
18672W        W34933   9.968   0.928  11.883  0.2235  0.3524 -0.1675
18673W        W34934   0.586   7.174   4.831 -0.2833 -0.1159 -0.1183
18674W        W34935   6.297  12.869  13.894 -0.2971  0.0555  0.1434
18675W        W34936  13.085   2.731   4.678 -0.1097  0.2838  0.2255
18676W        W34937  13.610   2.923   2.965 -0.1673  0.2515 -0.0815
18677W        W34938   7.338   0.310   0.920  0.0872  0.0107  0.2036
18678W        W34939  12.119   6.862  13.614 -0.2294  0.0499  0.0706
18679W        W34940  13.098  14.363  13.098 -0.2285 -0.0634  0.1325
18680W        W34941  16.211  10.661   2.291  0.0493  0.2916  0.2078
18681W        W34942  11.690   0.472   3.882  0.0716 -0.0114 -0.0388
18682W        W34943  17.808  14.101  10.384 -0.4125  0.1614  0.0897
18683W        W34944   3.827   9.075  12.518  0.1455 -0.2422 -0.0142
18684W        W34945  14.864  12.422   4.899  0.2913 -0.0165  0.0930
18685W        W34946  13.422   3.406  12.498 -0.0497 -0.2691  0.2428
18686W        W34947   5.891  17.091  15.171 -0.1705 -0.1526  0.2513
18687W        W34948  11.889   5.426   1.326  0.0494  0.1072 -0.1499
18688W        W34949   2.518  16.098   5.845  0.3112 -0.0060  0.0757
18689W        W34950  11.506   1.507   4.101  0.1704  0.3162  0.1016
18690W        W34951   6.612  10.475  11.619  0.0257  0.1104 -0.2839
18691W        W34952   1.327  16.118   2.500  0.0825  0.0777 -0.1575
18692W        W34953   2.915   7.922  14.462  0.2956 -0.0068  0.1988
18693W        W34954  18.411  11.810   2.225 -0.2962 -0.0817 -0.3790
18694W        W34955  15.257  17.884   2.862  0.0507  0.2786  0.0189
18695W        W34956   6.318   6.264   2.710  0.1596  0.1225  0.2565
18696W        W34957   4.730   0.624  11.623  0.0475  0.2399  0.0198
18697W        W34958   8.707  17.191  15.267  0.0251  0.2977 -0.2219
18698W        W34959   6.996   7.209  14.973 -0.2408  0.1868 -0.1074
18699W        W34960   2.135  13.828  13.230  0.1622 -0.0179  0.6191
18700W        W34961   9.449   3.286   1.907 -0.0706  0.2481 -0.0532
18701W        W34962  14.533  17.427   0.384  0.0963  0.1624  0.2887
18702W        W34963  12.706  14.910  15.637  0.2354  0.1242 -0.0405
18703W        W34964   3.727   2.419   6.398  0.1034 -0.1824  0.0432
18704W        W34965  18.478  16.712  13.241  0.0874  0.0452 -0.1433
18705W        W34966  15.636   4.761   3.576 -0.1884  0.1208  0.1647
18706W        W34967  15.802  15.517   1.360  0.2038  0.0854 -0.3548
18707W        W34968   1.893  10.871  11.121 -0.1893 -0.0490 -0.4005
18708W        W34969   1.966  18.105  14.892 -0.0397  0.0574  0.0867
18709W        W34970   7.528  16.395   3.874  0.0372  0.0061 -0.1587
18710W        W34971  10.853  10.084  15.693 -0.0843 -0.1940  0.0800
18711W        W34972   4.729  13.608   1.770 -0.4801 -0.1204  0.3022
18712W        W34973   8.669  14.531   2.174 -0.3212 -0.2765  0.1517
18713W        W34974  14.258  12.282  13.929 -0.1601  0.2478  0.3344
18714W        W34975  17.715  17.029   4.221  0.0616 -0.1000  0.0993
18715W        W34976  17.443   1.142   1.557 -0.0585 -0.1071 -0.3106
18716W        W34977  17.964   4.966  13.136 -0.0860  0.1068  0.1265
18717W        W34978   0.123  16.076   1.540 -0.0038  0.3723 -0.0668
18718W        W34979  17.831  10.586  11.887 -0.1686  0.3234 -0.0792
18719W        W34980   3.991   5.740  13.806  0.0893  0.0023 -0.0595
18720W        W34981   6.857   6.860  13.486 -0.1137  0.1765  0.1000
18721W        W34982   4.412   3.238   5.453 -0.2812 -0.0543  0.0370
18722W        W34983  14.433  15.329   5.396  0.1191  0.2116 -0.0985
18723W        W34984   1.603   5.666  13.701 -0.2772 -0.0252  0.2026
18724W        W34985  11.115  11.992  15.830 -0.1461 -0.0775 -0.0972
18725W        W34986   1.379   6.596   4.520  0.0192 -0.3663  0.1566
18726W        W34987  12.865   1.699   4.740 -0.1918 -0.1323  0.0909
18727W        W34988   9.130  17.785   4.373  0.0023 -0.3944 -0.1433
18728W        W34989  16.048  18.381  10.499  0.2493 -0.1574 -0.3667
18729W        W34990   9.016   8.348   4.185 -0.1274  0.3523 -0.0972
18730W        W34991   0.830  12.784   3.605 -0.3200 -0.1075  0.1854
18731W        W34992  12.757  12.482  14.510 -0.0625 -0.2039 -0.2438
18732W        W34993  13.595  10.953  14.991  0.0845 -0.0019 -0.0140
18733W        W34994   3.113  10.431   5.351  0.1002 -0.4631 -0.0324
18734W        W34995  14.041   2.668   0.617 -0.0016  0.1605  0.3921
18735W        W34996  15.962   2.477  13.440  0.2221 -0.2090 -0.0329
18736W        W34997   3.094  13.436   3.491  0.0890  0.0392 -0.0294
18737W        W34998   5.759   8.195   3.405  0.3021  0.3864  0.2974
18738W        W34999   2.272   3.039  14.042  0.1606 -0.0120  0.0838
18739W        W35000   0.575  16.082  12.050 -0.0288 -0.2264 -0.0384
18740W        W35001   8.657  12.960  13.619  0.1289  0.2236  0.0360
18741W        W35002   6.575  14.723   1.094 -0.0113  0.1633  0.3398
18742W        W35003   3.333   9.527  13.198 -0.0875 -0.3888 -0.4506
18743W        W35004  14.347   7.002  11.813 -0.0287  0.1579 -0.4999
18744W        W35005  10.349   6.603   0.339 -0.0116  0.4132 -0.0682
18745W        W35006   4.751   7.306  15.902 -0.1614  0.0331  0.0849
18746W        W35007  18.351   1.230   2.347 -0.2846 -0.3400 -0.1771
18747W        W35008  11.417   7.128  12.321  0.0800  0.1266 -0.3916
18748W        W35009  15.314   0.778  14.418 -0.0555 -0.2832 -0.1760
18749W        W35010  17.137  18.212   2.145  0.1338  0.0456  0.2527
18750W        W35011   4.441   3.605   2.218  0.2918 -0.2065 -0.0306
18751W        W35012  12.658  13.049   2.507  0.0201  0.0420 -0.3485
18752W        W35013   0.430   0.583   2.929  0.1606  0.0777  0.0524
18753W        W35014  16.459   8.199   2.112  0.0764  0.2851  0.2837
18754W        W35015   5.338  15.177  13.772  0.1540 -0.2080 -0.1260
18755W        W35016   2.012   5.644  14.020 -0.0060 -0.0837  0.2082
18756W        W35017   0.282   0.109  16.184 -0.1289  0.1656  0.0382
18757W        W35018   0.176   2.671   0.869 -0.0813 -0.1450 -0.2849
18758W        W35019  15.073   4.983  13.163 -0.0117 -0.3939  0.1195
18759W        W35020  10.532   1.433  14.392 -0.3642  0.0606  0.1160
18760W        W35021   4.115   9.712  14.658 -0.0087  0.0510 -0.1475
18761W        W35022   7.898   5.450   3.599  0.0448  0.0418  0.1280
18762W        W35023  18.030  17.955   5.112 -0.2871  0.1489  0.2506
18763W        W35024   8.427   6.180   5.358 -0.0459 -0.0927 -0.2836
18764W        W35025   4.046  12.728   5.522 -0.3074  0.3767 -0.2486
18765W        W35026  14.108  16.133   5.301  0.2295  0.0567  0.0602
18766W        W35027   7.447  18.264  12.900  0.1355  0.1945  0.0236
18767W        W35028   4.275   0.866   5.899  0.1013 -0.2426 -0.2018
18768W        W35029   7.848   5.218   1.849  0.0702 -0.0177  0.1129
18769W        W35030   4.807  12.526  12.007  0.1296  0.2219  0.1588
18770W        W35031   0.403  13.566   4.540  0.0195 -0.1019  0.4068
18771W        W35032  15.450  16.102  11.392 -0.0256  0.1005 -0.1387
18772W        W35033   2.434  18.032  11.325 -0.2925 -0.1784 -0.2146
18773W        W35034   7.247   1.864   0.340 -0.0496  0.2360  0.1567
18774W        W35035  18.204  12.644   1.949  0.1738 -0.1296  0.3010
18775W        W35036  14.726  14.785  14.900 -0.1778 -0.1063 -0.1261
18776W        W35037  18.381   9.015   4.081  0.1128  0.2200 -0.0672
18777W        W35038  16.955  13.082  14.775 -0.0997  0.0497 -0.2017
18778W        W35039  14.327   6.182   4.784  0.0845 -0.1219  0.1659
18779W        W35040   0.056   9.583   0.578  0.2020 -0.1266  0.0678
18780W        W35041  12.681  18.088   0.727 -0.1481 -0.3369 -0.2387
18781W        W35042   8.665   1.396   2.852 -0.0234  0.1529  0.2492
18782W        W35043  14.128  18.022  11.694  0.0611  0.3885 -0.1880
18783W        W35044   1.402  10.430   4.634 -0.1023  0.1720 -0.1335
18784W        W35045  12.167  10.902  15.279  0.1333 -0.2610  0.1533
18785W        W35046  17.708   8.096   0.867  0.0293 -0.1568  0.1815
18786W        W35047   7.053   5.261   0.142  0.0988 -0.1274  0.0800
18787W        W35048  12.815  17.406   3.984 -0.0534 -0.1687 -0.2531
18788W        W35049   2.568  10.017   2.651  0.0314 -0.1601 -0.1232
18789W        W35050   7.624   9.107  15.275  0.2790 -0.0839  0.1276
18790W        W35051   7.112   5.951   1.626  0.1803  0.1893  0.2253
18791W        W35052  18.109  13.323   3.324 -0.1400  0.1550  0.2507
18792W        W35053   2.159   6.250   2.235  0.2842 -0.0962 -0.0294
18793W        W35054   4.074   4.193  15.609 -0.0707  0.0651 -0.1459
18794W        W35055  10.899  11.897  11.247  0.2234  0.1357 -0.0738
18795W        W35056  12.216   9.753   0.606 -0.1397 -0.2950 -0.0073
18796W        W35057   4.408   7.743   2.231 -0.0821  0.2002 -0.2056
18797W        W35058   2.798   9.730   3.007 -0.0666  0.1470 -0.2785
18798W        W35059  12.881  10.481   1.105 -0.1898 -0.2280 -0.0471
18799W        W35060   8.542  12.325  12.967  0.2868  0.0028  0.1694
18800W        W35061  15.315   6.348   4.165  0.3720 -0.3813 -0.2391
18801W        W35062   0.022  12.056  11.272 -0.1862 -0.1029  0.0624
18802W        W35063  12.184   9.853  10.249 -0.3258  0.0289  0.0215
18803W        W35064  13.153  10.626  15.067 -0.1354 -0.0758  0.1934
18804W        W35065   2.088   3.395   3.259 -0.1588 -0.3809 -0.1531
18805W        W35066  18.463  10.424  15.683  0.1322  0.3052 -0.0834
18806W        W35067   2.864   8.286   2.974 -0.2132  0.0833 -0.1310
18807W        W35068   1.919  11.133   6.414 -0.2882 -0.3147 -0.1033
18808W        W35069   7.711   0.429  15.052 -0.1544  0.0369 -0.1321
18809W        W35070  15.948  12.423  13.562 -0.1251  0.0338  0.3939
18810W        W35071   3.565   1.837   2.275  0.3060  0.3205 -0.4518
18811W        W35072  14.657  15.127  15.840 -0.1832  0.2378 -0.0562
18812W        W35073  11.148   3.457  15.287  0.1540 -0.1185  0.0566
18813W        W35074  15.597   1.491  11.923 -0.1472 -0.0411 -0.1466
18814W        W35075  18.156   1.625  13.204 -0.3071  0.0495  0.2969
18815W        W35076  11.456  15.109  12.671 -0.0879 -0.1656 -0.0449
18816W        W35077   0.935   4.135   5.312 -0.1820 -0.2317  0.3566
18817W        W35078  14.284  11.674  13.566  0.2932 -0.2946 -0.1406
18818W        W35079   2.964  11.485  14.176  0.0432  0.2052  0.0029
18819W        W35080   2.951  10.737  11.623 -0.0631 -0.1445  0.1483
18820W        W35081  13.631   7.653   6.183  0.1813 -0.1261 -0.1508
18821W        W35082  14.754   2.081   0.276  0.1022  0.2120  0.2079
18822W        W35083  11.998  14.962   1.342  0.1156  0.0997  0.1667
18823W        W35084  13.196  11.338   3.907  0.2472  0.1242  0.0664
18824W        W35085   2.405   3.082   3.883 -0.2245 -0.0877 -0.1954
18825W        W35086   2.216  14.416   2.771  0.1075 -0.2012  0.3254
18826W        W35087   5.639   5.112   0.288  0.1386 -0.2517  0.0792
18827W        W35088  11.220  14.469   1.055 -0.4406 -0.3112 -0.0620
18828W        W35089  18.272   9.595  13.495 -0.0548 -0.0223  0.0592
18829W        W35090  11.505   1.174  12.248  0.3907  0.3324  0.1438
18830W        W35091   3.525  14.639   4.002  0.1022 -0.0471 -0.1865
18831W        W35092   8.686  13.558   1.782  0.1757  0.1069  0.3871
18832W        W35093   8.165  15.754  15.589  0.0070 -0.2685 -0.1162
18833W        W35094   1.304  10.097  15.864 -0.1312  0.0737 -0.0075
18834W        W35095  13.265   1.460  10.935 -0.0093  0.1857  0.1973
18835W        W35096  17.598  14.322  12.549 -0.2579  0.2144  0.1881
18836W        W35097   9.668   7.942  15.219 -0.3880  0.3043  0.2376
18837W        W35098  18.043  17.094   0.007  0.0996 -0.0668  0.2609
18838W        W35099   0.093  13.521   0.948  0.1567 -0.2065  0.0593
18839W        W35100  14.153  12.710   0.843 -0.0087  0.0055 -0.0263
18840W        W35101   3.462   6.067  10.667  0.3003  0.0527  0.0223
18841W        W35102  14.861   5.100   0.502  0.0551  0.1477 -0.2748
18842W        W35103  13.988  11.136   0.319  0.0985 -0.3468  0.0455
18843W        W35104   5.126   4.294  14.343  0.1898 -0.0677 -0.0391
18844W        W35105  12.669   7.644  12.444  0.1875 -0.2225  0.0033
18845W        W35106  13.531  13.951   1.645  0.0918  0.2252 -0.5995
18846W        W35107  11.194   9.046   0.789 -0.0897 -0.1545  0.0773
18847W        W35108  12.744  14.060  14.745 -0.1802 -0.4917  0.1579
18848W        W35109   7.867   4.148   3.010 -0.4268 -0.0273  0.1345
18849W        W35110  16.802  15.961   3.147  0.1833  0.1490 -0.1829
18850W        W35111   4.205  14.857  13.481  0.2214  0.2236  0.0604
18851W        W35112   6.707  18.189   4.849 -0.0910 -0.0432  0.1485
18852W        W35113   8.860  10.086   1.775 -0.0753  0.0105  0.1137
18853W        W35114  15.768  11.607  13.118 -0.4311 -0.1425  0.0263
18854W        W35115  12.904   4.097   4.537 -0.1549 -0.2291  0.0505
18855W        W35116  14.882  11.752  10.611 -0.0083  0.1148 -0.0434
18856W        W35117   9.543  17.627   0.825  0.2907  0.1073 -0.0503
18857W        W35118  14.431  12.138  12.882 -0.2036  0.1813 -0.1410
18858W        W35119   8.746  12.866  14.681 -0.1450  0.2907  0.2385
18859W        W35120  18.003  17.960   0.482 -0.2805 -0.2035  0.1358
18860W        W35121  10.850  18.275   3.009  0.2761  0.0989  0.3019
18861W        W35122   2.755  14.227  15.224  0.0786  0.0433 -0.1086
18862W        W35123   1.614   2.205  11.107 -0.2251 -0.1515  0.1255
18863W        W35124   2.402  10.295   3.881 -0.1394  0.0652  0.0832
18864W        W35125   2.844   1.765  11.618  0.1990  0.1610 -0.2266
18865W        W35126   7.617   5.205   2.285  0.1314 -0.0810 -0.0139
18866W        W35127  17.253  15.550   1.966  0.0688 -0.5053 -0.2106
18867W        W35128   9.838   0.050  16.125 -0.2276 -0.1891 -0.2243
18868W        W35129  11.744  13.179  10.926 -0.1850 -0.1807 -0.0941
18869W        W35130   1.089   2.453  11.994  0.2274  0.0083  0.1081
18870W        W35131   3.285   5.657   5.421 -0.2356  0.1032  0.1819
18871W        W35132  11.371  17.782   0.209 -0.1924  0.0722 -0.1353
18872W        W35133   7.210   9.031   3.701  0.0325 -0.1095  0.2273
18873W        W35134   4.500   5.714  12.080  0.2702  0.0503 -0.3448
18874W        W35135  11.335  13.165  10.542 -0.2620  0.0131 -0.0429
18875W        W35136  15.002  15.664   1.023 -0.1725 -0.1701 -0.0829
18876W        W35137   9.489   6.826  13.433  0.1164 -0.0138  0.0578
18877W        W35138  15.286   8.839  12.656 -0.2283 -0.4772  0.0455
18878W        W35139  13.467   8.037   0.773  0.0011  0.2326  0.1307
18879W        W35140   7.962   4.681  12.260 -0.0121 -0.1087 -0.1060
18880W        W35141  10.867  15.413  10.799 -0.0065 -0.0121 -0.0585
18881W        W35142  12.736   0.623   0.526 -0.0097 -0.0883 -0.2295
18882W        W35143  14.974   6.394  11.145  0.3181  0.1110  0.3826
18883W        W35144   8.227   4.176   4.120 -0.0241  0.0290 -0.1958
18884W        W35145   9.584   4.887  16.176  0.0647  0.2108  0.1644
18885W        W35146  17.631   3.515   0.590  0.3098 -0.0062  0.3253
18886W        W35147  11.470  15.240  13.386 -0.1403 -0.1781  0.2651
18887W        W35148   4.363  14.210   3.692 -0.1025  0.3350  0.1016
18888W        W35149   9.062  14.626   2.583 -0.0562 -0.0907  0.1530
18889W        W35150  18.259  17.396  15.847  0.2512 -0.1812  0.1735
18890W        W35151   5.943   7.594   4.095 -0.2074 -0.0218 -0.0265
18891W        W35152  15.995   7.392   2.492 -0.1630  0.1363 -0.2274
18892W        W35153  16.010  10.027  12.241 -0.0735  0.0813 -0.4104
18893W        W35154  12.862   0.738   1.576  0.0231  0.2110 -0.0758
18894W        W35155   9.814   7.293   4.849 -0.2384  0.3742 -0.0394
18895W        W35156   5.887  12.820  15.164 -0.1547 -0.2128  0.2481
18896W        W35157  11.332   9.598  12.121  0.1859  0.0040 -0.3491
18897W        W35158  10.839  16.272  13.511  0.1028 -0.1463  0.2417
18898W        W35159   4.495  16.991   1.143  0.2278 -0.0405  0.1724
18899W        W35160   9.131  17.980  12.337 -0.2754 -0.1267  0.0666
18900W        W35161   6.577  16.337   4.199  0.3095  0.1604 -0.2787
18901W        W35162  12.062   5.660   5.702 -0.0696  0.1618 -0.1874
18902W        W35163  14.566  17.152   1.274 -0.2833 -0.2093  0.3145
18903W        W35164  13.998  18.344  13.385  0.0795  0.3978  0.0886
18904W        W35165  16.969  17.443   2.600  0.1321 -0.0555  0.0577
18905W        W35166   9.794  18.337   1.408  0.0330 -0.0277 -0.0810
18906W        W35167  14.788  10.013   3.605  0.0509 -0.1553  0.0459
18907W        W35168  10.878  10.861  13.730  0.2365  0.1129 -0.2497
18908W        W35169  14.770  18.202  12.530  0.3617  0.1866 -0.0279
18909W        W35170   2.802  18.267   4.888 -0.1470  0.1089 -0.1154
18910W        W35171   3.336   2.832  14.679 -0.4141  0.0694  0.0617
18911W        W35172  17.496  15.839  15.272 -0.1289 -0.1683 -0.1751
18912W        W35173   0.484   6.254   5.711  0.1045  0.2898 -0.1683
18913W        W35174  11.038  16.104  15.400  0.2687 -0.1030  0.0472
18914W        W35175   0.715   9.996   4.818 -0.0564  0.4445  0.0005
18915W        W35176   3.095   3.951  15.572 -0.1308  0.0144  0.3645
18916W        W35177  13.483   8.145   1.243 -0.1796 -0.1075 -0.4258
18917W        W35178  14.535   6.286  11.307  0.0670 -0.4192  0.0367
18918W        W35179   2.213   3.649   3.691  0.0718  0.0802 -0.3258
18919W        W35180  15.821  18.275   3.891 -0.2272  0.4361  0.0783
18920W        W35181  15.654   1.336   1.588  0.3984 -0.1317  0.0082
18921W        W35182  12.891  16.310   3.120  0.6234 -0.1527  0.3790
18922W        W35183   3.147   9.450   3.331  0.1001  0.0915 -0.1633
18923W        W35184   0.730  16.565   2.314 -0.0552 -0.1453 -0.0199
18924W        W35185   3.828  14.604  15.046 -0.4508  0.0030 -0.1160
18925W        W35186   1.025   0.713   3.875 -0.2617  0.0706  0.2118
18926W        W35187   1.365  10.972  11.290 -0.1717  0.1723  0.1158
18927W        W35188   9.038  17.196  14.810 -0.1200  0.2604 -0.0034
18928W        W35189   2.596   7.387  14.435  0.1149  0.2166 -0.2786
18929W        W35190   9.073   4.838  11.547  0.2546 -0.1574  0.0475
18930W        W35191   9.408  17.163  13.364  0.3028  0.1372 -0.1620
18931W        W35192   4.277   8.387  14.509  0.1007  0.0687 -0.0357
18932W        W35193  16.863  12.013   0.216  0.2762  0.3964 -0.0349
18933W        W35194   2.714   1.765  12.147 -0.3919  0.2074 -0.3191
18934W        W35195   5.415   1.452   2.057  0.0339 -0.0287  0.2287
18935W        W35196   3.337   4.856  15.639 -0.3833 -0.0107 -0.3584
18936W        W35197   8.424   2.768   2.315  0.0956  0.1244  0.1072
18937W        W35198  15.690   0.873   4.656 -0.1368 -0.2393 -0.1014
18938W        W35199   2.137  10.360   0.767  0.2786  0.0776 -0.0728
18939W        W35200   3.083  14.355   3.926 -0.2449 -0.0584  0.0623
18940W        W35201   4.683   4.321   4.160  0.1504  0.0814 -0.0167
18941W        W35202  18.230  17.656  14.636 -0.0672  0.0214 -0.4943
18942W        W35203   4.976  13.531   5.198 -0.0825 -0.0122 -0.0047
18943W        W35204   9.310  17.918  14.041 -0.0947 -0.1972  0.3795
18944W        W35205  17.754   3.675  12.575  0.0826  0.0135  0.1908
18945W        W35206   0.769  11.006  13.239 -0.1505 -0.1871  0.0086
18946W        W35207   7.527  16.933   5.511  0.0577 -0.0933 -0.0904
18947W        W35208   5.257   3.624   1.353 -0.1406 -0.0747  0.3687
18948W        W35209   4.127  15.548   4.145  0.2601 -0.5547  0.2904
18949W        W35210   5.306  13.648  14.697 -0.1196 -0.1599 -0.2662
18950W        W35211   7.113  18.148   2.928  0.0612  0.0491 -0.0686
18951W        W35212  16.482   2.999   1.439  0.1079 -0.1161 -0.0465
18952W        W35213   1.593  12.382  16.159 -0.1863  0.0244  0.4595
18953W        W35214  12.309   4.533   4.812  0.2022 -0.1479  0.1380
18954W        W35215   2.428  18.231  14.795 -0.3174  0.1036  0.2742
18955W        W35216  10.431   9.276  14.518 -0.3008 -0.0955 -0.0438
18956W        W35217   3.011  13.441  12.260 -0.0671 -0.0895 -0.0285
18957W        W35218  15.635   9.963  11.913  0.0492  0.1358 -0.1106
18958W        W35219  12.515  12.837   2.922 -0.1242  0.0876 -0.0551
18959W        W35220  16.459   7.888   4.796  0.0397 -0.3356 -0.4368
18960W        W35221   0.768   0.729  13.945  0.0080  0.3324 -0.3030
18961W        W35222   6.905   2.042   5.689 -0.2490  0.0958 -0.4448
18962W        W35223   0.377   5.285  13.760 -0.0034  0.0410  0.2033
18963W        W35224   3.029  12.791  12.681  0.0526 -0.0787  0.2470
18964W        W35225   7.834  14.761   2.958  0.0708 -0.1790 -0.0060
18965W        W35226  11.430   2.109   5.137 -0.1195  0.0192  0.1216
18966W        W35227   2.622   5.687  14.409 -0.3695 -0.1480  0.1686
18967W        W35228   1.727   2.398  13.271 -0.0521 -0.1398 -0.0258
18968W        W35229   0.493   6.534   3.451 -0.1753  0.1445  0.2529
18969W        W35230   3.880  17.962   2.884  0.3447 -0.2366  0.2689
18970W        W35231   3.546   4.071  12.550  0.1079 -0.0596 -0.3361
18971W        W35232  17.640  13.247   0.771 -0.2633 -0.0472 -0.1204
18972W        W35233  16.196  17.114   4.740 -0.0888  0.0414  0.3216
18973W        W35234   1.062  13.383   2.073 -0.0336  0.0155 -0.0292
18974W        W35235   5.101   0.728   6.291 -0.0973  0.2225  0.0333
18975W        W35236   1.194   8.775  11.522  0.0476  0.3899  0.0325
18976W        W35237   3.435   7.026   4.336  0.1295  0.3123  0.1215
18977W        W35238   5.399  13.593  12.031  0.3937  0.1213 -0.1411
18978W        W35239   9.284   5.025  14.427 -0.1256 -0.2304 -0.1481
18979W        W35240   2.716  15.707   2.354 -0.0124  0.0071  0.1316
18980W        W35241   5.617   5.008  15.983  0.2335 -0.1699  0.3501
18981W        W35242   8.692   7.706  15.635  0.0391  0.2412 -0.0522
18982W        W35243   1.069   3.519  11.631 -0.3309 -0.0027 -0.0220
18983W        W35244  12.097  14.843   4.747  0.2588 -0.2076  0.2689
18984W        W35245   7.633   2.434   2.215  0.0472  0.2459  0.1664
18985W        W35246  18.298   0.147  14.710  0.1585 -0.2254  0.3172
18986W        W35247   6.416  12.904   2.019  0.1378 -0.1230  0.1741
18987W        W35248   8.970   9.198  14.064  0.1985 -0.0455  0.0343
18988W        W35249  15.750  12.725   4.325  0.4469 -0.0076  0.2497
18989W        W35250  15.372  13.999  10.485 -0.0947  0.2722 -0.0977
18990W        W35251  15.094   7.830  11.209 -0.1717  0.4480 -0.2970
18991W        W35252   9.037   5.811  15.472 -0.1192 -0.0236 -0.0264
18992W        W35253   5.671  12.702   6.192  0.1355  0.0153  0.0190
18993W        W35254   4.201   7.643   2.730 -0.2223 -0.0028 -0.0565
18994W        W35255   3.025   9.374  13.572 -0.1225 -0.2320 -0.1027
18995W        W35256  13.696  13.627   4.552  0.2035 -0.0775  0.2076
18996W        W35257   3.832   7.753   1.853  0.1359  0.0091 -0.0434
18997W        W35258  15.297   5.861   2.932  0.0176 -0.0607  0.0648
18998W        W35259  13.278   8.179  10.575  0.0960  0.0294 -0.0678
18999W        W35260   7.550   8.223   4.021  0.0253  0.0111 -0.1265
19000W        W35261   1.325  15.924   3.764  0.1490 -0.0159  0.0302
19001W        W35262   7.063  13.960  14.984 -0.0465 -0.2146 -0.0987
19002W        W35263   1.573  16.792  11.373  0.1304  0.3873  0.2371
19003W        W35264   5.021   4.804   4.206  0.5021 -0.0826  0.0005
19004W        W35265  18.111   8.188   5.114  0.1500  0.2479  0.1328
19005W        W35266  13.791   7.219  12.062 -0.3682  0.3072 -0.1515
19006W        W35267   7.304   8.855  13.277  0.2885  0.1478  0.2531
19007W        W35268   0.342   9.249   1.382  0.0847  0.1496  0.1037
19008W        W35269  16.554  18.291   2.740  0.3351 -0.2806  0.0252
19009W        W35270   3.661  11.710   1.783 -0.1346  0.0376  0.1302
19010W        W35271   4.065   6.526  12.077  0.0329 -0.3141  0.0349
19011W        W35272  17.560   4.793   4.518 -0.1007 -0.0597  0.2599
19012W        W35273   5.005  14.494  12.459 -0.0595  0.1913 -0.0186
19013W        W35274   4.605   3.938   2.534 -0.1679 -0.1783  0.2380
19014W        W35275   3.094   7.183   5.789 -0.0826 -0.1105  0.1396
19015W        W35276   0.601  14.932   4.710 -0.4519  0.2450 -0.0555
19016W        W35277   2.142  14.443  11.276  0.1674 -0.0690  0.0399
19017W        W35278   4.232  11.969  15.749 -0.2577 -0.0346 -0.2280
19018W        W35279   2.633  17.245   3.193  0.2919  0.1152  0.0625
19019W        W35280  15.758   0.854  14.064  0.0095  0.0871  0.1368
19020W        W35281  17.166   7.923   2.638 -0.0322  0.0019 -0.0596
19021W        W35282   9.309   4.889   3.432  0.0100  0.3425  0.2331
19022W        W35283  12.754   4.857   3.624 -0.2398 -0.5212  0.0640
19023W        W35284  12.661   7.084  14.907 -0.6581  0.1189  0.0660
19024W        W35285   4.024   6.447   2.731 -0.0487  0.2490  0.0439
19025W        W35286  13.692  14.186   0.236  0.1994 -0.2951  0.1445
19026W        W35287  14.324   1.670  15.647 -0.3067 -0.3845  0.2385
19027W        W35288   2.637   4.854   3.486 -0.1074  0.0603  0.1734
19028W        W35289  12.441   1.279  15.579  0.3978  0.3780  0.1135
19029W        W35290  11.888   7.469   5.822 -0.0044  0.0505  0.1679
19030W        W35291  17.751  11.477  14.440 -0.0130  0.0915 -0.0927
19031W        W35292   9.935  11.035   4.643  0.0142 -0.0071  0.1923
19032W        W35293  16.827  16.508   4.952 -0.1548  0.0181  0.3215
19033W        W35294  17.733  11.598   1.728  0.0745  0.0769 -0.1670
19034W        W35295   1.002  13.511   2.624  0.1122  0.0056 -0.4783
19035W        W35296   0.267   4.917  15.257  0.1266  0.0673 -0.1737
19036W        W35297   8.336   0.297   5.686  0.0396  0.3107 -0.1397
19037W        W35298   6.229   6.998   1.631  0.0705  0.2524  0.1914
19038W        W35299  13.199  13.682  11.629  0.1403  0.0524 -0.3067
19039W        W35300   6.776   0.717  14.109  0.2748  0.1409 -0.0976
19040W        W35301   7.837   4.986   3.799 -0.1194  0.1917  0.1436
19041W        W35302   0.785   0.897   0.970  0.1824  0.0104  0.4003
19042W        W35303   8.529  10.613   4.902 -0.2614 -0.1597 -0.2527
19043W        W35304   1.225  12.412   3.842 -0.1784 -0.3912  0.0509
19044W        W35305   5.845   9.163   3.585 -0.1366  0.2759  0.0451
19045W        W35306   1.881   3.819  15.963 -0.1086  0.2101 -0.0061
19046W        W35307  17.642  15.488   3.784 -0.1785  0.0760  0.3518
19047W        W35308   0.440   5.157   2.881  0.0689  0.0027  0.4587
19048W        W35309   3.890  13.219   4.180  0.0407  0.0515 -0.0391
19049W        W35310  16.376  13.464  10.204  0.5886 -0.0302  0.2841
19050W        W35311  15.289   7.759   0.842 -0.0306  0.2404 -0.0358
19051W        W35312  13.500  14.463  10.994 -0.0696  0.1399  0.1286
19052W        W35313   9.577  15.378  12.573  0.1651 -0.4241  0.1771
19053W        W35314   9.638  14.840  12.160  0.0253  0.2670  0.2498
19054W        W35315  10.734   0.086  15.299 -0.2140  0.0578  0.1285
19055W        W35316   5.745   1.735   2.911 -0.0978  0.0711  0.3049
19056W        W35317   5.779  11.842   0.790  0.0640 -0.1624 -0.1444
19057W        W35318   8.209  14.090   4.278 -0.0467 -0.0676 -0.0918
19058W        W35319  12.869   7.137   5.217 -0.1231 -0.3369 -0.3702
19059W        W35320   9.394  13.262   2.394  0.1815 -0.0346 -0.1333
19060W        W35321   6.369   1.227   1.215 -0.0546  0.1339 -0.1685
19061W        W35322  10.127  12.417   1.492  0.3651 -0.2269 -0.1428
19062W        W35323  10.045   3.133  14.745 -0.2441 -0.0119 -0.2501
19063W        W35324  13.973  13.392  13.504 -0.4602  0.2214 -0.1767
19064W        W35325   1.694  15.217  16.176  0.0409  0.2110  0.1014
19065W        W35326  11.866  13.999   4.873 -0.0232  0.3597 -0.0233
19066W        W35327   4.197  17.922  11.173  0.0491  0.0705  0.1583
19067W        W35328  11.667   2.486  12.380  0.0628  0.1604  0.2519
19068W        W35329  13.366  13.659  12.121 -0.4009 -0.0883  0.2563
19069W        W35330   0.764  10.070   5.421 -0.0002  0.0950  0.1213
19070W        W35331  16.185  15.438   4.264 -0.0694 -0.0290  0.0672
19071W        W35332  17.685   5.687   0.519  0.3627  0.2623 -0.1260
19072W        W35333   9.362  15.448   5.492  0.1266 -0.1122 -0.1116
19073W        W35334   2.335   6.710  11.909  0.0674 -0.3625  0.1796
19074W        W35335  13.883   3.537  14.025  0.0027  0.3850  0.0455
19075W        W35336  18.048   4.752  15.416  0.1216 -0.1887  0.2624
19076W        W35337   9.740   2.256  14.942 -0.2494  0.1737 -0.0100
19077W        W35338   4.219  17.433   1.758  0.0022 -0.0812  0.2171
19078W        W35339  14.670  12.890  12.389  0.0214  0.2393 -0.4821
19079W        W35340   3.806   8.513   0.718  0.1982 -0.0401 -0.1445
19080W        W35341   6.666   7.056   3.644  0.0080 -0.0774 -0.0131
19081W        W35342  14.721   3.261  13.947  0.1494 -0.1519  0.2622
19082W        W35343   8.015   3.222   3.030  0.0767  0.2252 -0.1864
19083W        W35344   8.223   9.111   3.615 -0.0427  0.0494  0.1296
19084W        W35345   1.081   2.450   1.183 -0.0997  0.1178  0.0155
19085W        W35346  18.021  17.582  13.209  0.1169 -0.1143  0.0967
19086W        W35347  12.866   8.470  12.790 -0.0515  0.1165  0.0716
19087W        W35348   8.286  15.537  13.806  0.0138 -0.1313  0.1447
19088W        W35349   8.979  17.139   1.564  0.0482 -0.2426  0.3554
19089W        W35350   3.516  16.354  11.309  0.0953  0.1191  0.2448
19090W        W35351  10.687   1.920   3.004  0.0020  0.0847 -0.1174
19091W        W35352  14.088  17.771   3.169  0.2183 -0.1173 -0.1328
19092W        W35353   3.750   7.819   2.827  0.4108 -0.1715 -0.4792
19093W        W35354   8.527  18.174   2.189  0.0489 -0.2194  0.1806
19094W        W35355  13.071   1.264  13.298 -0.0038 -0.2560 -0.0574
19095W        W35356  13.466   6.240  15.110 -0.2384 -0.0286 -0.0008
19096W        W35357  14.592  10.168   0.615 -0.1945 -0.0149 -0.0028
19097W        W35358   7.210  11.392  15.292  0.1371  0.2234  0.0635
19098W        W35359  18.268  14.065   2.925 -0.1722 -0.1271  0.2567
19099W        W35360  13.224   0.991   3.186  0.1465  0.1004 -0.1451
19100W        W35361  15.599  14.205   1.713 -0.3014 -0.0605  0.0527
19101W        W35362   5.361  13.931  14.268 -0.0606  0.3136  0.0162
19102W        W35363   0.819  15.046   3.728 -0.1622 -0.1899 -0.0302
19103W        W35364   9.815   3.514   5.528 -0.1544 -0.1535  0.0097
19104W        W35365   1.955   4.433   0.114  0.0823  0.0237 -0.5549
19105W        W35366  13.342   5.035   0.694  0.0075 -0.1836 -0.0128
19106W        W35367   9.051   2.636   5.811  0.0182 -0.1020  0.0089
19107W        W35368   7.966   6.098   1.175  0.0319 -0.0185 -0.2157
19108W        W35369   7.812   5.805   5.128 -0.3453  0.1973 -0.4095
19109W        W35370   5.275   0.767   3.803 -0.1935 -0.2169  0.0200
19110W        W35371   6.447   9.397   4.265  0.0523 -0.1014  0.1414
19111W        W35372  13.502  11.401  11.794 -0.0752 -0.1847  0.1244
19112W        W35373   9.019   6.470   0.629  0.1088 -0.2266  0.0221
19113W        W35374  13.858   9.361  12.166  0.0273 -0.2028  0.0655
19114W        W35375   4.952  14.013  15.541 -0.1593 -0.0078 -0.1645
19115W        W35376  12.997   3.499   3.546  0.1061  0.0629 -0.6427
19116W        W35377   2.189   6.716   2.120  0.2545 -0.1238 -0.2267
19117W        W35378   5.604   8.967  12.893  0.0472 -0.0296 -0.0117
19118W        W35379  11.500   9.094   2.318  0.0413  0.1201 -0.3535
19119W        W35380   7.223   7.741  12.793  0.1463  0.0273 -0.0881
19120W        W35381   8.966   7.536   2.481 -0.1321  0.0830 -0.3642
19121W        W35382  15.675   9.547   2.905  0.2756  0.0095 -0.1436
19122W        W35383   2.873   8.907  12.588  0.0931  0.1082  0.2302
19123W        W35384   7.819  18.461   1.403 -0.1395 -0.3891  0.2266
19124W        W35385  13.697  14.818   4.263 -0.2482  0.3116 -0.0198
19125W        W35386   8.116   2.339  15.674 -0.2052 -0.1791  0.1037
19126W        W35387   4.200   1.765   1.108 -0.0628  0.1099  0.0230
19127W        W35388  16.186   9.583  11.055  0.0462  0.0797 -0.1068
19128W        W35389   3.522   7.290  11.428 -0.0499  0.0248 -0.1287
19129W        W35390   6.935   9.383   3.941 -0.0533  0.3209 -0.2394
19130W        W35391   5.730  12.450  12.923 -0.1200  0.1890  0.1579
19131W        W35392   4.322  16.060  15.000  0.1246  0.1570 -0.0494
19132W        W35393  11.090  13.895   4.433 -0.1041  0.1304  0.1203
19133W        W35394  15.094  17.477   3.139 -0.0378 -0.0015 -0.0158
19134W        W35395  14.296  10.716  15.596  0.1273 -0.0139 -0.1072
19135W        W35396   3.448   2.768  13.810 -0.4058  0.0940  0.1571
19136W        W35397  13.151   3.096  11.589 -0.0583 -0.1146  0.0391
19137W        W35398  11.269  13.364   1.931  0.2489  0.2463 -0.0672
19138W        W35399  18.391   3.119   0.224  0.0399  0.0405  0.0512
19139W        W35400  12.091   6.258   1.391 -0.1212  0.1207 -0.2205
19140W        W35401  14.728   9.560  14.247 -0.2388 -0.0247 -0.0059
19141W        W35402  14.037  17.379  15.592 -0.1290 -0.2134 -0.1489
19142W        W35403  15.302   3.299  13.987  0.1937  0.2987  0.2612
19143W        W35404  13.440   3.458   4.706 -0.2815  0.1913 -0.2965
19144W        W35405  18.188  15.374   3.084 -0.1318  0.1748 -0.0307
19145W        W35406   6.491   6.307  13.467  0.0650  0.0610 -0.0909
19146W        W35407   2.456   1.391   1.581 -0.0474  0.1403  0.3353
19147W        W35408   3.143  16.270  15.246 -0.2653 -0.1936 -0.2069
19148W        W35409   0.734   0.222  10.671  0.2116  0.2444 -0.0307
19149W        W35410   7.765  10.029  14.232 -0.2963 -0.2768 -0.1589
19150W        W35411  14.166  15.998   3.222 -0.1890 -0.3223  0.1179
19151W        W35412  15.150   6.400   1.305  0.2144 -0.0131 -0.0478
19152W        W35413  15.365  13.472  15.246 -0.0476  0.1774 -0.0130
19153W        W35414   8.208  10.236   4.925  0.0568  0.0524 -0.1583
19154W        W35415  13.760  10.705   1.305  0.0114  0.1350 -0.2981
19155W        W35416   2.450   7.644  12.555  0.0021  0.2437  0.0450
19156W        W35417   5.688   4.149  15.682  0.1173  0.0990 -0.1751
19157W        W35418   0.284  17.020   5.229  0.2029 -0.3086  0.0484
19158W        W35419   2.143   6.722   3.903 -0.0724 -0.0698 -0.2131
19159W        W35420   0.590   1.031   3.446  0.0662 -0.1996  0.0112
19160W        W35421   9.704  16.816  13.164 -0.2732 -0.1020  0.2192
19161W        W35422   4.190   5.015   1.120  0.1303 -0.0448  0.2006
19162W        W35423   3.841   2.183   4.213  0.1561  0.0117  0.2521
19163W        W35424  18.239  18.445  12.105  0.0790 -0.0324  0.0114
19164W        W35425  12.309  14.737   4.067 -0.2140  0.2736  0.0076
19165W        W35426   2.436   2.250   4.078 -0.2635 -0.0575  0.0067
19166W        W35427   2.227  13.410   1.260  0.1052 -0.0047 -0.3865
19167W        W35428   3.940   8.012   1.379 -0.0043  0.0744  0.0783
19168W        W35429   6.319   1.821   3.225  0.1391  0.2246  0.1732
19169W        W35430   5.726   2.958  14.258 -0.2332 -0.0518 -0.1371
19170W        W35431   5.296   2.903  11.815  0.3134  0.0029  0.1104
19171W        W35432   5.485  12.519  12.221  0.1116 -0.0123  0.1027
19172W        W35433  13.821  16.051  15.805  0.0822 -0.0163  0.1283
19173W        W35434  16.913  13.470   3.003  0.4071  0.2411  0.2273
19174W        W35435   1.551   9.708  15.020 -0.0741  0.0673  0.1593
19175W        W35436  13.120  18.210   0.566  0.1598  0.0688  0.1874
19176W        W35437  15.118  18.155  10.318 -0.0939  0.1742 -0.2579
19177W        W35438   6.899   7.969   2.349  0.1867 -0.0341  0.0839
19178W        W35439   0.567   5.077  15.624  0.0417 -0.2993  0.2241
19179W        W35440   9.613   7.357  15.292 -0.2873 -0.3496  0.2232
19180W        W35441   3.901  11.264   4.433  0.0183 -0.5010  0.0171
19181W        W35442   5.832   6.366  14.891 -0.2814  0.1955  0.1466
19182W        W35443  12.164  13.254   4.290 -0.2367  0.0937  0.1104
19183W        W35444  11.514   4.617   2.209 -0.1347  0.0798 -0.2982
19184W        W35445  17.641   1.387  12.873 -0.0918 -0.3328 -0.2103
19185W        W35446  10.425  13.058   4.438 -0.2921  0.1587 -0.1273
19186W        W35447   8.999  10.031   0.706 -0.2245 -0.0528 -0.0565
19187W        W35448  12.246  10.311  15.374  0.1797 -0.0841  0.0923
19188W        W35449  15.715   0.067   2.576  0.1960  0.0126  0.0739
19189W        W35450   7.171   0.680   3.552 -0.0058  0.1699  0.1053
19190W        W35451   8.754  10.076  10.874 -0.2031 -0.0093 -0.1477
19191W        W35452  13.060   3.745  12.599 -0.1555 -0.0513 -0.0642
19192W        W35453   4.299  16.731   0.713  0.3092  0.2791  0.2440
19193W        W35454  12.895   5.252   3.887  0.0397  0.0467 -0.1798
19194W        W35455   2.331  16.574   1.262  0.3521  0.0082  0.1966
19195W        W35456   6.542   8.782   1.901  0.3838 -0.1522 -0.2428
19196W        W35457   1.354  16.289  11.349 -0.0476  0.4130 -0.1307
19197W        W35458   4.166  15.821  13.490 -0.2020  0.1860  0.2690
19198W        W35459   0.589   3.302  11.368  0.2419  0.2356 -0.1789
19199W        W35460   3.447   6.290   1.863  0.1598 -0.5903  0.0505
19200W        W35461  17.127   9.366   2.070 -0.2517  0.1089 -0.0099
19201W        W35462   1.094  16.914   0.776 -0.2376 -0.3141 -0.2204
19202W        W35463  13.361  17.872  12.817  0.0641  0.3421  0.0333
19203W        W35464  11.372   7.120   1.862  0.0032 -0.0517  0.1745
19204W        W35465   8.739   7.241  14.823 -0.0810  0.0489 -0.1773
19205W        W35466   0.936  10.585   2.306 -0.1490  0.1194  0.1815
19206W        W35467  12.523   5.916  12.212  0.0416 -0.2003 -0.1843
19207W        W35468  12.392   1.881   3.059 -0.1973 -0.0718 -0.0459
19208W        W35469   7.588   4.023  12.381  0.1477 -0.0423  0.0843
19209W        W35470   5.600  12.954   2.501 -0.1278  0.0026  0.1783
19210W        W35471  11.259   7.209   2.497 -0.1065  0.0460  0.2926
19211W        W35472  16.743   1.229   4.148  0.0265 -0.4239 -0.0234
19212W        W35473  17.584   4.298   1.213  0.1725  0.0306  0.0517
19213W        W35474  18.116  16.627   3.399 -0.0646 -0.1200 -0.5006
19214W        W35475   9.598   8.413  14.902 -0.2465 -0.0896  0.3028
19215W        W35476   2.598  16.949   0.997 -0.0866 -0.0364 -0.1861
19216W        W35477   7.048   2.158   1.273 -0.3450  0.0786  0.0484
19217W        W35478  15.103   6.445   2.806  0.0940 -0.0629  0.2956
19218W        W35479  13.802  15.430   1.910 -0.4508  0.1671  0.1679
19219W        W35480  17.174  10.549  12.435 -0.2621  0.2115 -0.2586
19220W        W35481   9.976   6.576   4.064  0.0329  0.0239  0.1899
19221W        W35482  16.526   9.126  16.081 -0.2994  0.1142  0.0969
19222W        W35483  15.811  18.057  13.678  0.0029 -0.0897 -0.1874
19223W        W35484  12.611   3.749  14.552 -0.1266 -0.0607 -0.1867
19224W        W35485   4.850   2.533  15.728  0.3151  0.0362 -0.0849
19225W        W35486  17.485  17.453  11.384  0.1268 -0.0588 -0.0334
19226W        W35487  17.984   1.265   3.528  0.1458  0.0082 -0.4993
19227W        W35488   1.443  18.307   5.446  0.3368 -0.1207  0.0130
19228W        W35489  11.527   9.989   2.801 -0.0095  0.1953  0.3070
19229W        W35490   9.805   7.730   4.523 -0.1013  0.1396 -0.0194
19230W        W35491   0.969   9.383  15.379 -0.2374  0.3313  0.3804
19231W        W35492  10.384   5.324   4.232  0.1114 -0.0981 -0.0769
19232W        W35493   0.635   7.491   1.257  0.0286  0.1211 -0.3083
19233W        W35494  12.736   3.874  15.306  0.2307  0.0335 -0.1110
19234W        W35495  15.052   5.104   2.599  0.0729  0.1387 -0.2604
19235W        W35496  15.861   9.795   1.609  0.2540 -0.0517  0.0679
19236W        W35497   7.319  12.352  14.683 -0.5469  0.1569 -0.1532
19237W        W35498   6.719  16.922   1.761 -0.0927  0.0345 -0.1862
19238W        W35499  11.321  11.548   1.068 -0.1788  0.0276 -0.0841
19239W        W35500  11.344   4.765   5.033  0.0125  0.1769  0.1165
19240W        W35501  13.372   2.622  11.366 -0.1704  0.1310 -0.1665
19241W        W35502  17.617   1.000   2.005 -0.0570 -0.0426 -0.2572
19242W        W35503   1.400  13.926   2.247 -0.0470  0.0388  0.1027
19243W        W35504   1.785   9.016   2.500  0.0355 -0.0309 -0.3132
19244W        W35505  16.249  13.045  14.021 -0.2225  0.1292  0.0838
19245W        W35506   3.755  10.166  10.885  0.1576  0.1846  0.0805
19246W        W35507   9.430   0.560   1.129 -0.1914 -0.4424  0.1573
19247W        W35508   3.186   0.585  13.903  0.2389  0.2788 -0.0049
19248W        W35509  13.202  10.336   2.860 -0.1083  0.1522 -0.0486
19249W        W35510   2.652  13.800  12.203 -0.2614 -0.2165  0.1235
19250W        W35511   9.757  16.534  10.113 -0.2425  0.2319  0.0678
19251W        W35512  16.479  10.468  15.769 -0.0422 -0.0598  0.0035
19252W        W35513   9.345  13.266  11.554  0.0772 -0.1198  0.2342
19253W        W35514   5.576   6.879  16.156  0.1490 -0.1069  0.1327
19254W        W35515  13.595  17.774   3.366 -0.1288  0.1016  0.1866
19255W        W35516  16.836   8.507  12.462  0.4796 -0.0998  0.0997
19256W        W35517  10.837   7.366  13.089 -0.0082  0.0796  0.2278
19257W        W35518   4.126  12.465   3.201  0.0254 -0.2494  0.0651
19258W        W35519  12.452  16.887   3.287 -0.0004 -0.1312 -0.1545
19259W        W35520  13.621   8.047   5.117 -0.0828  0.3009  0.1099
19260W        W35521  17.371  17.562  10.892  0.1131  0.2446 -0.1039
19261W        W35522  14.508   5.598   2.329  0.0492  0.0417 -0.0613
19262W        W35523  12.302   2.608  11.549  0.0625  0.2108  0.2576
19263W        W35524   7.729  13.214   0.472  0.0975 -0.1640 -0.2455
19264W        W35525   9.180  15.626  11.778 -0.1628 -0.1682 -0.0274
19265W        W35526  13.112  12.232   0.986 -0.0150  0.0174  0.1846
19266W        W35527   9.960  12.561  12.306 -0.1680 -0.3421  0.0738
19267W        W35528  18.230  17.588  13.765  0.0487  0.0592  0.0858
19268W        W35529  18.012  12.677   4.045  0.1797 -0.0496 -0.1764
19269W        W35530  10.993   8.147  14.929  0.2125  0.0938 -0.0351
19270W        W35531  14.868  12.654   9.638  0.3836 -0.2409  0.0646
19271W        W35532   5.501  16.767   3.964 -0.0625  0.1568  0.1731
19272W        W35533   6.501   0.554   0.429 -0.3845 -0.0681  0.1183
19273W        W35534   7.425   7.865   5.618  0.1779 -0.2111 -0.0466
19274W        W35535   1.072   5.428   2.919  0.1133  0.1190 -0.1342
19275W        W35536  17.563   8.523   4.342  0.3713 -0.1675 -0.2791
19276W        W35537  12.922   3.829  14.194 -0.0411 -0.3190  0.1371
19277W        W35538  13.252  12.497  10.925 -0.1745 -0.0156  0.1914
19278W        W35539  14.929   0.387  13.673  0.3787 -0.0558  0.1344
19279W        W35540   7.855  15.970  13.140 -0.1222 -0.3558  0.1877
19280W        W35541  10.412  16.602  11.597  0.1420 -0.1297  0.2248
19281W        W35542   9.246   6.155   6.581  0.0650 -0.0576  0.2253
19282W        W35543   1.357  15.301   1.703  0.1734  0.0798  0.4906
19283W        W35544   4.785   6.477   4.234  0.1584 -0.1496 -0.2342
19284W        W35545   7.287   3.068   0.681 -0.2380  0.0561 -0.3062
19285W        W35546   9.134   7.248   0.129 -0.3720 -0.1238 -0.5033
19286W        W35547   1.362  16.360   4.026 -0.1795 -0.1373 -0.0320
19287W        W35548  13.643  18.068  13.900 -0.0322 -0.3042 -0.1245
19288W        W35549   2.632   7.134  12.712 -0.0294  0.1312  0.2361
19289W        W35550   7.978   5.791   1.588  0.1136 -0.2974 -0.1260
19290W        W35551   2.849  11.476   2.535 -0.1006  0.2343 -0.0706
19291W        W35552  13.541  16.963  14.437 -0.0242  0.1862 -0.0210
19292W        W35553  15.736   4.387   1.780  0.2346  0.1445  0.2839
19293W        W35554  11.841   0.822  12.444 -0.2266  0.0456  0.1804
19294W        W35555  13.721  12.149   4.948 -0.1781 -0.0714  0.1164
19295W        W35556   2.834  12.717  15.406 -0.0741  0.4035  0.1527
19296W        W35557   9.685  13.107   2.823 -0.0045 -0.0423 -0.1425
19297W        W35558   6.955   8.766   3.363  0.4100 -0.1222 -0.1248
19298W        W35559  15.128   9.704  13.941  0.1570  0.1335  0.2368
19299W        W35560  13.302  10.073  14.475 -0.2858 -0.0816  0.1582
19300W        W35561  11.924  11.964  14.738 -0.3341 -0.1130  0.3328
19301W        W35562   1.345  13.225  13.505  0.1915 -0.2219  0.0429
19302W        W35563  11.131   8.964   4.840  0.5885 -0.1972 -0.0936
19303W        W35564  13.525  12.760  11.324 -0.2250 -0.1847  0.0952
19304W        W35565  17.943   6.432  14.996 -0.1371 -0.0724 -0.2610
19305W        W35566   2.334   7.174   3.604 -0.0501  0.1394  0.0749
19306W        W35567   8.119   0.912  15.723 -0.2129 -0.3890 -0.0192
19307W        W35568   8.567  11.324   5.510  0.0782 -0.2873 -0.0462
19308W        W35569   0.296   4.161   1.553  0.1694  0.0322 -0.1040
19309W        W35570  12.453  11.973  13.222 -0.0661  0.2844  0.3281
19310W        W35571   9.812  11.597  12.807  0.2857  0.1081 -0.0743
19311W        W35572  12.376   8.755   5.850  0.0891 -0.1978 -0.0106
19312W        W35573  10.733   6.127   3.259 -0.3594  0.2679 -0.1469
19313W        W35574   8.569  15.429   1.779 -0.0126 -0.1873 -0.1640
19314W        W35575  10.566  17.593   4.910  0.1533  0.0907  0.0454
19315W        W35576   1.824  16.322   3.718  0.0743  0.0091  0.0440
19316W        W35577  16.953  17.753   1.349  0.0122  0.0954 -0.1007
19317W        W35578  17.827  10.267   2.941  0.1016  0.0576  0.1330
19318W        W35579   3.713   2.462  14.638 -0.2721  0.0035 -0.2970
19319W        W35580  13.075  13.089   4.991 -0.3649  0.0534 -0.4083
19320W        W35581   1.004  12.118  11.336  0.3450  0.0785 -0.3502
19321W        W35582  10.983   0.291   4.144 -0.0323  0.2501 -0.1158
19322W        W35583  18.042  15.770  11.957  0.2081 -0.0825  0.1509
19323W        W35584  13.920   2.085  12.512 -0.1691 -0.0085 -0.1407
19324W        W35585   9.830   6.230   1.014  0.0717 -0.0458  0.0655
19325W        W35586  12.593   2.479  14.080  0.0809 -0.0147 -0.1673
19326W        W35587  14.429   6.523  14.973 -0.0400 -0.2338 -0.0534
19327W        W35588   0.666   8.611  14.739 -0.1601  0.2327 -0.1940
19328W        W35589   1.459  11.654  12.359  0.1520 -0.0979 -0.3026
19329W        W35590  15.970  11.769  14.956  0.2196 -0.0143  0.0694
19330W        W35591   7.649   6.863   5.389 -0.1973  0.2696 -0.0161
19331W        W35592  11.066   0.579  11.704 -0.0805 -0.0569  0.1811
19332W        W35593   4.741   9.056   1.031 -0.0742 -0.0794  0.1844
19333W        W35594  14.595  14.840   3.996  0.2520  0.1179  0.0006
19334W        W35595  15.544  17.419   2.939  0.0349 -0.0947 -0.1979
19335W        W35596  17.132   1.994  11.791 -0.2846  0.1297  0.2672
19336W        W35597   9.831   5.564  14.937 -0.1880 -0.1560 -0.2486
19337W        W35598  10.480   5.209  15.204 -0.1833 -0.4767 -0.1162
19338W        W35599   7.872  13.674  10.473  0.1091  0.1813 -0.1889
19339W        W35600  10.327  10.549   2.278 -0.1237  0.2043  0.0009
19340W        W35601   1.337   7.785  14.339 -0.0372  0.0788 -0.3646
19341W        W35602  13.143  13.442  15.862  0.1750 -0.0100 -0.0648
19342W        W35603   5.884   6.154  12.192  0.3150 -0.0021  0.1433
19343W        W35604  13.871   3.491  11.050  0.0380 -0.2942 -0.0189
19344W        W35605   0.092   2.827   1.426  0.0589  0.3545  0.0085
19345W        W35606   6.426   2.379  13.758 -0.2857  0.0741 -0.0481
19346W        W35607  14.583   8.876   3.976 -0.1697  0.1670  0.2374
19347W        W35608   3.729  13.921  11.698  0.0829 -0.0966  0.1613
19348W        W35609  14.927   5.217   2.071  0.0899  0.0202  0.1703
19349W        W35610   4.182   3.535   0.255 -0.1733  0.0411 -0.1649
19350W        W35611   6.798   7.448   3.305  0.1797  0.1316 -0.1659
19351W        W35612   1.605   4.662  13.695  0.0786 -0.0580 -0.0970
19352W        W35613  10.146   6.297   3.446 -0.2257  0.3562 -0.1450
19353W        W35614  12.449  17.179  14.442  0.2720 -0.0726  0.1845
19354W        W35615   0.813   4.800  15.298  0.0587  0.3910 -0.0626
19355W        W35616  15.383   2.209   1.109 -0.2426 -0.2619  0.1478
19356W        W35617  12.756   1.670  13.522  0.0234  0.1733  0.1222
19357W        W35618   0.901   8.614  12.323 -0.1490  0.2397 -0.1181
19358W        W35619  17.186   9.887  15.927  0.5553 -0.0663  0.0769
19359W        W35620   4.214   0.362   3.786 -0.0015 -0.1150  0.1252
19360W        W35621  13.360  11.365  13.172 -0.0427 -0.3720 -0.4345
19361W        W35622  14.877  13.093  15.811  0.2216  0.0970 -0.0077
19362W        W35623   3.009   4.902  15.277 -0.2715 -0.0268  0.1474
19363W        W35624  18.124  11.802   0.157  0.3766  0.0019  0.2089
19364W        W35625   3.053   7.759   5.632 -0.4559  0.1486  0.1448
19365W        W35626  14.755  12.964   0.072  0.0323 -0.0198  0.1278
19366W        W35627  10.669   8.771   4.558  0.1270  0.0043  0.0617
19367W        W35628  10.587  15.975   3.528 -0.0054  0.2467  0.1696
19368W        W35629   3.669  10.418   4.135  0.2719  0.1531 -0.2494
19369W        W35630   7.321   1.145  12.845 -0.0111  0.0762  0.0325
19370W        W35631   3.423  10.363  13.309  0.0194 -0.2006 -0.1626
19371W        W35632   0.946  15.822   3.387 -0.1484  0.2833 -0.2549
19372W        W35633   1.448   2.611   0.151 -0.3506 -0.0688  0.0600
19373W        W35634   0.655   8.612   0.430  0.3029  0.0628 -0.1600
19374W        W35635  14.579   9.594   3.020  0.0483  0.2952 -0.1005
19375W        W35636   1.924   1.112   2.111 -0.2440  0.2320  0.1795
19376W        W35637  12.674   5.842   4.778 -0.0861 -0.1260 -0.0443
19377W        W35638  13.554  15.806   3.804  0.0038  0.0242 -0.3605
19378W        W35639   9.148   9.024  14.896 -0.0260  0.3323 -0.1833
19379W        W35640  18.393  13.106  14.010 -0.0135  0.1548  0.0516
19380W        W35641  16.720  16.512  13.796  0.0510 -0.0945 -0.3630
19381W        W35642  14.071  14.040  11.545  0.0871  0.0985  0.1955
19382W        W35643  12.531  16.713  11.308 -0.1761  0.1779  0.3415
19383W        W35644   8.098   6.275   1.700  0.1500  0.0833 -0.0623
19384W        W35645  16.704  11.078   0.653  0.1031  0.0714  0.2696
19385W        W35646  12.842   6.574   3.321  0.1313  0.1596 -0.0301
19386W        W35647  14.977   5.700  11.840 -0.0384 -0.0072 -0.2909
19387W        W35648   1.671  18.151  12.505  0.0953 -0.1947 -0.0715
19388W        W35649   0.458   2.074   2.523 -0.5257  0.2363 -0.2842
19389W        W35650   4.258   2.935   2.670 -0.2811 -0.0947  0.2058
19390W        W35651   3.490   6.433   4.238  0.0296  0.0895 -0.0270
19391W        W35652   0.397   9.703  15.824 -0.2230 -0.1409 -0.4693
19392W        W35653   4.592  10.917   0.880 -0.2738 -0.0473  0.0538
19393W        W35654  17.433  14.447   0.644 -0.0171 -0.0608 -0.1505
19394W        W35655   9.163   8.794   0.406  0.0437 -0.1896 -0.3140
19395W        W35656   4.858  10.792   4.420 -0.1141  0.1006 -0.1696
19396W        W35657   4.225   2.488  13.286  0.2842  0.1238  0.0543
19397W        W35658   3.185   1.506   5.734  0.0410  0.0677  0.0400
19398W        W35659  13.796  13.195  11.493 -0.1961  0.3172  0.1312
19399W        W35660  17.295   3.207  13.777  0.0856  0.0925 -0.0147
19400W        W35661   0.793   7.914   4.560  0.3480 -0.1134  0.0791
19401W        W35662  15.741   2.846   2.702 -0.0776 -0.2011 -0.1739
19402W        W35663   2.088   9.469  14.224 -0.1771  0.0386  0.0970
19403W        W35664  11.055   5.145   3.481 -0.1727 -0.0589 -0.1218
19404W        W35665  11.679  13.740  12.215  0.0340  0.1074  0.2595
19405W        W35666   9.533  12.441   0.560  0.0514 -0.0491 -0.2876
19406W        W35667   6.472  11.926   5.673  0.0529  0.4024  0.1882
19407W        W35668   9.600   0.511  14.398 -0.0395  0.2465 -0.2195
19408W        W35669  11.023   8.561  11.917 -0.2149 -0.1252 -0.0927
19409W        W35670   0.719  15.134  13.608  0.2180  0.1830  0.0634
19410W        W35671   6.431   4.084   0.209  0.0133 -0.0976  0.0242
19411W        W35672  13.031  14.649   2.444  0.2100 -0.0367  0.2492
19412W        W35673  10.153   0.159  11.510  0.0378  0.1511  0.1549
19413W        W35674  16.467   0.720  13.231  0.4646 -0.1769  0.1681
19414W        W35675  14.141  17.051  14.614  0.0595 -0.1829 -0.0767
19415W        W35676   7.831  17.077  16.167  0.0015  0.2390  0.1009
19416W        W35677  11.248   2.656  12.741  0.1909  0.4186 -0.2285
19417W        W35678  10.734   9.277  16.068  0.0896  0.1061 -0.1924
19418W        W35679  16.453  13.931  10.957 -0.1558  0.0253  0.0148
19419W        W35680  14.967   0.495  16.032  0.4810  0.6300 -0.1733
19420W        W35681   6.656   0.377   5.245  0.1029 -0.0103 -0.2917
19421W        W35682   6.772  12.215   1.609 -0.3995  0.1092  0.3035
19422W        W35683   1.738  18.278   2.800  0.0298  0.1115  0.0987
19423W        W35684  17.870  11.100  14.726  0.3628 -0.1120  0.0897
19424W        W35685   9.476   3.361  14.103 -0.0978  0.3176  0.1692
19425W        W35686  17.042   7.775  13.752  0.2184 -0.2611 -0.4104
19426W        W35687   4.942   0.072  14.853 -0.3157  0.0958 -0.1782
19427W        W35688   8.180  10.940   0.098  0.1521  0.0674  0.1242
19428W        W35689  15.347  13.578   0.446 -0.1155 -0.3054 -0.1874
19429W        W35690  13.468   0.050   3.976  0.0880 -0.0978 -0.0049
19430W        W35691   8.579  17.244  14.409  0.0145 -0.0301 -0.4646
19431W        W35692  18.189  12.527  14.831  0.0979  0.1932  0.3679
19432W        W35693  14.945   8.264  14.257  0.1828  0.0074  0.0037
19433W        W35694  14.411  16.236  14.133 -0.0659  0.0042  0.0514
19434W        W35695   2.626  10.865  15.193  0.1357  0.4637  0.3032
19435W        W35696   8.450   1.889  13.616 -0.2077 -0.0136  0.0036
19436W        W35697  13.690  14.761  10.103  0.4235 -0.0358 -0.1435
19437W        W35698  16.824   7.726  12.408  0.0762 -0.3140  0.2720
19438W        W35699   6.561   9.469   4.717  0.1020 -0.0373  0.1173
19439W        W35700   4.066   0.191  13.068 -0.2913  0.1250  0.0962
19440W        W35701  11.826   9.200   1.180  0.1010 -0.1765  0.3761
19441W        W35702  11.996   2.456  16.085 -0.3826  0.1968 -0.0946
19442W        W35703  12.234  10.253  11.327 -0.1304  0.3342  0.0017
19443W        W35704  10.909   6.719  14.391 -0.2634 -0.2337 -0.0634
19444W        W35705   4.963   3.626   2.635  0.0403 -0.1411  0.1054
19445W        W35706   9.049  13.490   4.171  0.3084 -0.0664  0.0420
19446W        W35707   0.843   9.074   0.262 -0.0491  0.0624  0.0804
19447W        W35708   6.372   6.040   0.967 -0.1024  0.1529  0.0953
19448W        W35709   4.151   0.305   2.351  0.1522  0.1379  0.2799
19449W        W35710   9.424   1.121  15.194 -0.0623  0.0137  0.1691
19450W        W35711   5.649   3.926   5.639  0.0166 -0.1156 -0.2180
19451W        W35712   7.824   8.811  11.649  0.2205  0.2768  0.2547
19452W        W35713   4.043   9.828  13.206  0.0655  0.1595 -0.4666
19453W        W35714  17.889  11.035  11.697 -0.0503  0.0285  0.2992
19454W        W35715   9.311   5.672   4.483 -0.3136 -0.0796  0.2336
19455W        W35716  10.766   8.384   2.024  0.1465  0.1033 -0.1070
19456W        W35717  15.092   3.160   3.808  0.0691  0.0558 -0.4069
19457W        W35718  13.670   9.585  13.007  0.4497  0.2582 -0.2238
19458W        W35719  13.606  15.539   5.862 -0.2318  0.2363 -0.1605
19459W        W35720  18.162   4.131  14.129  0.0128  0.0826 -0.2513
19460W        W35721  14.571  10.982  12.416 -0.0383 -0.0490 -0.0716
19461W        W35722   9.270   8.717   1.644  0.1728  0.0082  0.0152
19462W        W35723  18.341  13.690  14.413 -0.4130  0.2352  0.1087
19463W        W35724   4.858   4.905   2.055 -0.3851  0.2395 -0.0371
19464W        W35725   0.357  15.501  11.450 -0.3550  0.0716 -0.2441
19465W        W35726   2.348  11.942   5.543 -0.1346 -0.2419 -0.0098
19466W        W35727  11.167   1.555   4.527 -0.2836 -0.2771  0.0091
19467W        W35728   6.328  15.968   0.896 -0.0973  0.0462 -0.1503
19468W        W35729  10.837  16.145  14.959  0.4128  0.0079  0.1271
19469W        W35730   4.242  14.671   1.757  0.1578 -0.2324 -0.2379
19470W        W35731   2.484   8.242   4.983  0.0909 -0.0803  0.1911
19471W        W35732  11.142   1.109  15.152 -0.2603  0.4169  0.0041
19472W        W35733  10.243  17.285  14.392 -0.1255 -0.0534  0.1879
19473W        W35734   5.386   3.772   0.667  0.3308 -0.2443  0.1509
19474W        W35735  15.780  16.105  15.317 -0.4603  0.0814  0.3037
19475W        W35736  16.909  14.764   4.383 -0.0286 -0.1651 -0.1199
19476W        W35737  16.356  12.265  10.765  0.2419  0.1396  0.1360
19477W        W35738  16.967  13.007  10.326 -0.0096 -0.0937 -0.2243
19478W        W35739  16.733  11.256   0.235  0.0173 -0.0015  0.2248
19479W        W35740   0.611  18.084  13.119 -0.2109  0.0782  0.0967
19480W        W35741  12.559   5.606   0.714  0.4557  0.0598 -0.0860
19481W        W35742  14.704   5.638  11.431  0.3571  0.1043  0.1575
19482W        W35743   1.800   1.444  11.057  0.0188  0.4535  0.3239
19483W        W35744   8.329   8.403  14.327 -0.4041 -0.1529 -0.2178
19484W        W35745   2.829  14.898   4.130 -0.1765  0.2610 -0.1481
19485W        W35746  12.368   5.852  13.353 -0.2280  0.2375 -0.0713
19486W        W35747  12.668   9.653   0.871 -0.2059  0.1216 -0.1096
19487W        W35748   9.538  14.138  11.463  0.0627  0.1368  0.3461
19488W        W35749   6.324   0.898  11.622 -0.2512 -0.0096  0.2621
19489W        W35750   5.846  17.792   0.360  0.2371 -0.0148 -0.1894
19490W        W35751   5.758   3.065   5.436  0.1543  0.0041  0.3565
19491W        W35752   7.134   1.693   2.618  0.0375 -0.0709  0.0752
19492W        W35753   5.546  18.345  11.832  0.2553  0.2341 -0.0858
19493W        W35754  13.680   5.180   3.939  0.3179 -0.1119  0.1668
19494W        W35755   8.955  12.565   3.387  0.1550 -0.0993  0.1529
19495W        W35756  13.311  12.884  16.025 -0.2077  0.0416  0.1288
19496W        W35757  10.752  12.075   1.814 -0.0367 -0.1496  0.0562
19497W        W35758  17.229  10.878  14.956 -0.2992  0.0987 -0.0903
19498W        W35759  12.357  16.099   3.836  0.2610 -0.1448  0.1540
19499W        W35760   8.393  17.204   5.094  0.0247  0.1323  0.1309
19500W        W35761   1.555   4.831  14.942 -0.2291  0.2481  0.4175
19501W        W35762   8.831   6.077  15.920 -0.2022  0.0052 -0.1458
19502W        W35763   3.584  12.646   5.173 -0.2562 -0.0300  0.1427
19503W        W35764  10.770  13.739  15.375  0.1362  0.1839  0.2468
19504W        W35765   1.741  14.986  12.766 -0.1080 -0.4492  0.0188
19505W        W35766  13.943   0.934  11.086  0.1712 -0.1011  0.0616
19506W        W35767   0.855  14.291   2.249  0.0300  0.2795  0.0645
19507W        W35768   7.830  11.331   0.460 -0.1311 -0.2965  0.1261
19508W        W35769   6.048  14.023   1.353  0.2266 -0.1307 -0.1140
19509W        W35770  12.975   9.891   1.470  0.2053  0.1356  0.4246
19510W        W35771  17.619   4.458  14.296  0.1425  0.3230  0.1081
19511W        W35772  13.085   2.519  14.098 -0.0174 -0.2690 -0.0438
19512W        W35773  11.311  16.114   1.488 -0.0058 -0.3773 -0.1520
19513W        W35774  13.374  11.111   4.271 -0.0159 -0.0805 -0.1614
19514W        W35775   0.576  13.554   1.128  0.1283 -0.0473 -0.1948
19515W        W35776   2.584  14.974  12.900  0.1568 -0.3462 -0.0095
19516W        W35777  14.800   5.631  12.635  0.1531  0.1244 -0.0930
19517W        W35778  10.586  11.801   2.744  0.0229  0.0498 -0.0315
19518W        W35779  13.113   0.211  13.845  0.0746 -0.1247 -0.1461
19519W        W35780  10.449  11.882  11.649  0.0361 -0.5272 -0.0222
19520W        W35781  16.664  18.484  10.462 -0.1405 -0.1914  0.1176
19521W        W35782   2.596  14.818  15.837 -0.0454 -0.0596 -0.0923
19522W        W35783  15.392  18.317  13.344 -0.0800  0.1701  0.0813
19523W        W35784   8.284   4.157  12.892 -0.0338 -0.1317 -0.1817
19524W        W35785   5.628   3.447  14.348  0.1528 -0.1795 -0.1196
19525W        W35786   8.065   1.162   0.409 -0.0461  0.4383 -0.0461
19526W        W35787   0.054  14.220  15.061  0.1304 -0.1596 -0.0220
19527W        W35788  11.436  18.326  12.781 -0.4315  0.0981 -0.2894
19528W        W35789   7.313  14.381   0.855  0.1628 -0.1748  0.2345
19529W        W35790   5.965  15.808   4.738 -0.0273 -0.0594  0.1503
19530W        W35791  12.489  10.900   4.140 -0.1980  0.0063  0.1519
19531W        W35792   9.153  13.965   1.953 -0.0072 -0.0096 -0.1935
19532W        W35793  15.007   8.894  12.143 -0.0582 -0.1811  0.0170
19533W        W35794   1.129   0.194  10.971  0.3068 -0.0728  0.0268
19534W        W35795  11.978  17.821  15.266 -0.1027  0.1193 -0.2217
19535W        W35796   3.652  17.911  14.615 -0.0212 -0.2427  0.1562
19536W        W35797  18.158   0.388  12.830 -0.1262 -0.1082  0.1272
19537W        W35798   9.468   6.694  15.527 -0.1395  0.1603 -0.1168
19538W        W35799   0.964   2.206  13.971 -0.1663  0.0680 -0.2069
19539W        W35800   9.810   0.504   4.809 -0.1946 -0.1022 -0.0868
19540W        W35801   6.589   0.330  14.980 -0.0205  0.1377 -0.0934
19541W        W35802   4.055   1.585   0.080 -0.4699  0.1198 -0.0139
19542W        W35803   3.594   5.026   4.090  0.1688 -0.1868 -0.1641
19543W        W35804  15.952  11.059   0.678 -0.2291  0.0880 -0.3696
19544W        W35805   3.360   5.797  11.790  0.1603 -0.1257 -0.0721
19545W        W35806  16.597   2.590  10.529 -0.1676  0.2074 -0.1230
19546W        W35807   0.796   0.026   3.660  0.0973 -0.1246  0.0616
19547W        W35808   1.844   4.552  11.803 -0.1884 -0.2709  0.0237
19548W        W35809   8.187   4.798  14.134 -0.0584  0.3143  0.0267
19549W        W35810  12.626  10.778   2.363 -0.1000  0.0413  0.3005
19550W        W35811   3.828  15.677  15.775  0.0082 -0.1560 -0.2608
19551W        W35812   9.575   9.536   3.400 -0.1172  0.1404  0.0455
19552W        W35813   9.939   0.300   4.373 -0.3594 -0.2584 -0.0233
19553W        W35814   3.738  17.958   3.597 -0.0798  0.0605 -0.0898
19554W        W35815  14.165  16.027   0.583  0.2696 -0.1142 -0.0968
19555W        W35816  10.223  12.200   4.289  0.1482  0.0487  0.2310
19556W        W35817  10.594  12.363   5.310 -0.2632 -0.2307 -0.0902
19557W        W35818   1.598   9.485  11.647  0.0370  0.3164 -0.1251
19558W        W35819   3.941  15.252  12.847 -0.0653 -0.2703 -0.0204
19559W        W35820  14.351  17.287   4.371  0.0045  0.0013 -0.0689
19560W        W35821   0.174   0.989   1.653  0.0156 -0.2407 -0.1021
19561W        W35822   0.309   0.089   3.452  0.0626  0.0830  0.0009
19562W        W35823  11.296  15.197  10.733 -0.2348  0.1633 -0.4290
19563W        W35824   2.750   8.382   4.056  0.0582  0.0788  0.1641
19564W        W35825  17.953  16.273  10.506  0.2350  0.0792  0.5273
19565W        W35826   8.122   8.602   5.721  0.0061 -0.0498  0.1362
19566W        W35827   0.895   3.691  13.085 -0.0828  0.5280  0.0818
19567W        W35828   3.521  16.010   2.961  0.0169  0.0368  0.3173
19568W        W35829   6.661  15.582  11.906 -0.0493  0.4166 -0.3742
19569W        W35830  11.266  10.998   0.800 -0.0051 -0.0147 -0.1422
19570W        W35831  15.489  13.099   4.484 -0.3896 -0.2863  0.2012
19571W        W35832  17.104   2.609   2.891  0.0783  0.0648  0.0165
19572W        W35833   9.076   7.347   0.722 -0.1048  0.1499  0.1629
19573W        W35834  13.445   2.251   2.212  0.0059 -0.0384 -0.0558
19574W        W35835   2.395   0.974   1.970 -0.1317 -0.2337 -0.3789
19575W        W35836   4.967   4.720   5.050  0.1616  0.0923  0.1432
19576W        W35837  14.814   5.055  14.643 -0.0270 -0.2142  0.2708
19577W        W35838   0.869   0.686   4.863  0.0280  0.2759 -0.0444
19578W        W35839   6.873   3.562   3.820 -0.0765 -0.0706  0.1062
19579W        W35840   1.503  10.826  12.568 -0.0997  0.1696  0.1518
19580W        W35841   4.189   1.780   4.036 -0.3739 -0.1932  0.1572
19581W        W35842   0.129  16.338  13.607 -0.1271 -0.0173  0.0830
19582W        W35843  17.956  16.511   0.743 -0.0324 -0.0300 -0.1482
19583W        W35844   5.107  10.220  15.977  0.0506  0.0479  0.2312
19584W        W35845   3.513   5.701  13.578 -0.1721 -0.0611  0.0048
19585W        W35846  10.302  10.953  14.391 -0.1287  0.4039 -0.0102
19586W        W35847   6.111   3.153  11.729 -0.0415  0.0218  0.0096
19587W        W35848   6.050   2.861  15.620  0.0216  0.4256 -0.0313
19588W        W35849  12.177   7.148   1.360 -0.0917  0.2568 -0.3379
19589W        W35850   3.161  13.477  11.318  0.1732 -0.1153 -0.1207
19590W        W35851   7.319  11.444  14.132  0.1759  0.3481 -0.2584
19591W        W35852  18.341   9.420   3.741  0.2008 -0.0510  0.0646
19592W        W35853  17.447   7.288   2.066  0.3284 -0.1530  0.2313
19593W        W35854  18.464  16.691  15.337  0.2594 -0.1105  0.2627
19594W        W35855   6.181  16.871  13.696 -0.0427 -0.3967  0.0160
19595W        W35856   1.124   0.906  11.387  0.2084  0.0933 -0.0691
19596W        W35857  11.423   6.672   1.725 -0.1139  0.1539 -0.2897
19597W        W35858   2.775  16.660  11.782 -0.1171  0.2596 -0.3586
19598W        W35859   8.432   6.461   0.866 -0.1791 -0.0178 -0.0743
19599W        W35860   8.709  15.184  12.605 -0.0215  0.2113  0.2361
19600W        W35861   6.973   4.165  11.950  0.1499  0.0005 -0.0720
19601W        W35862  13.287  14.333  14.111 -0.0767  0.2415 -0.0899
19602W        W35863   4.123   9.381  14.213  0.1620  0.1627  0.0296
19603W        W35864  12.051   4.902   1.222 -0.3105 -0.2863 -0.0127
19604W        W35865   9.754  16.209  14.625 -0.1590  0.1905  0.0738
19605W        W35866   5.102  13.765   3.050  0.0030  0.1957 -0.0034
19606W        W35867  15.133   6.977   4.076  0.4530 -0.2111  0.4196
19607W        W35868  12.355   5.076  10.401 -0.1382 -0.0363 -0.0649
19608W        W35869   3.134  14.457   0.018  0.1497 -0.1868 -0.3161
19609W        W35870   9.539   9.247   2.959  0.0779  0.2776  0.1380
19610W        W35871  17.700   6.008   1.762 -0.0381 -0.0687 -0.1322
19611W        W35872  17.055   2.990  14.985  0.4951 -0.0115 -0.0003
19612W        W35873  10.996   7.840  15.938  0.2321  0.0750 -0.3068
19613W        W35874   4.733  10.075  13.948  0.1743  0.0781 -0.1252
19614W        W35875   5.682   2.251  13.044 -0.1251  0.1435  0.0270
19615W        W35876   4.553  14.610   1.359 -0.1110  0.1634 -0.1320
19616W        W35877   8.609  15.208   3.017  0.1320 -0.0462  0.1636
19617W        W35878   5.378   6.036   5.056  0.2326  0.0950 -0.1591
19618W        W35879   9.839   5.767   2.653 -0.0197 -0.1821  0.1865
19619W        W35880   1.488   0.833  14.989  0.2856 -0.0589  0.1262
19620W        W35881   9.565  11.502   5.360 -0.2346 -0.0617 -0.0882
19621W        W35882   9.280   3.770   1.872 -0.1295  0.2502 -0.0034
19622W        W35883   7.975   2.545   1.005 -0.1608 -0.3450 -0.0556
19623W        W35884  14.773  14.669   2.780  0.2421 -0.1477  0.0668
19624W        W35885   5.648  13.950   1.821 -0.1299 -0.0517 -0.0175
19625W        W35886   3.877   4.559   5.499 -0.2091  0.0425 -0.0316
19626W        W35887  10.817  10.387  13.848  0.2968 -0.0949  0.0469
19627W        W35888  13.041  11.790   3.888  0.2013  0.1532 -0.2241
19628W        W35889   8.265   6.045   2.604 -0.1037 -0.0526 -0.0332
19629W        W35890  14.853   7.643  12.891  0.0152  0.0762 -0.1930
19630W        W35891   2.304   0.662  11.717 -0.3906  0.3482 -0.3638
19631W        W35892  12.977   0.254   1.731  0.1885 -0.0100 -0.1353
19632W        W35893  17.005  17.790  13.486  0.1780 -0.0146  0.0489
19633W        W35894   3.260  13.371   5.431 -0.2133  0.0023 -0.0615
19634W        W35895   7.318  12.680   2.767 -0.0040  0.2332  0.0027
19635W        W35896   6.665   1.565  13.692  0.0867  0.1319 -0.0358
19636W        W35897   0.314   3.024  12.246  0.0400 -0.2392 -0.0107
19637W        W35898  17.507   6.353   2.619  0.1055  0.0433 -0.1005
19638W        W35899   4.833  13.648  13.455 -0.0296 -0.1862  0.0551
19639W        W35900   0.451  18.080   5.209 -0.5739 -0.4814 -0.2169
19640W        W35901   6.541   3.687   5.679  0.0931 -0.0266 -0.0317
19641W        W35902  14.661   8.179  15.856 -0.6255  0.0866 -0.1516
19642W        W35903   6.302  13.472  12.704 -0.2027 -0.0155  0.1106
19643W        W35904  16.401  12.170  13.508 -0.0188  0.1995  0.2813
19644W        W35905   0.162   1.219   5.052  0.1652 -0.1338 -0.0809
19645W        W35906   0.359  15.451  13.782  0.4779 -0.0503  0.3156
19646W        W35907   2.257   1.075   4.081 -0.1167  0.0250  0.0019
19647W        W35908   5.922  10.291   5.666 -0.1969 -0.4182  0.1372
19648W        W35909   6.216   1.424  12.178  0.1121  0.2109  0.0646
19649W        W35910  14.419  11.081   3.264  0.1866 -0.2694 -0.0789
19650W        W35911   5.581  18.384   5.716 -0.1191  0.4634  0.0039
19651W        W35912  15.804   5.806  14.255 -0.3431  0.1213 -0.1005
19652W        W35913   8.832   7.276   2.059 -0.0013 -0.1018 -0.2073
19653W        W35914   0.796  15.935  10.726 -0.3865  0.1390 -0.0172
19654W        W35915  10.410   6.113   0.961 -0.1386  0.2033  0.1880
19655W        W35916  17.613   2.510   0.908  0.3078 -0.0971  0.0599
19656W        W35917   5.428   4.496   4.146 -0.1954  0.0986  0.3350
19657W        W35918  18.415  15.668  14.095 -0.1821 -0.0054  0.2029
19658W        W35919   8.344   6.699   1.259  0.2167  0.1337 -0.0179
19659W        W35920   2.750   0.304   3.395 -0.1500  0.0881  0.0710
19660W        W35921   0.455  12.973  12.901 -0.0493 -0.1032 -0.0916
19661W        W35922  13.203   6.896  14.927  0.1639 -0.2542  0.1145
19662W        W35923  16.717   8.333   4.742 -0.2141  0.0810  0.1313
19663W        W35924  13.638   3.513   0.083  0.0039 -0.3150  0.1267
19664W        W35925  11.544   9.276  14.214  0.0426 -0.2117  0.0634
19665W        W35926   9.087  12.400   0.272 -0.2358 -0.3586 -0.1510
19666W        W35927  11.952   7.833  14.610  0.3098  0.0765 -0.2833
19667W        W35928  12.945  15.298  14.954 -0.0688  0.2025 -0.2667
19668W        W35929  10.355  10.848   3.499 -0.0812  0.3810 -0.0783
19669W        W35930   6.510  15.252  15.834  0.0756 -0.1140  0.0747
19670W        W35931   0.355  10.713  13.040  0.0989 -0.1523  0.0949
19671W        W35932   1.028   0.313  15.651 -0.1305  0.1575  0.3810
19672W        W35933  10.477  17.891  11.288 -0.2813 -0.0538 -0.1354
19673W        W35934   7.899  13.606   2.095 -0.0232  0.0846 -0.0881
19674W        W35935   2.331   5.324  14.765  0.0657  0.1155  0.0056
19675W        W35936  14.473   4.662  13.891  0.1487  0.0701 -0.2417
19676W        W35937  10.020   1.148  11.385  0.0555 -0.0434  0.0946
19677W        W35938   0.539  10.966   3.981 -0.1081  0.1454 -0.2430
19678W        W35939  10.385   1.327   6.088  0.0839 -0.1298  0.1758
19679W        W35940  17.625   1.522  14.292  0.1654 -0.1224 -0.2514
19680W        W35941   9.930   1.821   5.140  0.0458 -0.2977  0.1419
19681W        W35942   5.188   2.174  13.086 -0.0834 -0.1648  0.0576
19682W        W35943  17.050  12.390  11.082  0.1716  0.1256 -0.2517
19683W        W35944   0.156  10.080   4.936 -0.2582 -0.0148  0.1759
19684W        W35945   9.999   9.005   3.958 -0.1877  0.2510 -0.1958
19685W        W35946   5.977  13.477   1.283 -0.6127  0.0780 -0.4959
19686W        W35947  14.280  17.745  10.749 -0.1112 -0.4050  0.0007
19687W        W35948   8.852  17.503   3.730  0.0200 -0.3257 -0.2385
19688W        W35949  10.970   8.600  13.998  0.0872 -0.1431 -0.2731
19689W        W35950  17.674   9.860  15.935 -0.2626  0.0079  0.0958
19690W        W35951  13.207   4.449  11.981  0.1017 -0.1140 -0.1010
19691W        W35952   7.827  17.725  12.308  0.1540 -0.2466 -0.1151
19692W        W35953  14.776   2.049  13.383  0.1052 -0.1426  0.3147
19693W        W35954  10.589   7.817  15.120  0.0777 -0.2863 -0.1067
19694W        W35955  15.487  11.159  11.421 -0.1170 -0.2613  0.2442
19695W        W35956   0.195  11.809   1.308  0.2192  0.0104 -0.1379
19696W        W35957   0.712  10.386  13.119  0.0142 -0.0248 -0.1548
19697W        W35958  10.286  10.092  16.113  0.0826 -0.0291  0.0543
19698W        W35959   8.983  11.971  13.710 -0.0350  0.0038  0.0943
19699W        W35960   6.639   1.613  14.358  0.0314  0.0752  0.1111
19700W        W35961   0.041   6.741   5.370 -0.4202  0.2477 -0.0677
19701W        W35962   6.353  13.027   3.727  0.5434  0.1831  0.1541
19702W        W35963   8.087   8.028   1.306 -0.1568 -0.0939  0.3143
19703W        W35964  15.526  11.628   0.206 -0.1403 -0.0206 -0.1376
19704W        W35965   5.451  10.047  11.512  0.1192 -0.1673 -0.1938
19705W        W35966   2.519   6.660  12.495 -0.1501  0.1635 -0.2057
19706W        W35967   4.860  15.397  16.159 -0.0723  0.0824 -0.1410
19707W        W35968  10.600  11.525  15.499  0.2965  0.1775 -0.1022
19708W        W35969  14.167   5.295   3.752 -0.0359  0.1486 -0.0950
19709W        W35970   9.632  11.927  12.467  0.2691  0.1017 -0.1078
19710W        W35971   7.316  15.381  13.611 -0.1677  0.2073 -0.3520
19711W        W35972   0.439  12.644  14.612 -0.1278  0.0531  0.1472
19712W        W35973   6.630  15.494   5.269  0.0838 -0.1673  0.1979
19713W        W35974  18.007  11.757   4.828  0.3691 -0.0951 -0.0497
19714W        W35975   2.335   3.242  15.740 -0.0088 -0.1893  0.3143
19715W        W35976  11.263   6.284  12.435  0.0679 -0.0282 -0.2983
19716W        W35977   9.650   3.859  13.300 -0.0801 -0.1181 -0.1442
19717W        W35978  13.735   6.528   1.511 -0.1993  0.1028 -0.0645
19718W        W35979   1.002  14.479   4.380 -0.0188 -0.1410 -0.0908
19719W        W35980   1.367  10.421  12.128  0.0656 -0.0796  0.0036
19720W        W35981   3.383  10.426  12.788  0.2882 -0.0048 -0.0840
19721W        W35982   5.148   0.950  14.690  0.0380 -0.2978  0.0204
19722W        W35983  10.954   8.464   3.583 -0.1870  0.1326 -0.1333
19723W        W35984   8.053  10.374   5.502  0.1511 -0.2185 -0.1270
19724W        W35985  10.173  16.372   2.438 -0.0329  0.0153  0.3388
19725W        W35986   4.775   5.140  13.204 -0.0370 -0.1410 -0.0418
19726W        W35987   1.240   9.278   4.989  0.0651  0.1139 -0.0240
19727W        W35988  11.412  12.365  13.430 -0.3016  0.0564  0.3953
19728W        W35989  13.389  15.740   1.049  0.1887  0.2600 -0.1057
19729W        W35990   4.159   3.903  14.416 -0.1702 -0.0493  0.0797
19730W        W35991   8.225   3.008  14.089 -0.1994 -0.1781  0.0794
19731W        W35992   0.498  17.478   5.144  0.2283  0.2692  0.1997
19732W        W35993  10.220   1.051  12.304 -0.3870 -0.0718 -0.0137
19733W        W35994  16.236   7.483   4.893  0.1692  0.0401 -0.0138
19734W        W35995   6.636   7.690  15.542  0.3935  0.2489  0.0785
19735W        W35996   5.203   0.188   2.425  0.1671 -0.1742  0.0694
19736W        W35997  10.002   5.722   0.955  0.0316 -0.1165 -0.1453
19737W        W35998  17.150  14.907  11.102  0.2278 -0.0148  0.0959
19738W        W35999   1.581   0.678   3.254 -0.0363  0.0299  0.0255
19739W        W36000   7.908  16.640   2.416  0.0234 -0.2032 -0.3093
19740W        W36001  13.438   5.792   5.392 -0.1457  0.0234 -0.0333
19741W        W36002  15.284  15.005  11.394  0.2229 -0.2387  0.1891
19742W        W36003  10.761   4.348  15.041  0.2730 -0.0546  0.0346
19743W        W36004  17.535   3.539   4.778  0.2176 -0.0431 -0.0305
19744W        W36005  11.623   0.328  10.816  0.4208  0.0875  0.0632
19745W        W36006   1.533   7.205  13.123  0.2886  0.0406 -0.0001
19746W        W36007  12.057   7.628   1.470 -0.2044  0.2222 -0.0881
19747W        W36008   9.597  17.127  13.789 -0.0400 -0.0616  0.0652
19748W        W36009   5.312  14.242   3.017 -0.1480 -0.1573 -0.0820
19749W        W36010  13.280   6.152   2.438 -0.0438 -0.0855 -0.1657
19750W        W36011  17.756   4.422   2.313  0.1170 -0.0141 -0.0443
19751W        W36012   0.893   6.522  16.025  0.0374 -0.1135 -0.1382
19752W        W36013   7.137   2.042   2.187 -0.1211  0.1188 -0.2736
19753W        W36014   8.994   0.868   2.857  0.2001 -0.0784 -0.1032
19754W        W36015   2.640   0.632  15.237  0.4068  0.0777  0.2767
19755W        W36016  13.643   3.055   1.521 -0.1414  0.4111 -0.1174
19756W        W36017   5.438  12.847  13.662  0.5168 -0.1018  0.1071
19757W        W36018   0.644   0.157  11.159  0.1202 -0.0592  0.1754
19758W        W36019   4.459  18.358   5.836  0.2246  0.1360 -0.2638
19759W        W36020  12.620  15.834  12.441 -0.0614  0.0069  0.1888
19760W        W36021   9.726   9.059   3.456 -0.1212  0.0474  0.3914
19761W        W36022   8.503  15.009   2.069 -0.0395 -0.2291  0.1091
19762W        W36023  15.414   3.639   2.289  0.3688 -0.1907  0.0829
19763W        W36024  14.709   6.093   2.641 -0.1252  0.1317  0.1020
19764W        W36025  11.147  17.448  11.606  0.1635  0.1928  0.0333
19765W        W36026   5.819  10.759  13.859  0.0868  0.0278 -0.1332
19766W        W36027   7.748   2.977  12.618  0.0185  0.0291  0.0601
19767W        W36028  10.262  17.082  11.637 -0.0560 -0.3800 -0.1072
19768W        W36029  18.326   8.692  12.332  0.3108 -0.0356 -0.1828
19769W        W36030   6.150  18.386  15.719 -0.4172 -0.1011 -0.0118
19770W        W36031   6.538  13.326  10.758 -0.2671  0.2180 -0.2295
19771W        W36032   7.206  17.648  15.316  0.2634 -0.0007 -0.0561
19772W        W36033   5.965  10.725  15.824 -0.1438  0.0742  0.1537
19773W        W36034   0.832  13.299  12.726  0.1779 -0.0492  0.0156
19774W        W36035   8.807   1.828   5.245 -0.0484  0.1203 -0.0063
19775W        W36036   3.304   0.025   1.277  0.1521  0.1833  0.0209
19776W        W36037  17.066  15.578  15.967  0.0241 -0.1494 -0.3289
19777W        W36038   8.291  11.901   2.256 -0.0439 -0.1061 -0.2028
19778W        W36039  16.925  15.380   4.878 -0.1550  0.0598 -0.0370
19779W        W36040  16.373   2.015  15.037  0.0341  0.0317  0.0458
19780W        W36041   7.619   2.129  12.925  0.2659 -0.1661  0.1751
19781W        W36042  15.719   3.320  12.955 -0.1615  0.0877  0.0689
19782W        W36043   2.451   3.769  14.774 -0.4262 -0.1523  0.2454
19783W        W36044  14.813   5.256   1.601  0.0119 -0.0832 -0.4675
19784W        W36045   3.799   0.142  10.510 -0.0658  0.0258 -0.2493
19785W        W36046   6.320   3.429  12.964  0.2175  0.0641  0.0547
19786W        W36047  13.583   1.478  15.156 -0.0256  0.0716 -0.3474
19787W        W36048  17.336  13.426   4.473 -0.0568  0.0835 -0.4816
19788W        W36049  17.015  12.950  15.732 -0.0049 -0.1658 -0.2444
19789W        W36050   3.778  14.904  12.341 -0.0829 -0.3018 -0.0654
19790W        W36051   5.683   0.232   4.358  0.2203  0.2454  0.0896
19791W        W36052   4.604  16.270  15.450 -0.1646 -0.0709 -0.1393
19792W        W36053   7.827   1.433  12.108 -0.0822  0.1361  0.1601
19793W        W36054  16.381   5.826  11.396 -0.1508 -0.1795 -0.0982
19794W        W36055   4.107   0.418  15.613  0.1458  0.0018  0.0463
19795W        W36056   0.336  14.642   5.008  0.0305 -0.3667 -0.1818
19796W        W36057   5.645  13.629   0.515  0.1705  0.0588 -0.1837
19797W        W36058  16.822   8.386  11.931  0.1254 -0.3339 -0.2891
19798W        W36059  13.469   5.972   1.163  0.0402  0.1374  0.2071
19799W        W36060   9.291  10.368   4.596  0.0531  0.3035 -0.1149
19800W        W36061  10.277   0.625   5.004  0.0512 -0.1857 -0.3995
19801W        W36062   5.687  10.152   0.109 -0.1547  0.0729 -0.0671
19802W        W36063  12.741  13.479   2.699  0.0151  0.0226  0.5856
19803W        W36064  12.326   7.212   0.310 -0.3835  0.0631  0.0724
19804W        W36065   3.357  14.777   4.642  0.1027  0.0506 -0.1128
19805W        W36066  16.739  16.930   2.841  0.2927  0.0649  0.0427
19806W        W36067   2.119   9.199   0.879  0.0492  0.1475 -0.0279
19807W        W36068   5.368   9.839   2.752  0.3027 -0.1024 -0.0638
19808W        W36069   3.925  16.506  10.945 -0.2059 -0.0231 -0.4155
19809W        W36070   4.765  15.031  14.069  0.1409  0.0636 -0.0697
19810W        W36071  12.285  17.528   4.972 -0.2565  0.0593  0.0292
19811W        W36072   1.245   8.937  15.831  0.2140 -0.2032  0.2957
19812W        W36073   1.598  15.534   3.903 -0.0623  0.0937 -0.1445
19813W        W36074   1.834   5.382  14.928  0.3268  0.1870 -0.1770
19814W        W36075   1.036   2.243   4.953  0.0435 -0.1854 -0.1113
19815W        W36076  15.217   6.826   5.149  0.1078  0.0076  0.0102
19816W        W36077   3.651  13.664  15.939 -0.1336  0.1082  0.0453
19817W        W36078   8.326  11.389  12.997  0.0091 -0.0458 -0.1060
19818W        W36079  10.304   1.794  15.661  0.2284  0.2198  0.2294
19819W        W36080  10.594  10.908   0.142  0.1956 -0.0394  0.1788
19820W        W36081   3.185   7.744  14.083  0.0405  0.1362  0.1391
19821W        W36082   9.499   6.940  14.131  0.4808  0.0164  0.2388
19822W        W36083   3.497   7.723   2.401 -0.0667  0.1274  0.3331
19823W        W36084  15.656  15.863   2.737 -0.1260  0.0085  0.0771
19824W        W36085  11.418  17.006   2.180 -0.2128 -0.3415  0.3745
19825W        W36086  13.274   6.149  15.627  0.0481 -0.0547  0.0753
19826W        W36087  17.979   8.558   3.556 -0.0109  0.1311  0.2648
19827W        W36088  12.335   2.310   1.572 -0.2923 -0.2077  0.2779
19828W        W36089   8.370   9.187   2.570 -0.1774 -0.2185  0.2361
19829W        W36090   7.174   6.686   2.147 -0.2964 -0.0496 -0.1394
19830W        W36091   4.777  12.252   5.076  0.0905 -0.0901 -0.0296
19831W        W36092  13.524   3.435  12.007  0.1131 -0.1112  0.0906
19832W        W36093  10.395   0.583  12.022 -0.2206  0.0828  0.1778
19833W        W36094   8.181   4.605   0.888  0.0745 -0.1117  0.3250
19834W        W36095  17.414  15.848  12.443  0.1540 -0.1526 -0.0935
19835W        W36096  17.070   6.799   3.490  0.1143 -0.2495 -0.1781
19836W        W36097   9.401   8.995  15.737 -0.0550  0.1562 -0.1931
19837W        W36098   6.796   9.861   1.085 -0.0984 -0.1007 -0.2693
19838W        W36099  18.174  11.692  15.368 -0.0117 -0.1223 -0.1611
19839W        W36100  17.721   7.269  15.504  0.1255  0.0079 -0.0773
19840W        W36101   5.448   5.976   6.111 -0.0904 -0.0600  0.0353
19841W        W36102  18.199  11.655   5.343 -0.2147 -0.1284  0.0979
19842W        W36103  10.967   9.201   0.327  0.0912  0.1816  0.0372
19843W        W36104   7.541  18.202  15.811 -0.2186 -0.0256  0.0293
19844W        W36105   9.695  16.972  15.118 -0.0089  0.1162  0.1770
19845W        W36106  15.164   2.161   3.302  0.1037 -0.1348 -0.0148
19846W        W36107   2.828   0.833  12.508  0.1098  0.3503  0.0289
19847W        W36108   3.299  12.141   2.599  0.1216  0.0118  0.0313
19848W        W36109  15.379   3.105  13.523 -0.1062 -0.3525  0.0986
19849W        W36110   5.647  10.113   3.600 -0.0271 -0.0298  0.1481
19850W        W36111  15.226  13.922   1.974 -0.1821 -0.1357  0.3015
19851W        W36112   9.714  14.654   5.775  0.1149  0.0765  0.2566
19852W        W36113   1.675  10.221  14.148 -0.0006  0.1033 -0.4402
19853W        W36114   6.512  14.394  14.402 -0.2525  0.0693  0.1767
19854W        W36115   6.530   8.149   5.011  0.2462 -0.2998  0.1292
19855W        W36116   8.767  13.497  13.392 -0.1092 -0.1290  0.1313
19856W        W36117   6.371   6.806  13.621 -0.1310  0.0894 -0.0449
19857W        W36118  11.691  14.646  15.652 -0.0765  0.0651  0.0943
19858W        W36119  12.697  12.903  13.694 -0.1519  0.0020 -0.3047
19859W        W36120   2.308  17.624  12.013  0.0177  0.1393 -0.1296
19860W        W36121  16.486  14.038   1.442  0.3804 -0.1467 -0.2820
19861W        W36122   4.969   4.651  14.699 -0.0632  0.2523  0.2101
19862W        W36123   4.250  18.332   1.650  0.0628  0.2783  0.2655
19863W        W36124  11.693   8.268   2.617 -0.1776  0.1082  0.0793
19864W        W36125   2.030   1.530  15.191 -0.0056 -0.1287 -0.2268
19865W        W36126   4.720   8.794   0.554 -0.3730  0.1168  0.0288
19866W        W36127   4.949  10.828  12.290  0.2504  0.0983 -0.2811
19867W        W36128  15.908  10.014  10.904  0.4792 -0.1974 -0.0471
19868W        W36129  17.575  12.253   0.399 -0.1274 -0.0123  0.2684
19869W        W36130  17.930   0.454  14.908 -0.1526 -0.0349  0.1088
19870W        W36131   0.535  10.184  15.803 -0.1725  0.0248  0.2371
19871W        W36132  10.441   2.539  11.898  0.1154 -0.1895 -0.1220
19872W        W36133   1.691  17.471  12.561 -0.2411 -0.1274 -0.0286
19873W        W36134   4.853   9.441  14.866 -0.1046 -0.1654 -0.0245
19874W        W36135  13.685  15.494  12.250 -0.1007 -0.1204  0.2041
19875W        W36136   9.605   8.374  12.118  0.0351 -0.0802  0.0027
19876W        W36137   6.493  18.226   1.149  0.1716 -0.2353 -0.5005
19877W        W36138   9.240   3.930  16.031 -0.3067  0.2138 -0.0476
19878W        W36139   4.047   4.184   6.017 -0.2066 -0.0306  0.0563
19879W        W36140   1.217   4.467  13.469  0.1914  0.0941 -0.2562
19880W        W36141  13.567  15.249   0.732 -0.1011  0.1340 -0.1077
19881W        W36142   9.326   5.847   1.825 -0.0626 -0.1762  0.2241
19882W        W36143  14.493   5.415  14.825 -0.0305  0.1236  0.1315
19883W        W36144   4.332  12.433  11.095  0.1722 -0.1055  0.1679
19884W        W36145   5.522   1.366  15.890  0.0347  0.1779 -0.3874
19885W        W36146   2.478  16.879  13.876 -0.1891  0.0772  0.0257
19886W        W36147  14.111   5.082   3.294 -0.2279  0.2791 -0.0005
19887W        W36148  13.479  14.505   2.295 -0.2817  0.1253  0.1119
19888W        W36149  13.133  13.582  12.570 -0.0612 -0.0229 -0.2419
19889W        W36150   8.257  18.220  10.590 -0.1908  0.1194  0.1568
19890W        W36151  11.583  13.945   0.842  0.0939 -0.1825  0.3340
19891W        W36152  10.906   8.523  12.586 -0.1547  0.0248  0.2253
19892W        W36153   7.718   7.064   1.627 -0.4811 -0.1338 -0.1161
19893W        W36154   3.889  10.091   5.106 -0.0194  0.3108  0.2152
19894W        W36155  14.625   6.972  16.103 -0.0756 -0.1267  0.3712
19895W        W36156  17.481  14.911  16.020 -0.0713 -0.1022 -0.2532
19896W        W36157   5.842  11.804   1.304 -0.2204 -0.1216  0.0147
19897W        W36158  11.867   5.034  13.508  0.0408  0.0743 -0.0539
19898W        W36159   5.411   4.078  14.657  0.1999  0.1184 -0.3122
19899W        W36160   6.318  11.311   5.280  0.0267  0.0215 -0.1259
19900W        W36161   6.159  11.510   0.820  0.1067 -0.0120 -0.0800
19901W        W36162   4.580   2.104  11.944 -0.1517 -0.1258 -0.0875
19902W        W36163  12.695   0.598   2.978 -0.0933 -0.0595 -0.1222
19903W        W36164  14.561  15.139  10.840  0.1047 -0.1663  0.0715
19904W        W36165  16.139   9.396   1.619  0.1241 -0.2235  0.0307
19905W        W36166   1.494   3.646  12.919 -0.0794 -0.0079  0.2239
19906W        W36167  13.800  14.220   1.255 -0.2214  0.0048  0.1826
19907W        W36168  11.067  14.141  13.776  0.0242 -0.1240  0.0965
19908W        W36169   5.015  14.747  10.897  0.0704  0.0614 -0.0037
19909W        W36170   7.293   2.190   3.526 -0.2334  0.1695  0.4270
19910W        W36171   5.753  16.421  14.447  0.1636  0.2966  0.0014
19911W        W36172   7.912   6.526   0.807  0.2154 -0.2552 -0.0760
19912W        W36173  18.309  13.705   5.502  0.2248  0.1358 -0.0404
19913W        W36174  10.959   7.252  12.644 -0.4248 -0.1351 -0.0985
19914W        W36175  13.144  15.367  14.189  0.1231 -0.2234 -0.2740
19915W        W36176  16.608   4.893  13.309  0.1594 -0.0204 -0.0306
19916W        W36177   7.141   0.410  13.921  0.2082 -0.0978  0.3259
19917W        W36178   9.462   8.804   4.050  0.1791 -0.0507 -0.0297
19918W        W36179   8.131   0.215   4.025  0.2608  0.2092 -0.0627
19919W        W36180   4.394   9.969   2.602 -0.4100  0.0450 -0.0816
19920W        W36181  10.458  16.197  11.945  0.1675 -0.1202  0.1709
19921W        W36182   5.010   5.686   5.223  0.1960 -0.2943  0.2402
19922W        W36183   8.568   5.285  14.686  0.2941  0.3109 -0.0386
19923W        W36184  10.556   6.136   1.497 -0.2399  0.0714  0.5045
19924W        W36185   5.796  14.657   3.023  0.0369 -0.0490  0.1986
19925W        W36186  12.923  13.378   0.761  0.0036  0.2923  0.0517
19926W        W36187  11.919   6.801  12.718 -0.2464 -0.0057  0.3701
19927W        W36188  14.622   1.495  15.179 -0.3456 -0.2191 -0.3132
19928W        W36189  14.188  10.748   1.670  0.3709 -0.4452 -0.4242
19929W        W36190   4.409  13.973   2.462  0.0475  0.0656  0.1134
19930W        W36191  16.936   8.106   1.798 -0.1831 -0.1104 -0.1484
19931W        W36192   3.366  11.984  15.218 -0.4353 -0.1279 -0.2403
19932W        W36193  13.043  13.006   3.932  0.3725 -0.0040 -0.0742
19933W        W36194  17.490   0.428   5.997 -0.1149  0.0565  0.0808
19934W        W36195  17.044  15.335  11.365 -0.2321 -0.0484 -0.1628
19935W        W36196   3.307  16.250   1.488  0.1573 -0.1462  0.0747
19936W        W36197   3.099  15.332  13.635  0.1570  0.0448 -0.4400
19937W        W36198  13.092   7.822   2.402  0.0319 -0.0650 -0.1552
19938W        W36199  18.041  12.713  13.457  0.0923 -0.0774  0.2639
19939W        W36200   1.622   4.158   1.583  0.1630  0.2114 -0.0406
19940W        W36201   7.928   7.574   0.767  0.3389 -0.0696 -0.2065
19941W        W36202  15.060   1.142  16.147  0.3102 -0.1021 -0.0045
19942W        W36203   9.816  13.016  14.459  0.0496  0.2465  0.2267
19943W        W36204  12.460   0.425   2.075 -0.1015 -0.1032 -0.1366
19944W        W36205   0.841   6.395  14.724  0.0044  0.1824  0.4578
19945W        W36206   9.893   0.580   0.815  0.1438  0.0415  0.0942
19946W        W36207  11.677   5.784   1.087  0.3050 -0.2323  0.0583
19947W        W36208   2.519   9.344  13.285 -0.0429 -0.0388  0.4199
19948W        W36209   3.286   6.237  15.025  0.1549 -0.2293  0.1439
19949W        W36210  13.044   0.506  12.719 -0.1929 -0.0954 -0.1131
19950W        W36211  17.895  13.505  12.183  0.1058 -0.2284  0.0161
19951W        W36212   7.657   1.376  13.252 -0.2018 -0.2718  0.2271
19952W        W36213   5.634   5.002  13.580  0.0642  0.2388 -0.0445
19953W        W36214   0.416  10.546   2.264  0.2466 -0.0438 -0.0579
19954W        W36215  18.378   5.455   3.840  0.0203 -0.3070 -0.1566
19955W        W36216  13.354  10.397  10.954  0.2160  0.2144 -0.0089
19956W        W36217  17.032   9.112  13.006 -0.0824 -0.2564  0.3142
19957W        W36218  14.703  11.568  12.026 -0.1342  0.2202  0.0817
19958W        W36219   0.265  16.250  14.591 -0.2959 -0.0913 -0.0463
19959W        W36220  10.894  15.316  13.419 -0.0531 -0.1053 -0.0111
19960W        W36221   7.827   4.576  14.715  0.2103  0.0788  0.0302
19961W        W36222   7.333  14.145   0.381 -0.0900  0.0318 -0.0094
19962W        W36223   3.714   3.018   4.490  0.0723  0.3006 -0.2770
19963W        W36224  16.042  16.661   4.368  0.0141 -0.1333 -0.1389
19964W        W36225  14.126   3.072   3.563 -0.0127 -0.2766  0.3096
19965W        W36226   8.143   4.194  15.456 -0.3052 -0.0334 -0.0636
19966W        W36227  18.255   9.217   2.997  0.0677 -0.2143  0.1567
19967W        W36228  10.379   8.010   1.891 -0.3382 -0.0359  0.0585
19968W        W36229  10.212   6.752   3.565 -0.0764  0.1808  0.1337
19969W        W36230  10.881  16.496  11.328 -0.0615 -0.0405 -0.1570
19970W        W36231   1.455  13.057   5.141  0.1499 -0.0256  0.0828
19971W        W36232  16.888   2.485  14.540 -0.0906 -0.0249  0.0548
19972W        W36233   0.484  15.028   0.117  0.0273  0.4505  0.1955
19973W        W36234   8.538   5.504   1.337 -0.1048 -0.1695 -0.3405
19974W        W36235   5.605   6.308  13.254  0.1280 -0.0392 -0.5108
19975W        W36236  17.836   3.529   3.708  0.3859  0.1833  0.1482
19976W        W36237  11.860  15.067  12.956 -0.0526 -0.2892 -0.3170
19977W        W36238  12.804  10.234  10.986 -0.2562 -0.2248 -0.0203
19978W        W36239   0.847   4.465  11.442  0.0544  0.0331 -0.2447
19979W        W36240  10.668  16.984  14.437 -0.4468  0.3119  0.0413
19980W        W36241  11.326   4.536   4.129 -0.2400  0.0420  0.4379
19981W        W36242   4.373   0.619  15.178 -0.3176 -0.1014 -0.2199
19982W        W36243  14.925  17.986  13.283 -0.0685  0.0069 -0.0697
19983W        W36244   7.411   5.356   5.963 -0.0195 -0.0562 -0.3833
19984W        W36245  12.159   5.709   1.619 -0.2707 -0.2944  0.3846
19985W        W36246   2.286  15.084  13.967  0.0391  0.0442  0.1185
19986W        W36247   7.887  16.767   1.078  0.0976 -0.1876 -0.0002
19987W        W36248  15.706   9.294   0.310  0.1359  0.1384  0.2253
19988W        W36249   5.257  15.134   2.953 -0.0428 -0.0639 -0.0606
19989W        W36250   7.546   1.589  16.122  0.0406 -0.2177 -0.2726
19990W        W36251   1.857  18.335   4.312 -0.2522 -0.1868 -0.3974
19991W        W36252   3.808   9.122  13.774 -0.1293  0.0456 -0.2488
19992W        W36253   9.532   0.023   2.794  0.0209 -0.2234  0.2398
19993W        W36254  13.447  17.605  10.513  0.1935 -0.1107 -0.2666
19994W        W36255   9.912  11.666   2.053 -0.1596  0.1237 -0.0739
19995W        W36256  15.330  11.374  13.884 -0.2588  0.0337 -0.0217
19996W        W36257   5.217   6.900   1.302 -0.0982  0.0636  0.2446
19997W        W36258   0.213   2.916  15.253  0.0901 -0.4398 -0.2265
19998W        W36259  14.393  16.517   4.874  0.0906 -0.0126 -0.1672
19999W        W36260   2.571   0.784   5.413  0.2867  0.4321  0.1005
20000W        W36261   1.144   0.608   1.223  0.0766 -0.5253  0.0429
20001W        W36262   6.086  18.157   2.451 -0.3088 -0.0035 -0.0344
20002W        W36263  12.997  16.827   1.961 -0.2336 -0.0749 -0.2301
20003W        W36264  13.485   6.307   4.879  0.0485 -0.1891  0.0337
20004W        W36265  14.217   7.334  15.961  0.0030  0.1686 -0.1643
20005W        W36266  16.074  16.538   0.870  0.3312  0.0375  0.2498
20006W        W36267   4.071   7.660   0.611  0.0074 -0.1984  0.0593
20007W        W36268   2.942   2.808  15.841 -0.0909  0.0833  0.3064
20008W        W36269   3.807   5.828  12.571 -0.3070 -0.3805 -0.1377
20009W        W36270  11.029   4.685   3.694  0.3135 -0.0608  0.0274
20010W        W36271   7.327  11.680   4.014  0.0016  0.2396 -0.1772
20011W        W36272  15.345  10.474   3.721 -0.1137  0.1798 -0.1538
20012W        W36273  11.666   7.231   1.491 -0.1924 -0.1103  0.3129
20013W        W36274  12.071   8.521   1.103  0.0078 -0.1228 -0.1374
20014W        W36275   2.358   8.082   2.445 -0.0580 -0.0900  0.1096
20015W        W36276   3.894   7.639  12.316 -0.3155  0.1696 -0.3069
20016W        W36277  14.928   5.089  12.640  0.2376 -0.1974 -0.3943
20017W        W36278  13.132  10.507  12.088 -0.2088  0.0830 -0.2719
20018W        W36279   5.694  17.837   3.092 -0.0460  0.1693 -0.2542
20019W        W36280   2.468  11.360   0.531 -0.0063  0.0537 -0.0824
20020W        W36281  13.033   0.727  14.047  0.2396  0.1188  0.0940
20021W        W36282  10.207   9.236  15.104 -0.3243  0.2182  0.2961
20022W        W36283   0.583   6.806  12.116  0.0156  0.0324  0.1001
20023W        W36284  16.861  13.275   1.816 -0.0317  0.3242 -0.2114
20024W        W36285  17.692   6.422  15.460 -0.0580 -0.1926  0.1294
20025W        W36286   5.469   2.023   0.692  0.2688  0.0340 -0.0091
20026W        W36287  14.881   5.198  11.143  0.1656  0.1984  0.0926
20027W        W36288  14.392   8.494   4.180  0.3071  0.1873  0.1441
20028W        W36289   5.735  18.303   5.212 -0.1234 -0.0329  0.3019
20029W        W36290  16.078   8.247   0.861  0.0774  0.1873 -0.2180
20030W        W36291   8.912  14.627   4.907  0.1027 -0.0379 -0.0042
20031W        W36292  18.459   1.155  14.850  0.0772  0.4115  0.2141
20032W        W36293  17.318   5.203  16.080  0.0823 -0.3992  0.0213
20033W        W36294  12.099   0.383   4.150  0.1080  0.1555  0.1593
20034W        W36295   4.241  16.783  13.380  0.3897  0.2897 -0.2836
20035W        W36296   3.129   1.471   4.262 -0.0263 -0.2497 -0.0874
20036W        W36297  14.506  13.293   1.610  0.5323  0.1846  0.0245
20037W        W36298  12.181   1.423  12.557  0.1734  0.2941  0.1743
20038W        W36299   8.836  17.624   5.186  0.1073  0.0182  0.0743
20039W        W36300   5.297  15.678   1.810 -0.2088 -0.1716  0.0636
20040W        W36301   9.351   2.857   3.886  0.0887 -0.1189  0.1136
20041W        W36302   0.445  13.095  14.464  0.0110  0.1825  0.1457
20042W        W36303   5.307  18.463   4.889  0.1430  0.1160 -0.0871
20043W        W36304   3.879  14.043  11.226  0.2362  0.0769 -0.2211
20044W        W36305   9.386  18.276  14.868  0.1718  0.0534 -0.0555
20045W        W36306   1.342  11.453   5.650 -0.2781  0.1710 -0.0589
20046W        W36307   6.126   4.287  15.451 -0.2385  0.1300  0.0062
20047W        W36308   5.671  12.998  15.628 -0.2254  0.1940  0.0765
20048W        W36309  14.423   2.130  16.052  0.0050 -0.0921  0.1172
20049W        W36310   7.131   6.839  13.036  0.3002 -0.0838  0.3265
20050W        W36311   1.523  17.309  14.977  0.1502  0.2230 -0.0722
20051W        W36312  11.669  11.666  15.159 -0.1304  0.3201 -0.0157
20052W        W36313   1.389   5.504   3.293 -0.0364  0.0584 -0.1075
20053W        W36314  15.564  15.938   0.425 -0.1162 -0.0794  0.0618
20054W        W36315  18.445   9.710  14.637 -0.3856  0.0903  0.2276
20055W        W36316   3.404  18.340  14.544  0.0183  0.1528 -0.3083
20056W        W36317   8.356   5.491   2.726 -0.1125 -0.2044  0.2292
20057W        W36318   0.161   8.273   5.097  0.1674  0.4736  0.0331
20058W        W36319   9.209  13.869  16.159  0.0462  0.1232  0.0229
20059W        W36320   6.878   1.507  14.787 -0.2180 -0.1140 -0.0483
20060W        W36321   0.906  12.383  13.422  0.1565 -0.0366  0.1232
20061W        W36322  11.861   8.737  14.696 -0.0482 -0.0731  0.0878
20062W        W36323  14.911   9.758   2.130  0.0608 -0.1385 -0.1651
20063W        W36324  15.056  17.616  15.598 -0.0106 -0.2334  0.0629
20064W        W36325  16.150  11.122   2.048 -0.0561  0.3223  0.2130
20065W        W36326   3.260  13.835  12.091  0.2071  0.1019  0.0254
20066W        W36327   8.105  17.834  15.659 -0.2790 -0.1993 -0.3181
20067W        W36328  10.283  11.522  13.626 -0.0600 -0.0180  0.0019
20068W        W36329   0.027   9.936  12.497  0.1335  0.1023  0.1735
20069W        W36330   8.093   3.008   0.509 -0.0600 -0.3706  0.2107
20070W        W36331   7.016  18.146   2.437 -0.0249 -0.1218  0.4060
20071W        W36332   5.584   5.354   1.291  0.4514  0.2680 -0.1616
20072W        W36333   6.367   8.725  13.500  0.1388 -0.1831 -0.0602
20073W        W36334   4.757   3.124   1.292  0.1258 -0.0480  0.1923
20074W        W36335   2.079   9.342   5.208  0.2009  0.4076  0.1224
20075W        W36336  16.653  17.785   2.816  0.0024  0.2640  0.3046
20076W        W36337  12.917   3.128   4.076 -0.0137  0.1652 -0.2390
20077W        W36338   0.348   6.081  14.033 -0.0550 -0.1438 -0.0771
20078W        W36339   0.513   1.515   3.362  0.0633  0.0086  0.2168
20079W        W36340   4.864  15.772   2.070  0.0391 -0.1416  0.2039
20080W        W36341  16.543  10.572   4.527  0.1615  0.0206  0.2891
20081W        W36342  17.776  14.526  13.483 -0.1776 -0.1124  0.4833
20082W        W36343  16.823  11.222  15.676 -0.1068  0.1727  0.2541
20083W        W36344   4.664  18.145  15.831  0.1459 -0.0528  0.2809
20084W        W36345  15.501   7.478  12.026 -0.1623  0.3794 -0.0015
20085W        W36346  10.222  15.276   1.761  0.5194 -0.0648  0.3933
20086W        W36347   6.438   3.105   4.584 -0.1973  0.1210  0.0284
20087W        W36348  15.997   0.025  12.967 -0.0771  0.1229 -0.1258
20088W        W36349  17.071   8.900   5.444 -0.1120  0.1618  0.1016
20089W        W36350  11.660  15.108   4.669  0.1094  0.0255 -0.1743
20090W        W36351  16.226   8.985   3.465 -0.2179 -0.2746 -0.3102
20091W        W36352   9.466  17.475  11.993  0.1181  0.1643  0.2982
20092W        W36353  16.305   1.220   3.909 -0.1199  0.2309  0.2496
20093W        W36354   3.779   7.013  15.648  0.1534  0.4374 -0.0078
20094W        W36355   2.507  14.422   5.672 -0.0830  0.2325  0.0518
20095W        W36356   2.100  15.510   2.437 -0.0212 -0.3555 -0.0046
20096W        W36357   8.788   0.607   2.476  0.2325 -0.1834  0.2745
20097W        W36358   8.631   3.748  12.932 -0.0227 -0.2195 -0.2543
20098W        W36359   1.044   9.812  14.824  0.1698 -0.3365  0.0837
20099W        W36360   2.613  15.244  12.422  0.1141  0.1031 -0.0689
20100W        W36361   5.652  11.074  12.940 -0.1197  0.2244  0.3984
20101W        W36362   4.024   9.540  11.517 -0.1431 -0.1699  0.0768
20102W        W36363  13.484  10.724   5.979  0.3517  0.3513 -0.2232
20103W        W36364   6.553   5.351   2.543 -0.1962 -0.1300 -0.2594
20104W        W36365   9.532   1.139   3.392 -0.0821 -0.0105  0.0869
20105W        W36366  14.532   1.052   3.138 -0.1895 -0.2196 -0.0007
20106W        W36367  10.163   2.094  16.114 -0.0415 -0.1914 -0.2392
20107W        W36368   5.098  18.220   3.636  0.2205  0.0287 -0.0444
20108W        W36369  15.333   2.694   3.581  0.3042  0.0026  0.0993
20109W        W36370   9.438  15.884  14.895  0.0703  0.1362 -0.2960
20110W        W36371  18.221   0.056  11.564  0.4022 -0.1930 -0.1046
20111W        W36372   2.670   1.711  12.641 -0.2140 -0.1670  0.0403
20112W        W36373  16.420   0.283  16.031  0.4335 -0.1156 -0.0122
20113W        W36374   1.184   9.063   2.629  0.1665  0.2067  0.1566
20114W        W36375   4.309  11.442  13.914  0.0727  0.0762  0.2984
20115W        W36376   2.529   5.167  12.865  0.1584 -0.0105  0.0063
20116W        W36377  16.083   2.370  16.066 -0.0474 -0.0727  0.4192
20117W        W36378   1.291   5.980   4.919 -0.1667 -0.3424  0.0094
20118W        W36379  10.041  15.831  14.343  0.3399 -0.0312  0.1840
20119W        W36380  14.367   7.374   1.482  0.2305 -0.0800 -0.0069
20120W        W36381  11.251   5.221   5.522 -0.2018 -0.0489  0.1179
20121W        W36382  12.248  11.634  14.416 -0.1099  0.2780 -0.0516
20122W        W36383  14.506   4.925   1.387  0.0389  0.1171 -0.2260
20123W        W36384   8.525  13.319   0.213  0.0979 -0.0440 -0.0700
20124W        W36385  10.983  17.649  14.044 -0.1216 -0.0429 -0.0239
20125W        W36386   7.849  18.069   2.679  0.1198  0.0812  0.4338
20126W        W36387   8.682   9.107  12.448  0.1813  0.0591  0.1446
20127W        W36388  11.717   5.882   1.780 -0.2371 -0.1366  0.0098
20128W        W36389   3.737   5.416   1.474 -0.1002 -0.0113  0.0032
20129W        W36390   4.214  15.763  12.185  0.0917 -0.1930 -0.3491
20130W        W36391   0.415  18.246  15.444  0.2761  0.4008  0.3821
20131W        W36392   8.123  13.712  14.800 -0.0509 -0.1449  0.0821
20132W        W36393   1.465  13.809   1.748 -0.5000 -0.0722  0.2391
20133W        W36394   1.816   1.219  13.508 -0.2529  0.2529  0.0167
20134W        W36395   4.700  17.736   3.416  0.0869 -0.2026  0.0495
20135W        W36396   6.767   8.319   1.162 -0.1048  0.1173 -0.0745
20136W        W36397  12.847   7.358  15.705  0.0738 -0.1043  0.2282
20137W        W36398  18.015   9.547  14.580 -0.1086  0.2300  0.1977
20138W        W36399   9.279  10.545  13.467 -0.0834  0.1273  0.1838
20139W        W36400  10.629   7.146   1.733 -0.2317 -0.1293 -0.3003
20140W        W36401  11.131   0.140  13.151  0.1005 -0.0043 -0.2486
20141W        W36402  15.633   8.130   4.279  0.1375 -0.3702  0.4503
20142W        W36403  14.702  13.570  16.011  0.0018  0.0449  0.3425
20143W        W36404   1.979   9.256   3.273 -0.0860  0.1595  0.0510
20144W        W36405  10.173  11.146  15.520  0.1793  0.0327  0.1764
20145W        W36406   5.989  18.206   4.095 -0.2186  0.0739 -0.1283
20146W        W36407  11.290  13.514  13.149  0.2220  0.3478 -0.2632
20147W        W36408   0.523  10.741   0.658 -0.0959 -0.0006  0.0522
20148W        W36409   5.370  18.227  12.524 -0.1688  0.1143 -0.1106
20149W        W36410   0.751  11.239   0.026  0.2863 -0.1661  0.2547
20150W        W36411   1.336   8.703  14.213 -0.1782  0.0945 -0.3097
20151W        W36412  12.139  12.822   5.220 -0.1556 -0.3631  0.1037
20152W        W36413   8.221  11.228   5.119 -0.0630 -0.0290 -0.3067
20153W        W36414  15.334   8.233   2.311 -0.3221 -0.0870 -0.0723
20154W        W36415  10.356  10.318   4.247 -0.2295  0.0781  0.1363
20155W        W36416   3.718  14.485  11.416 -0.1969  0.0005  0.1193
20156W        W36417   1.477   8.834  13.751 -0.1956 -0.4008  0.1815
20157W        W36418   8.635  10.688   2.596 -0.2401  0.0061 -0.1328
20158W        W36419   3.486   0.026   0.147 -0.2302 -0.0118 -0.2077
20159W        W36420   1.675   3.653   1.344  0.0027 -0.0393  0.0182
20160W        W36421   2.533  15.811  11.160 -0.0535  0.2288  0.0965
20161W        W36422   8.045  18.114   5.619  0.4840 -0.2344 -0.0229
20162W        W36423   8.163   7.802  13.877  0.0789  0.1291 -0.5190
20163W        W36424   3.385   1.129  15.907  0.2383  0.2429  0.1855
20164W        W36425  17.518   4.748   3.536  0.1044  0.1127  0.1916
20165W        W36426   4.173   0.485  11.824  0.0226  0.0539  0.0092
20166W        W36427  12.789   1.269   1.068  0.3993  0.0296  0.0984
20167W        W36428  17.331   8.494  12.227 -0.1454 -0.0102 -0.2240
20168W        W36429   9.879   4.576   5.232 -0.0508  0.1856  0.1804
20169W        W36430   8.641  15.521  14.886 -0.0361  0.1369  0.0198
20170W        W36431  13.715  10.589   5.156 -0.2023 -0.1111  0.0862
20171W        W36432  17.084  16.226   0.363  0.1077 -0.2725  0.2514
20172W        W36433   2.591   5.947   4.966  0.0907  0.0700 -0.3553
20173W        W36434  18.415   5.883   1.078 -0.0672 -0.1429  0.0356
20174W        W36435   4.526   2.202   1.315  0.1223  0.1440 -0.2164
20175W        W36436   2.418   9.503   1.219 -0.0629  0.1631 -0.0655
20176W        W36437  11.633  14.175  12.581 -0.1010  0.0933  0.0373
20177W        W36438  13.426   3.753   3.535 -0.0554 -0.0283 -0.1339
20178W        W36439  17.986  11.373  13.311  0.1657  0.2696 -0.2091
20179W        W36440   2.947  11.157  12.985  0.0762 -0.0716  0.2174
20180W        W36441  18.351  16.268  12.474 -0.0060  0.2043  0.2086
20181W        W36442   6.160  12.533   0.856 -0.1738 -0.3515  0.1947
20182W        W36443   2.839  13.892   1.142  0.0362  0.1027 -0.0502
20183W        W36444   7.156   3.637  13.762 -0.2742 -0.0604  0.2653
20184W        W36445  15.948   9.551  16.177 -0.0498 -0.0696  0.1369
20185W        W36446  11.612   2.848   2.857 -0.2921 -0.0506  0.1527
20186W        W36447  11.253  15.034   5.707  0.0289  0.0377 -0.2726
20187W        W36448  17.255  18.205   1.584  0.0568  0.1076  0.1369
20188W        W36449   0.718   2.382   5.346 -0.0522  0.0106  0.1503
20189W        W36450  10.683   8.255   0.454  0.1155  0.1315 -0.1321
20190W        W36451   8.930   7.225  15.300 -0.0723 -0.0706  0.1708
20191W        W36452   9.670  13.823  12.382 -0.1358  0.0980 -0.0117
20192W        W36453   0.205   0.625   3.842 -0.1130  0.1197 -0.5649
20193W        W36454   4.266  13.669  10.323 -0.0778  0.1156 -0.1051
20194W        W36455  15.851   2.839  12.205  0.0134 -0.1143  0.0234
20195W        W36456  18.090   1.793   3.157  0.2057 -0.3337  0.1226
20196W        W36457  15.062  14.679   2.184  0.3094  0.2084  0.1641
20197W        W36458   1.764   5.726   0.685  0.0683  0.3894  0.0171
20198W        W36459   3.136   7.768   2.055  0.0523  0.0430 -0.0166
20199W        W36460  13.926   1.780  15.849  0.0438  0.0834  0.0838
20200W        W36461   5.822   3.481   0.622 -0.3578  0.1065  0.1087
20201W        W36462  11.640  14.264   2.889  0.0690  0.0611 -0.1128
20202W        W36463   2.232   1.670   0.350 -0.4166 -0.1140  0.0777
20203W        W36464   4.264   6.595   2.296  0.0577  0.1328 -0.1254
20204W        W36465   4.064  15.777   3.561  0.0254  0.0585 -0.3115
20205W        W36466  13.175   4.031   2.635 -0.1196 -0.3290  0.0349
20206W        W36467  10.578  16.671   4.152 -0.0928  0.0864  0.0364
20207W        W36468   1.262   0.157   2.021  0.3293  0.0247  0.0520
20208W        W36469  10.221   6.208  12.186 -0.1586 -0.2391 -0.2200
20209W        W36470   6.965   6.887  12.089  0.0129 -0.1952  0.0915
20210W        W36471  16.063   8.664   2.861 -0.1676 -0.3113 -0.0154
20211W        W36472  11.095   7.195   6.092  0.1771 -0.3245 -0.0728
20212W        W36473  14.630   2.781  11.450  0.1379 -0.2375  0.1977
20213W        W36474  12.160  10.867  13.890  0.0010  0.0868  0.0428
20214W        W36475  11.490  13.031   2.338 -0.0772  0.3760  0.0913
20215W        W36476   0.722   1.484  14.261  0.0314 -0.0601 -0.0633
20216W        W36477  18.009  17.022  12.499  0.4912  0.1314 -0.1660
20217W        W36478   8.212  17.530   5.434 -0.2641 -0.1288  0.4720
20218W        W36479  13.994   8.817   0.102  0.0861 -0.2226 -0.0826
20219W        W36480   9.459  13.010   0.045 -0.2551  0.1470  0.1072
20220W        W36481   9.063  14.105  14.013  0.0559  0.1176  0.0028
20221W        W36482  16.985  13.671   2.546 -0.1771 -0.2561  0.1188
20222W        W36483  12.169   3.095  11.940 -0.1633 -0.1224  0.0820
20223W        W36484   6.337   2.191   3.541  0.2713 -0.0707 -0.2036
20224W        W36485  11.079   3.375  11.472 -0.2358  0.1315  0.0755
20225W        W36486   4.294   0.983  14.868  0.1474 -0.1001 -0.1358
20226W        W36487   4.687   4.369  16.018 -0.2862 -0.0005  0.1622
20227W        W36488   6.935   4.106   1.276 -0.2308  0.1135  0.1969
20228W        W36489  13.548  10.028  10.623 -0.2895  0.0585 -0.3447
20229W        W36490  13.015   2.880   2.699 -0.3596 -0.2495  0.0424
20230W        W36491   6.793  18.051   0.138  0.0894 -0.1348 -0.0320
20231W        W36492  14.612  12.610  13.289 -0.0580  0.0122 -0.0619
20232W        W36493   3.579  14.297  15.829 -0.1392 -0.1780  0.4792
20233W        W36494   6.531  14.021  12.115 -0.0551 -0.0289  0.0242
20234W        W36495  12.499  13.222   1.509 -0.1200 -0.1716 -0.0248
20235W        W36496  13.526  10.390  14.766 -0.4043 -0.0896  0.0106
20236W        W36497   0.219   7.079  14.971  0.3523  0.1209 -0.0613
20237W        W36498   4.006  13.901  14.555  0.0781  0.0112 -0.1125
20238W        W36499   2.256   2.342   1.328  0.2116 -0.4257  0.1698
20239W        W36500   3.187   9.180   2.171  0.0625  0.0083 -0.1116
20240W        W36501   2.816   6.204   5.752 -0.0408  0.2332 -0.2890
20241W        W36502   8.947   6.213   5.493  0.0092 -0.0540  0.0585
20242W        W36503   2.988   1.312   3.827 -0.2991  0.0329  0.1129
20243W        W36504   6.507   5.971   4.373 -0.1544 -0.2590  0.1423
20244W        W36505   1.500  11.956  11.920 -0.2528  0.1792  0.0848
20245W        W36506   2.545   3.779   5.689 -0.1314 -0.1501 -0.2169
20246W        W36507  12.203   6.562  13.997  0.2034 -0.1142  0.0808
20247W        W36508  11.457  10.941  12.368  0.0039 -0.0337  0.1735
20248W        W36509   1.403  14.149  12.604  0.3661  0.2020 -0.1966
20249W        W36510   1.322  17.230   1.214  0.2705 -0.0488 -0.1553
20250W        W36511   9.487  11.111   0.277 -0.1794 -0.2078 -0.0186
20251W        W36512   8.976  12.327   4.746  0.0626  0.1348  0.1939
20252W        W36513   7.611  10.112  15.124 -0.1960  0.0852  0.1121
20253W        W36514   1.694  17.755   0.456  0.1368  0.2340  0.1367
20254W        W36515  18.397   6.877   0.527 -0.0561  0.1482 -0.2039
20255W        W36516  10.389  17.319   4.508  0.0747 -0.1320  0.0097
20256W        W36517  14.290  14.581   2.855 -0.1665  0.0418  0.0618
20257W        W36518   9.758  17.434  15.085 -0.2817  0.3187 -0.1425
20258W        W36519   8.439  18.133   0.183 -0.0968 -0.3387  0.1331
20259W        W36520  13.137   4.974   2.287  0.0153  0.1965  0.0113
20260W        W36521  12.127   7.179   4.751 -0.1660 -0.1694 -0.0686
20261W        W36522   5.627  15.308   0.997 -0.2961 -0.0793  0.0846
20262W        W36523   6.036   3.125  12.612  0.2650 -0.0900 -0.2463
20263W        W36524  11.892   8.161   3.872 -0.0954 -0.0663  0.0822
20264W        W36525   8.033   3.657  15.174 -0.2291  0.0785  0.0669
20265W        W36526  11.963  16.829  13.674  0.3261  0.3356 -0.1812
20266W        W36527   9.650  10.181   3.417 -0.1680  0.2168  0.3139
20267W        W36528   9.909   0.482  14.843  0.1025  0.1252 -0.1267
20268W        W36529   0.188   3.477   4.685 -0.2419  0.0374  0.2022
20269W        W36530   3.745   7.210   2.024  0.0308  0.0598  0.3660
20270W        W36531   2.325   3.652  16.149 -0.0399 -0.0528  0.0559
20271W        W36532  18.324  14.642  15.776 -0.1064 -0.1383 -0.1353
20272W        W36533   9.558   5.987   4.175  0.0142  0.0513 -0.2388
20273W        W36534  17.177   1.264   1.009  0.1480  0.0342 -0.1079
20274W        W36535   6.499   6.948  12.237 -0.0989 -0.1989  0.0546
20275W        W36536  10.209  11.940  12.482  0.4501  0.1131  0.0395
20276W        W36537  16.170   7.204  15.413  0.3133  0.1859  0.1560
20277W        W36538   9.149   7.881  13.783 -0.2142 -0.1754  0.2163
20278W        W36539  11.989   3.054  14.921 -0.2644 -0.1998  0.0139
20279W        W36540   9.307   8.416  12.867 -0.2684  0.1110  0.1982
20280W        W36541  11.301  13.446   0.972  0.1161  0.3240 -0.2103
20281W        W36542   1.059   1.138   5.496  0.2453 -0.1542  0.0509
20282W        W36543  10.868  14.897   2.924  0.0128  0.0107  0.0130
20283W        W36544  12.378   9.154   1.204 -0.1652  0.1603  0.0464
20284W        W36545   9.258  17.158  15.687 -0.1732  0.0009 -0.0204
20285W        W36546   4.446  12.878   4.449 -0.0104 -0.3033  0.2267
20286W        W36547  16.648  15.421   4.001  0.0915  0.0485  0.0237
20287W        W36548   0.834   6.579   1.613 -0.0509  0.2260 -0.1566
20288W        W36549  11.215   3.520   0.579 -0.0809 -0.0077 -0.1132
20289W        W36550  10.957   2.526  13.707 -0.3284 -0.3173 -0.2587
20290W        W36551   9.826  18.070  14.975  0.0600 -0.0435 -0.0122
20291W        W36552  14.822  15.236   1.295 -0.2044  0.1297 -0.1813
20292W        W36553  10.568   4.160   1.569  0.0665  0.0558 -0.2549
20293W        W36554   0.264   3.611  12.250  0.1842 -0.0442 -0.0581
20294W        W36555   1.866  10.704   5.144  0.1936 -0.2260  0.1533
20295W        W36556   4.585   4.889  14.360 -0.0768  0.0062 -0.1007
20296W        W36557  14.857   9.726  14.711  0.1684 -0.0259 -0.1297
20297W        W36558   9.218   5.221   4.292 -0.0315 -0.2983  0.0358
20298W        W36559   6.573  12.619  14.956  0.1766 -0.1873  0.3112
20299W        W36560   5.192   5.913   4.269 -0.0232  0.0746  0.1475
20300W        W36561   5.602  13.458  13.893 -0.4217  0.1729 -0.0782
20301W        W36562   1.452   2.802   6.093 -0.0745  0.1973 -0.1299
20302W        W36563   4.543  14.197   1.024 -0.3522  0.0986 -0.0862
20303W        W36564  12.809  14.956  11.763  0.2591 -0.0739 -0.3092
20304W        W36565  15.343   1.850   0.718 -0.0052 -0.3405  0.4262
20305W        W36566  15.941   6.500  11.398  0.1299 -0.0157  0.2190
20306W        W36567  18.043  11.406  13.936  0.0495  0.0477  0.0964
20307W        W36568  15.800   4.446   0.132 -0.0005  0.2259 -0.0517
20308W        W36569   8.221   5.312  14.010 -0.0848  0.0403  0.4523
20309W        W36570  15.683   1.390  15.517  0.2088  0.0428 -0.2535
20310W        W36571   9.815  16.391   0.991 -0.2078  0.0741 -0.1151
20311W        W36572   1.034   3.314  15.208  0.4704 -0.0876 -0.1198
20312W        W36573  13.190   0.723   3.602 -0.0776  0.3090 -0.1829
20313W        W36574  18.023  11.022   1.588  0.2375  0.0427 -0.1957
20314W        W36575  10.396  15.845  12.273  0.0165  0.3355  0.1575
20315W        W36576  10.025  16.167   9.770 -0.0410 -0.0326  0.1013
20316W        W36577  17.954   2.201   2.565  0.2442 -0.0253 -0.0824
20317W        W36578   0.920   4.737   4.950  0.2780  0.0612 -0.2336
20318W        W36579  12.998   7.555  13.553 -0.2627  0.0298  0.1107
20319W        W36580   7.110   3.094   5.654  0.2169 -0.0115 -0.0263
20320W        W36581   5.907   7.715  14.502 -0.0674  0.2194  0.0015
20321W        W36582   7.044   6.934   5.083  0.3059  0.1806  0.2107
20322W        W36583   2.517   7.206  11.774 -0.0309 -0.0783 -0.0146
20323W        W36584   6.404   6.454  16.109 -0.1028 -0.1628  0.0219
20324W        W36585   0.046  15.449   1.151 -0.2138 -0.1138 -0.3581
20325W        W36586   2.631   0.392  13.840 -0.0092 -0.0763  0.0323
20326W        W36587   8.410  14.375   0.889 -0.2265  0.0664 -0.0574
20327W        W36588  16.127  14.253  14.880 -0.0871  0.4211  0.2336
20328W        W36589  17.265   5.432  11.060  0.1220 -0.2013  0.1006
20329W        W36590   7.381  15.871   0.933 -0.3599 -0.0725 -0.3740
20330W        W36591  10.968  15.191  15.626 -0.1903  0.0947 -0.2707
20331W        W36592  17.813   1.808  12.556 -0.3271  0.2659 -0.0220
20332W        W36593  12.022  13.556   2.981 -0.2489 -0.0647  0.0380
20333W        W36594  13.160   4.658   3.426 -0.1583 -0.1275 -0.0005
20334W        W36595   8.810  10.202  12.772  0.0366  0.2727 -0.2546
20335W        W36596  10.537   0.700  12.473 -0.0812  0.2298  0.0462
20336W        W36597   1.927   4.797  13.276 -0.2215  0.0747 -0.0212
20337W        W36598   2.482   4.703  12.714 -0.2590  0.1880  0.0805
20338W        W36599   3.627   1.735   3.104  0.0879  0.1709  0.4237
20339W        W36600  10.718   4.444   0.639  0.1917  0.0947 -0.4906
20340W        W36601  16.158  11.283  13.312  0.2325 -0.2159 -0.2549
20341W        W36602   6.743  17.332   4.883 -0.0634  0.0546 -0.1598
20342W        W36603  14.055   1.900  11.193  0.0285  0.0399 -0.0682
20343W        W36604   4.887   8.565   2.523 -0.1993  0.0845  0.0157
20344W        W36605  15.072  11.675   1.044  0.0725 -0.1254  0.2120
20345W        W36606  15.028   3.716  15.936  0.0044  0.0242 -0.1314
20346W        W36607   6.731   3.340   2.870 -0.1492  0.0324 -0.0784
20347W        W36608   4.027  10.609  13.771  0.2102  0.0820 -0.3917
20348W        W36609  15.821  13.470   2.475  0.0718  0.0642 -0.1132
20349W        W36610   8.048   5.821   4.056 -0.1137  0.0901  0.0860
20350W        W36611   8.316   4.311  15.985 -0.0644  0.3673  0.1762
20351W        W36612  16.177  10.148  11.790  0.2635 -0.0299  0.1263
20352W        W36613   9.052  12.908   2.392  0.0774 -0.1459  0.4087
20353W        W36614  11.476  16.712   1.770  0.0361 -0.0279 -0.0884
20354W        W36615  13.243  11.851  13.309  0.1631  0.0811 -0.1869
20355W        W36616   6.203  10.169  13.093  0.0817 -0.1756 -0.1432
20356W        W36617   2.545  12.967   4.210 -0.0352  0.3771  0.1111
20357W        W36618  14.054  14.653   0.332 -0.3471  0.0978  0.1236
20358W        W36619   2.759   8.415  12.288 -0.0106  0.2682 -0.1203
20359W        W36620  17.468   9.642   2.421  0.0038 -0.0996  0.3971
20360W        W36621   9.543   8.891  13.042 -0.2371  0.2947  0.2366
20361W        W36622  13.399  15.646   2.322  0.1247  0.3656  0.0390
20362W        W36623  18.065   1.170  12.305  0.3674  0.0019  0.1337
20363W        W36624  15.054  16.363  15.388  0.1734  0.0892 -0.0872
20364W        W36625  16.521   9.136   4.991  0.1586  0.0452  0.2040
20365W        W36626  16.069   6.491  14.469  0.2148  0.0845 -0.2174
20366W        W36627   5.831  13.657   5.312 -0.0273  0.3369  0.0988
20367W        W36628   7.338   8.295   0.332  0.2300 -0.1732  0.1289
20368W        W36629  17.210   8.473   3.872 -0.1051  0.0876  0.1282
20369W        W36630   1.612   5.346   5.541 -0.1005  0.1034  0.0169
20370W        W36631  12.681   7.580  13.922  0.3975 -0.0736  0.2108
20371W        W36632   6.473   7.015  13.125  0.2565  0.2136  0.4210
20372W        W36633  16.866   3.403  14.242 -0.0818 -0.0356  0.2128
20373W        W36634   5.250  12.931  14.561 -0.0183  0.1059  0.0762
20374W        W36635   9.540   5.527  12.261 -0.1159  0.0242  0.0051
20375W        W36636   4.558  12.499   3.533  0.0467  0.1190  0.0010
20376W        W36637   1.728   7.679  13.347  0.0992 -0.2127  0.0045
20377W        W36638   0.467   8.872  11.833 -0.0573 -0.1579  0.3236
20378W        W36639   9.315  16.399  11.914  0.0576  0.1999 -0.0623
20379W        W36640  18.095   9.023  11.524  0.2113 -0.4083 -0.2511
20380W        W36641  10.357  16.370  13.749 -0.0474 -0.1809  0.0596
20381W        W36642   9.668  14.735  14.208 -0.0372  0.1238 -0.1941
20382W        W36643  11.138   9.362  13.022 -0.4568 -0.1214  0.1135
20383W        W36644  12.159  14.866  15.825  0.0613  0.1876  0.2003
20384W        W36645   5.055  10.872   2.072  0.2717  0.0110 -0.2378
20385W        W36646   0.450  13.685   3.351 -0.0994 -0.2421 -0.1156
20386W        W36647  15.540   0.203   3.036 -0.0478  0.1615  0.2044
20387W        W36648   3.338   0.927  12.090 -0.2155 -0.0526 -0.6660
20388W        W36649   8.468  13.124  11.015  0.2643  0.0306 -0.1315
20389W        W36650  11.036   0.158  12.700  0.2109 -0.1184 -0.0616
20390W        W36651  15.687  14.524  12.679 -0.0235 -0.2122  0.0888
20391W        W36652  15.883  13.674  10.478 -0.1061  0.0855 -0.2318
20392W        W36653  14.817   6.975  13.658  0.1575  0.1537 -0.4167
20393W        W36654   1.438  12.092   4.694 -0.0960  0.2325 -0.0074
20394W        W36655   4.706   6.001   4.435 -0.0754 -0.0848 -0.0221
20395W        W36656  15.753   6.243  10.699  0.0272 -0.2906  0.0568
20396W        W36657   4.470   5.596   2.519  0.1266 -0.1683  0.4163
20397W        W36658   7.358  15.452  14.174 -0.2784 -0.1691  0.0530
20398W        W36659  10.097  16.714   4.238  0.1051 -0.1367 -0.1822
20399W        W36660   6.994  16.549   1.483  0.4166  0.1142  0.0162
20400W        W36661   1.547   1.392  14.980 -0.1457 -0.2832  0.3122
20401W        W36662   2.677  10.278  14.877 -0.1730 -0.3909 -0.2694
20402W        W36663  11.971   3.965   4.784 -0.2250  0.4830  0.0323
20403W        W36664   7.360  16.823  11.593 -0.1880  0.2192 -0.0645
20404W        W36665  13.728  13.301   0.433  0.0994  0.2760  0.0738
20405W        W36666   7.288   0.211   4.381 -0.1547  0.1199  0.1606
20406W        W36667   8.238  14.665  14.438  0.1383  0.0586 -0.0052
20407W        W36668   9.979  10.676  10.384 -0.1416  0.1469  0.2441
20408W        W36669  13.383  10.224   0.069 -0.1691  0.3309  0.1376
20409W        W36670  15.002   9.224   0.847 -0.1359 -0.1613 -0.2790
20410W        W36671  16.675   9.608  13.213 -0.1278 -0.4849  0.0874
20411W        W36672   8.595   0.324   4.128  0.0606 -0.1358  0.3128
20412W        W36673   9.280   2.362  14.862  0.0555 -0.1285  0.3150
20413W        W36674   0.843   9.318  15.896  0.1722  0.0527  0.2539
20414W        W36675  17.030   4.440   3.681  0.0815  0.2994 -0.0647
20415W        W36676   2.267   0.029  14.099 -0.2803  0.2739  0.1664
20416W        W36677   6.166  15.106  12.797  0.0992  0.1120 -0.2387
20417W        W36678   9.092  11.154   3.899  0.0605 -0.0947  0.0765
20418W        W36679  10.095   0.018  14.192  0.0593 -0.0986  0.2376
20419W        W36680  17.483   3.969   5.026  0.3879  0.0288  0.0355
20420W        W36681  11.754  12.516   2.078  0.0555 -0.2095 -0.0252
20421W        W36682  13.376  16.293  10.967 -0.1426 -0.3629 -0.1437
20422W        W36683   7.865  13.875  13.320  0.0823 -0.2243  0.2698
20423W        W36684   3.842   5.517   3.213  0.1568  0.1535 -0.0461
20424W        W36685   0.197  17.187  12.899  0.0353  0.0023 -0.1141
20425W        W36686   0.556   6.636   4.774 -0.4810  0.0952 -0.2291
20426W        W36687  12.220  18.483  12.407 -0.1036  0.2292  0.1140
20427W        W36688  10.918   6.190  11.586 -0.1670  0.1530  0.2557
20428W        W36689   7.883   5.133   1.335 -0.0454 -0.3469 -0.0341
20429W        W36690  15.978  13.769  13.292 -0.1694  0.0689  0.3364
20430W        W36691   3.071   1.622   2.158  0.0774 -0.0343  0.0203
20431W        W36692   1.552  18.155   0.730 -0.1580 -0.1511 -0.1964
20432W        W36693  12.864   2.437   1.775 -0.0228 -0.1929  0.0259
20433W        W36694   3.561   6.550   3.713  0.2835 -0.0225  0.1949
20434W        W36695  11.987   5.111  12.945  0.0480  0.0543  0.1338
20435W        W36696   4.936  15.238  12.036  0.0951 -0.1405 -0.1435
20436W        W36697   1.752   4.897   5.350  0.4741  0.0853  0.1646
20437W        W36698   8.441  11.407   0.496 -0.1352  0.0884 -0.2442
20438W        W36699   6.871   5.023   4.385 -0.1941  0.0916 -0.0389
20439W        W36700   4.118   7.140  14.894 -0.0607  0.0770  0.0058
20440W        W36701  10.627   5.301   6.237 -0.3379  0.2086  0.3802
20441W        W36702  14.054   2.811  14.382 -0.0155  0.1058  0.2083
20442W        W36703  15.427  11.109   1.742 -0.1490 -0.2535 -0.0846
20443W        W36704   0.466   3.856  13.188 -0.1393  0.1984 -0.0525
20444W        W36705  16.640   7.277  15.501  0.0229 -0.0381 -0.1190
20445W        W36706   4.199   4.454   0.009 -0.0460 -0.0538 -0.2530
20446W        W36707   6.068   9.033   2.603  0.4808  0.1360  0.0721
20447W        W36708  10.799  15.816   2.798  0.0320  0.0937  0.1054
20448W        W36709   2.616   9.334   3.293 -0.0305  0.0426 -0.0351
20449W        W36710   0.201  16.810  11.880 -0.1349  0.0371  0.5126
20450W        W36711   6.173   2.688  14.179  0.1060 -0.1124  0.1497
20451W        W36712  14.642   8.163  14.867 -0.0051 -0.2155 -0.0363
20452W        W36713   8.108  12.810  13.803  0.0582  0.1981  0.1826
20453W        W36714  12.027   4.252  12.710 -0.0652  0.0561  0.0889
20454W        W36715   0.449  12.586  13.215 -0.2685  0.1532  0.1867
20455W        W36716   2.091  14.471   3.413 -0.0505 -0.0824  0.1636
20456W        W36717   3.059  14.441   5.672  0.1426 -0.1687 -0.0119
20457W        W36718  12.834  17.394  13.561  0.3223  0.1993  0.1475
20458W        W36719   3.766  18.277  14.201 -0.2191  0.2255 -0.3877
20459W        W36720   3.352  14.975   2.847  0.0700  0.2543  0.1181
20460W        W36721  10.315   4.596   1.568  0.1522 -0.3143 -0.1568
20461W        W36722   4.729   4.210   2.928  0.0650 -0.1849  0.1923
20462W        W36723  10.833  10.989  14.239  0.3282  0.3858 -0.2127
20463W        W36724  16.273   6.135  14.018 -0.1397  0.1976  0.1171
20464W        W36725   5.172   8.501  15.170 -0.2521  0.0968  0.0884
20465W        W36726  11.788   6.158  11.374 -0.2790  0.0329 -0.1602
20466W        W36727  12.532   4.181  14.270  0.0651 -0.2246  0.0469
20467W        W36728   6.091   8.757   1.556  0.2481  0.3461 -0.0111
20468W        W36729   7.680  11.883   3.657 -0.2072  0.1965  0.2175
20469W        W36730  12.605  13.246   4.668 -0.2590 -0.2131 -0.0219
20470W        W36731  16.953  12.669  12.901 -0.0886  0.3788  0.0610
20471W        W36732   4.609  16.441  14.134  0.0578  0.0462 -0.0445
20472W        W36733   3.781  14.313  14.052  0.2722  0.3966  0.1445
20473W        W36734  16.713  13.538   5.147 -0.0642  0.0315  0.0319
20474W        W36735   1.689  12.087   4.009  0.0618  0.2056 -0.1552
20475W        W36736  13.300  11.356   2.536  0.1548  0.3728  0.0424
20476W        W36737   2.254   5.406  11.814  0.0571  0.2485 -0.1431
20477W        W36738  15.556   4.404   3.995  0.1421 -0.2354  0.1499
20478W        W36739  16.975  18.128  14.268  0.1000 -0.1500 -0.3028
20479W        W36740   8.965  15.531   2.936 -0.1874 -0.1580 -0.0983
20480W        W36741  17.326  14.170   3.259  0.2963 -0.5592  0.1666
20481W        W36742  15.203   3.562   1.454 -0.2118  0.0809  0.1491
20482W        W36743   8.773   0.647  11.726  0.0333  0.1481 -0.0949
20483W        W36744  12.089   0.131  11.501 -0.2749  0.0175 -0.0645
20484W        W36745  11.083   4.759  14.596 -0.2684  0.2180 -0.2588
20485W        W36746   8.077   2.611   2.883  0.1288 -0.3239 -0.1142
20486W        W36747  12.795   6.535   2.477 -0.3363 -0.3792 -0.1730
20487W        W36748   7.579  16.096  14.029 -0.2932  0.0761 -0.1417
20488W        W36749  18.105  14.951   2.769 -0.3054  0.1604  0.2489
20489W        W36750  10.615  16.394  12.524  0.2381  0.2827 -0.1891
20490W        W36751   0.195  10.422  14.803 -0.2540  0.0247 -0.2206
20491W        W36752   1.740   8.482  11.489  0.1557  0.1126 -0.1012
20492W        W36753  15.978  12.102  15.409  0.0327  0.0223 -0.2373
20493W        W36754   7.337   5.406   1.283  0.1011 -0.0332 -0.1706
20494W        W36755   6.808   3.464   2.364  0.2016  0.7607  0.0041
20495W        W36756   9.121  12.779  11.517  0.1695  0.3230  0.0072
20496W        W36757  12.891   1.196   5.951  0.0686 -0.3212  0.1508
20497W        W36758   1.703  16.675   1.936 -0.3224 -0.2213  0.1041
20498W        W36759   4.240   9.198   5.669  0.3705 -0.0072  0.0516
20499W        W36760  17.094   0.279  10.694  0.0592 -0.4517  0.0249
20500W        W36761   4.549  13.749   4.897  0.1625 -0.0710 -0.1595
20501W        W36762  13.357   9.401   0.825  0.1232 -0.2365  0.1025
20502W        W36763   5.558  17.664  13.568 -0.1865  0.0157  0.1079
20503W        W36764   3.513   8.204   4.554 -0.2106  0.2526 -0.1513
20504W        W36765   2.206   0.277   3.416 -0.2412 -0.2428  0.1613
20505W        W36766  12.232   9.565  11.403  0.0773  0.0319  0.1083
20506W        W36767   1.651  12.802   4.622  0.0853 -0.1657 -0.0497
20507W        W36768   3.912  10.223  14.195 -0.2772  0.0164  0.1547
20508W        W36769  14.294   7.600  13.604  0.0820  0.2315  0.0736
20509W        W36770  16.534  10.487   5.894  0.3539  0.1835 -0.2891
20510W        W36771  10.110   5.102   0.336  0.3184 -0.0008  0.0160
20511W        W36772   5.676  10.596   0.746  0.0938  0.2726  0.0143
20512W        W36773   8.059   3.065  13.107 -0.0553  0.0665  0.2537
20513W        W36774   1.092  10.284  11.368 -0.3239  0.2872 -0.1185
20514W        W36775  11.800  18.009   3.659 -0.1256 -0.1120 -0.0249
20515W        W36776  17.201   4.401  11.088  0.2795 -0.2748  0.0937
20516W        W36777   3.684   6.784   2.834 -0.0731  0.1377 -0.1871
20517W        W36778  15.331   0.266  15.812 -0.0820  0.0636  0.0413
20518W        W36779   3.760  11.538  12.572  0.0997  0.0350 -0.2164
20519W        W36780   5.135  17.712  15.071 -0.3048 -0.2748 -0.4184
20520W        W36781  11.961  15.014   2.231  0.0438 -0.1963  0.4622
20521W        W36782   1.526   3.635  13.843 -0.1991  0.0388 -0.0739
20522W        W36783   8.553  10.982  13.229 -0.0969  0.0812 -0.3182
20523W        W36784  18.457   6.284   2.800 -0.1022 -0.5425 -0.0789
20524W        W36785   2.212   4.213  15.510 -0.1910 -0.3476  0.0181
20525W        W36786  18.210  14.251  15.413 -0.0729  0.1937 -0.2641
20526W        W36787   0.746   7.754  14.349 -0.0675 -0.3478 -0.1802
20527W        W36788  13.231   9.394   5.833 -0.1833  0.0357 -0.2226
20528W        W36789   0.820   9.929   0.551 -0.1793  0.2978  0.0371
20529W        W36790   8.458  13.757   2.185 -0.0244 -0.2413  0.0274
20530W        W36791  15.863   6.196  11.765  0.0406 -0.1403  0.2138
20531W        W36792   1.636  12.971  14.079  0.1258  0.0862  0.0228
20532W        W36793   9.763   2.739   5.198 -0.4163  0.1368 -0.0570
20533W        W36794   9.892   1.326  14.186 -0.1345 -0.0506 -0.0319
20534W        W36795  15.764   9.844   5.530 -0.0791  0.2424 -0.0787
20535W        W36796  14.176   0.233   4.497 -0.2470 -0.0257 -0.2750
20536W        W36797   4.085  10.681   4.274 -0.1168  0.0894  0.0060
20537W        W36798  16.156  18.176   5.254  0.1044 -0.0484 -0.1793
20538W        W36799   2.277  12.146   3.114  0.2768  0.0492 -0.1441
20539W        W36800   9.919   0.949  15.119 -0.2664 -0.1909  0.3234
20540W        W36801   0.576   3.134   0.844 -0.1472  0.4659  0.0623
20541W        W36802   8.628  11.510   1.995 -0.2522  0.0668  0.0873
20542W        W36803   9.768  12.813   5.863  0.0471  0.1230 -0.1204
20543W        W36804   3.997   8.903  14.444 -0.1182  0.1306  0.0627
20544W        W36805   7.432   1.379   2.889  0.0933  0.2424  0.2229
20545W        W36806   0.137   4.727  14.503 -0.3940  0.2556 -0.1048
20546W        W36807  16.872  16.293   1.297  0.4379  0.0265  0.2089
20547W        W36808   5.361   2.916   2.927  0.1694 -0.1574  0.0647
20548W        W36809  15.885  15.778  12.622 -0.1433  0.4350 -0.0955
20549W        W36810   0.514   1.952   3.093  0.1395 -0.1947  0.4192
20550W        W36811   7.049  10.514   1.088  0.0805  0.1130 -0.0197
20551W        W36812   3.950   3.740   3.032  0.1152 -0.0834  0.1219
20552W        W36813   4.865  11.766   1.078  0.1462  0.1036  0.1544
20553W        W36814   1.843  13.024  13.526 -0.2435 -0.0239  0.0427
20554W        W36815   3.656   9.961  12.961  0.1074 -0.2785 -0.0947
20555W        W36816  12.332  10.506   0.272  0.0842  0.0784 -0.2426
20556W        W36817   8.449  14.472   5.072  0.1060 -0.0766 -0.1338
20557W        W36818   9.319   4.435   0.649  0.1211  0.2198  0.2751
20558W        W36819   9.668   5.324  14.463 -0.1841  0.0307 -0.5678
20559W        W36820  18.291   3.840  14.518  0.1694 -0.1462  0.1405
20560W        W36821  16.502  14.918  12.874  0.3521 -0.4270 -0.1714
20561W        W36822  16.922   1.728   1.777 -0.3125  0.3462 -0.0005
20562W        W36823   7.435  16.320  15.789  0.2155  0.1896 -0.2120
20563W        W36824  15.477  16.645  12.002 -0.1888  0.1189  0.1202
20564W        W36825   8.020  18.136  11.063 -0.0164  0.0068  0.0691
20565W        W36826   5.984   8.344   1.228 -0.1687  0.1596  0.1326
20566W        W36827   8.320  12.440  11.978 -0.0969 -0.3278  0.1758
20567W        W36828  16.490  11.683   0.040  0.0440  0.1221  0.0566
20568W        W36829  10.984  18.067  15.435  0.0042  0.0343 -0.0716
20569W        W36830   5.113  13.949   1.697  0.0687 -0.0588 -0.2208
20570W        W36831   2.743  15.394  14.587 -0.2158 -0.3092 -0.0198
20571W        W36832  10.189  17.760  14.135  0.1007  0.2009 -0.1417
20572W        W36833   2.850   2.546   3.587  0.2149  0.0109 -0.1911
20573W        W36834   3.330   1.895   2.742 -0.2828 -0.0690 -0.0194
20574W        W36835  15.106  12.849  11.333  0.4407  0.1518  0.1122
20575W        W36836  10.298  18.329  11.148 -0.1086 -0.1097 -0.1505
20576W        W36837  16.646   4.767   3.526 -0.2324  0.0290  0.0431
20577W        W36838   7.484   9.061   0.018  0.0986  0.0164  0.0123
20578W        W36839  14.575   6.484  10.884  0.1067 -0.0366 -0.2077
20579W        W36840   9.251  13.508  13.419 -0.2030  0.1713  0.1552
20580W        W36841  14.056   6.680  11.316 -0.0832 -0.2381  0.0680
20581W        W36842  16.101  15.658   2.615  0.1626  0.2321 -0.1812
20582W        W36843  15.000   4.425  13.806 -0.1668  0.0951 -0.2184
20583W        W36844   0.283  14.169   3.114  0.0165 -0.0340 -0.1802
20584W        W36845   3.336  12.790   3.678  0.2780  0.0789  0.3376
20585W        W36846  10.233  12.312  14.128 -0.3491  0.2686  0.6486
20586W        W36847   0.112   6.721  12.132  0.0454 -0.0531  0.1876
20587W        W36848   4.716   7.070   5.514  0.0243 -0.0971  0.3873
20588W        W36849   7.890  10.681  12.771 -0.0491 -0.0093 -0.0728
20589W        W36850  11.565  13.903  15.861  0.0123  0.1867 -0.3191
20590W        W36851   8.537   8.820  11.414  0.0501 -0.2737 -0.3296
20591W        W36852  10.657  12.716  11.110  0.0160  0.1703  0.1671
20592W        W36853   7.277  10.530   3.206  0.2189  0.0303  0.1452
20593W        W36854   9.200  13.530   6.214  0.2649  0.4017 -0.1673
20594W        W36855   2.298   7.925  11.614 -0.1933 -0.2013 -0.1241
20595W        W36856   0.163   5.850  15.846 -0.0008  0.1244  0.2257
20596W        W36857  10.215  18.442   0.970 -0.0753 -0.0201 -0.2917
20597W        W36858  10.825  16.992   0.838  0.2348  0.1414 -0.1764
20598W        W36859   9.372   1.727   2.439  0.2096  0.3202 -0.0867
20599W        W36860   4.642  16.969   3.999  0.0081 -0.0177 -0.0870
20600W        W36861  11.873   4.892   6.232 -0.0570 -0.0283  0.4661
20601W        W36862   0.807   6.858   3.895 -0.0614  0.1192  0.0447
20602W        W36863   4.123  13.496   5.140 -0.3734  0.1521  0.1327
20603W        W36864  12.433  10.715  11.449  0.0814 -0.2128  0.4228
20604W        W36865   0.427  11.555   0.277  0.1690  0.2168  0.2065
20605W        W36866   3.093  12.442  11.538  0.2704  0.0274 -0.2319
20606W        W36867   6.859  12.578   2.883  0.1986 -0.1468 -0.0305
20607W        W36868   5.737   8.171  14.381  0.1085  0.0118  0.2635
20608W        W36869  16.848  14.503  14.480 -0.3805  0.2972 -0.4236
20609W        W36870  12.019   7.020   4.297 -0.1078  0.2567  0.1561
20610W        W36871   1.813   5.040   0.052  0.1599 -0.0163 -0.1054
20611W        W36872  15.520   6.488  13.034 -0.5175 -0.2430 -0.3278
20612W        W36873   9.576  11.127  12.614  0.2013  0.2885 -0.1549
20613W        W36874  11.479  12.900  11.876 -0.4507 -0.0317 -0.2045
20614W        W36875   9.836  13.533   1.598  0.1256 -0.0076  0.0591
20615W        W36876   9.717   1.568  15.270  0.2033 -0.0069 -0.0638
20616W        W36877  13.672   8.726   2.493  0.1977 -0.1056  0.0921
20617W        W36878  17.448  12.712   3.771  0.0059  0.2406  0.0329
20618W        W36879   8.442  16.786  12.443 -0.0792 -0.2489 -0.2286
20619W        W36880   2.063  10.811  15.142 -0.1736  0.0819  0.1054
20620W        W36881  10.369  17.495   1.519 -0.0619 -0.3179  0.1991
20621W        W36882  15.850   4.358   1.289 -0.2793 -0.2608 -0.3229
20622W        W36883  13.336  14.037   3.935 -0.4002 -0.0969 -0.0511
20623W        W36884   4.876   1.908  15.269 -0.0942 -0.2069  0.2632
20624W        W36885   5.671  17.309  14.390 -0.2779  0.0513 -0.3139
20625W        W36886   7.688   8.948   1.647 -0.0632 -0.0230  0.0301
20626W        W36887  18.286   2.206   5.004  0.0423 -0.1515  0.1562
20627W        W36888  13.991   6.245  11.041  0.0850 -0.2809 -0.2729
20628W        W36889  16.860   2.024  14.860 -0.1795  0.1117  0.0874
20629W        W36890  16.495   3.420  13.391 -0.4067  0.1083  0.1384
20630W        W36891   6.263   5.738   0.041  0.3117 -0.0224 -0.1230
20631W        W36892   1.463  12.801   3.509  0.0803 -0.1393 -0.0487
20632W        W36893  18.133   7.874   0.392 -0.0031 -0.3563  0.1778
20633W        W36894  13.522  16.491  14.562 -0.2838  0.0991 -0.0675
20634W        W36895  16.940  13.993   1.632 -0.1217  0.1870  0.4257
20635W        W36896   9.654   5.831   0.163 -0.3567 -0.2221 -0.3643
20636W        W36897  17.161  14.269   4.297 -0.1054 -0.0693 -0.4356
20637W        W36898  13.734  12.685  11.749  0.1610  0.0318  0.0589
20638W        W36899   0.143  18.328  11.740 -0.0650 -0.1935 -0.3371
20639W        W36900   1.018   3.154   1.662  0.1320  0.1577 -0.2267
20640W        W36901   3.614  10.986  15.422 -0.0356 -0.0897 -0.0562
20641W        W36902   2.929   6.502   1.768  0.0956 -0.3956 -0.0040
20642W        W36903  14.972  15.107  12.694  0.1513 -0.0997 -0.0493
20643W        W36904  15.078  17.376  12.440 -0.3270  0.0298  0.0397
20644W        W36905   8.596   3.443  16.055 -0.1130 -0.1527 -0.2877
20645W        W36906  11.454   7.357   3.403 -0.0657  0.0669 -0.1899
20646W        W36907  11.462  16.016  16.166 -0.2848 -0.0944 -0.1297
20647W        W36908   4.726   5.932  14.412  0.0080 -0.1365 -0.3715
20648W        W36909  17.722   2.960   3.891 -0.2409 -0.1415 -0.0098
20649W        W36910  16.118   6.650  13.973  0.2192  0.0936 -0.3146
20650W        W36911  10.384  16.528   1.792 -0.2542 -0.0399 -0.1355
20651W        W36912   4.784  18.295   0.117 -0.3692  0.2242  0.3095
20652W        W36913   9.502  17.121   4.840  0.4408  0.1900 -0.0434
20653W        W36914   8.134  11.476   0.057  0.1240 -0.2357 -0.0687
20654W        W36915   6.990   6.821   0.594 -0.0912 -0.1728  0.0764
20655W        W36916  10.734   8.552  11.384 -0.1345 -0.1325 -0.2257
20656W        W36917  14.391   7.318  11.439  0.2143  0.1606  0.0046
20657W        W36918  13.486   7.502  15.257 -0.3754  0.1384 -0.0179
20658W        W36919  11.918   7.699  15.053  0.0541  0.1285  0.1650
20659W        W36920  12.118  11.150  11.573  0.1043 -0.0427  0.3695
20660W        W36921  11.264  16.460  11.670  0.1719 -0.0416 -0.0306
20661W        W36922  18.473  10.831   1.338  0.1097  0.1982  0.1683
20662W        W36923  10.353  17.942   0.866 -0.0243  0.1233 -0.0116
20663W        W36924  12.920   7.789  11.385  0.1043  0.2239 -0.1230
20664W        W36925   1.374   5.280   3.730 -0.1318 -0.2486 -0.0950
20665W        W36926   7.450  14.070  12.404  0.0932 -0.0031  0.0568
20666W        W36927  12.576  11.089  13.781  0.0528  0.3575  0.1888
20667W        W36928  14.499   5.791  16.067 -0.4090  0.1076 -0.2683
20668W        W36929  12.102  10.437  13.237  0.0908  0.0435 -0.0404
20669W        W36930  11.499  12.259   1.447 -0.1221 -0.1310 -0.2811
20670W        W36931  17.376   9.919   1.179 -0.0614  0.2471 -0.1140
20671W        W36932  12.598  17.240  13.099  0.2107  0.0450  0.1923
20672W        W36933  14.453  16.748  16.178 -0.0879  0.1074 -0.3978
20673W        W36934  16.620  14.292  13.034 -0.0743 -0.0763 -0.0748
20674W        W36935   5.857  17.010   4.564 -0.0500 -0.0276  0.4553
20675W        W36936  16.822  11.132  11.091  0.2397  0.2165  0.2776
20676W        W36937   5.990  14.033  10.341 -0.1667 -0.0833 -0.0218
20677W        W36938  17.979   6.906  12.767  0.2886  0.2378  0.4460
20678W        W36939   6.014   1.443  15.792  0.2890 -0.0142 -0.1619
20679W        W36940  11.251  14.350   4.590 -0.1609  0.0124 -0.0045
20680W        W36941   2.308  12.507  10.879 -0.1286  0.2437 -0.0778
20681W        W36942  15.321   7.693   4.458  0.0134 -0.0730  0.0820
20682W        W36943   8.346  15.619  12.564  0.0108  0.1671 -0.0308
20683W        W36944   8.988  15.913  15.617  0.1624  0.0711 -0.3850
20684W        W36945  11.210   3.300   5.599  0.5417 -0.0365 -0.1104
20685W        W36946   5.649   8.677  11.140  0.1160 -0.0955  0.1224
20686W        W36947   4.905   0.553   3.506  0.0392 -0.1611  0.1798
20687W        W36948  17.879   7.414   4.999 -0.1692  0.5932 -0.0955
20688W        W36949   2.799  15.368   1.412 -0.1299  0.0043  0.0554
20689W        W36950  18.397   1.553  11.204  0.0785  0.0421  0.3550
20690W        W36951   1.570   5.977   3.257  0.0176  0.2903 -0.0565
20691W        W36952   1.112  10.245   3.891  0.1340  0.1664  0.1246
20692W        W36953  13.132   6.401   0.385  0.0625  0.2519 -0.1187
20693W        W36954   1.667   4.254  13.469 -0.0347 -0.0874  0.0554
20694W        W36955  13.909   7.402   5.897 -0.2024  0.1238 -0.1267
20695W        W36956   7.965   8.327  15.156 -0.2179  0.1349 -0.0546
20696W        W36957   7.420  16.913  14.913 -0.1026 -0.0295 -0.1887
20697W        W36958  16.516   1.651  12.356 -0.1085 -0.1420  0.1657
20698W        W36959   5.318   0.315  11.847 -0.0896 -0.4099 -0.0098
20699W        W36960  13.234   7.266  12.691  0.1575 -0.0502  0.2266
20700W        W36961   3.164   5.394   0.321  0.0847 -0.0120 -0.2833
20701W        W36962   1.641   6.990   0.187 -0.1939 -0.3141 -0.1351
20702W        W36963   0.724  10.005   3.607  0.1394 -0.0989 -0.2064
20703W        W36964   6.179  15.861   1.893  0.1809  0.1417 -0.0238
20704W        W36965   1.190  16.377   2.101 -0.1673 -0.1685 -0.1957
20705W        W36966  12.281  14.775   1.968 -0.1833 -0.2881 -0.0997
20706W        W36967  16.965  16.470  12.212 -0.1647  0.0370  0.0830
20707W        W36968   5.716   3.724  12.239  0.1158  0.1825  0.1651
20708W        W36969  13.202  12.678  13.146  0.1619  0.1966  0.1084
20709W        W36970  12.615   4.358  15.808 -0.0866 -0.0707 -0.1505
20710W        W36971  14.520   1.603  14.207  0.2011  0.3238  0.3652
20711W        W36972  11.908  16.197  15.975  0.1684  0.3850  0.2453
20712W        W36973   9.620   7.991  14.656 -0.1136 -0.0671 -0.3055
20713W        W36974   7.300   2.781  15.398 -0.2323  0.0074 -0.0514
20714W        W36975  14.412   3.665  14.176  0.1847  0.0468  0.1260
20715W        W36976   6.185   3.503  13.478 -0.0486  0.0426 -0.1420
20716W        W36977   1.191   5.720   4.121  0.4903  0.1170  0.1969
20717W        W36978   5.405   7.627   0.254 -0.3142 -0.0652  0.0938
20718W        W36979   2.962   0.057  13.714 -0.1109  0.0669  0.0498
20719W        W36980   5.425  10.504  14.248  0.0196  0.2454  0.3967
20720W        W36981  14.690  18.176  14.926  0.3881 -0.0337  0.2212
20721W        W36982   1.220   6.831  12.365  0.1600 -0.0418  0.0549
20722W        W36983   6.314   6.556   3.645  0.1966  0.1732  0.1448
20723W        W36984   9.672  18.146  12.128  0.1116 -0.1278  0.1758
20724W        W36985   5.361   5.978   2.645  0.2246 -0.0067  0.3132
20725W        W36986   1.981   4.572  15.322 -0.0741  0.0461 -0.0369
20726W        W36987   3.497  13.592  13.463  0.0487  0.0108 -0.2834
20727W        W36988   5.041   5.552  14.143  0.0365  0.0101  0.1037
20728W        W36989   8.348   9.935  13.515 -0.1136  0.0232  0.0873
20729W        W36990  11.857   1.081   1.880  0.0375  0.1488  0.1830
20730W        W36991  16.043  13.510   3.348 -0.1022  0.0609  0.1739
20731W        W36992  15.119  12.689   4.181  0.2868  0.1618 -0.0497
20732W        W36993   9.372   9.265   3.812 -0.0098  0.0258 -0.2269
20733W        W36994  16.535  10.607  13.671 -0.1375 -0.1371 -0.0399
20734W        W36995  10.283  14.794  14.627 -0.1089 -0.3139 -0.4054
20735W        W36996   2.100   6.373  12.604 -0.2391 -0.2164 -0.2759
20736W        W36997  16.848  14.334  15.062 -0.2260 -0.2190  0.1369
20737W        W36998   9.164   7.392   4.329  0.0489  0.0469 -0.0565
20738W        W36999   6.238   5.019   2.082  0.2071  0.0616 -0.0894
20739W        W37000  12.022   0.805  10.904 -0.1222  0.1967 -0.5492
20740W        W37001  10.977   8.760  13.047 -0.1086  0.0670 -0.3380
20741W        W37002   0.666   2.938   1.282  0.1302  0.3420 -0.2283
20742W        W37003   5.146  18.282  12.127 -0.2263  0.2942 -0.0341
20743W        W37004   5.936  11.353   2.686 -0.1498 -0.0688  0.0800
20744W        W37005   8.369  12.621  13.358 -0.0368  0.3213  0.1157
20745W        W37006   6.293  10.481  14.027 -0.1133 -0.1662 -0.0965
20746W        W37007  12.819   0.313   4.683 -0.0242 -0.0507 -0.0508
20747W        W37008   1.829  15.416   1.347  0.0074 -0.0770  0.0424
20748W        W37009  15.419  13.570   4.642 -0.1641  0.2400 -0.1427
20749W        W37010  16.431   8.191  13.146  0.0641  0.3860 -0.1850
20750W        W37011  10.618   7.722   4.280 -0.1024 -0.1237 -0.1289
20751W        W37012  12.330   4.364  15.356 -0.0252 -0.1692 -0.0988
20752W        W37013   7.187   6.136   0.191  0.1424 -0.1425  0.2244
20753W        W37014  17.347  17.617  13.127  0.0267 -0.1261 -0.0503
20754W        W37015   5.241   0.420  16.053 -0.1221 -0.0797 -0.2034
20755W        W37016   1.956   5.855   2.509  0.4182  0.2978 -0.4234
20756W        W37017  18.447   3.436   5.144  0.0217 -0.3337 -0.4200
20757W        W37018   0.134  10.751  15.195  0.0677 -0.0689  0.4021
20758W        W37019   2.541  15.576  12.053 -0.1354 -0.0647  0.1219
20759W        W37020   5.728  13.277   1.685 -0.1413 -0.2370 -0.0837
20760W        W37021   2.346  10.778   4.214  0.1186  0.0711  0.0558
20761W        W37022   2.173  11.220  11.441  0.1698  0.1627 -0.0253
20762W        W37023  10.356   4.472  13.024  0.0730  0.0146  0.1623
20763W        W37024   2.481   0.181   1.024 -0.1985  0.2970  0.1412
20764W        W37025   7.104   8.164  14.883  0.1446  0.0683 -0.1646
20765W        W37026   6.335   2.351   0.359  0.3554 -0.2453 -0.3065
20766W        W37027  18.312  10.377   4.185  0.1372  0.0414 -0.2709
20767W        W37028  13.425  15.524  15.766  0.0475 -0.1894  0.2867
20768W        W37029  13.708   0.348   2.403  0.3537 -0.1392  0.0710
20769W        W37030   4.169   6.507  15.819 -0.2607 -0.0050 -0.2513
20770W        W37031   7.755   8.446   2.516  0.0874  0.1769 -0.1133
20771W        W37032   6.195  12.246  15.744  0.1066 -0.1329  0.1082
20772W        W37033  12.697  14.507  12.719 -0.2422  0.0959  0.2226
20773W        W37034   6.849   9.138   6.187 -0.0445 -0.1393  0.0125
20774W        W37035   3.869  18.139  16.063  0.1412 -0.0302  0.1844
20775W        W37036   8.408  13.316  11.731 -0.0095 -0.3200 -0.2025
20776W        W37037   6.073   3.224   3.771 -0.2454 -0.0408  0.2662
20777W        W37038   8.595   7.720   2.105  0.0088  0.0033 -0.0149
20778W        W37039   6.449  12.284   2.756  0.0331  0.2876 -0.0174
20779W        W37040   4.891   6.031  11.972  0.0132  0.3404 -0.1634
20780W        W37041  16.547  11.248  14.495  0.0636  0.1518  0.1845
20781W        W37042   2.234   1.025   4.882 -0.2491 -0.1061  0.1653
20782W        W37043   1.788   4.252  11.384  0.3332  0.0926  0.1233
20783W        W37044  12.918   4.315  14.564 -0.0922 -0.0194  0.0503
20784W        W37045  14.257   7.637   4.690 -0.2375 -0.0905 -0.1992
20785W        W37046  12.318  11.342   3.180 -0.0243  0.1409  0.3206
20786W        W37047  10.044   5.994   3.033 -0.2116 -0.0947  0.2780
20787W        W37048  15.114  14.167   5.156  0.2502  0.1356 -0.1676
20788W        W37049   6.805  11.434  11.611  0.1821 -0.2421 -0.2048
20789W        W37050   1.080   7.049   3.490  0.0788 -0.0507 -0.1220
20790W        W37051  10.390  14.910   4.933  0.2236  0.0306 -0.2382
20791W        W37052   0.549   0.711  13.006  0.2472  0.0347  0.1664
20792W        W37053   3.386   5.441   2.952 -0.0054  0.0252  0.0789
20793W        W37054  14.991   0.393  11.135 -0.2335  0.0366  0.0687
20794W        W37055  11.415  12.164   2.439  0.0390  0.1141  0.1842
20795W        W37056   9.139   4.476  14.424 -0.1334  0.0767  0.1037
20796W        W37057   3.769  17.283   1.525  0.2808 -0.2639 -0.0255
20797W        W37058   2.662  10.634  14.396  0.0896  0.0285  0.0441
20798W        W37059  15.817   6.277  15.436  0.2305  0.0409 -0.0258
20799W        W37060   4.012   4.198  14.774 -0.0642 -0.0126  0.1912
20800W        W37061   2.574   3.786  13.175  0.2083 -0.2102  0.0188
20801W        W37062   2.828  17.917   1.976  0.1676  0.2280 -0.0684
20802W        W37063   1.389  11.956   5.295  0.3435 -0.0190 -0.3124
20803W        W37064   7.625  13.563  13.673 -0.1608 -0.0423 -0.1849
20804W        W37065   4.709   4.561  13.044  0.0384  0.0230 -0.1311
20805W        W37066   8.669   8.635   3.725 -0.0626 -0.3421  0.0570
20806W        W37067  15.551  15.697  15.810  0.2121 -0.2896 -0.0238
20807W        W37068  15.327   5.237   0.299  0.3037  0.0098  0.0462
20808W        W37069  14.446   8.234  11.138 -0.2528  0.0493  0.1351
20809W        W37070   8.756  12.774   4.481 -0.2246  0.2622  0.0420
20810W        W37071   3.993   6.540  11.569 -0.3998 -0.0112 -0.2737
20811W        W37072  15.669  16.591  13.794 -0.0328  0.0421  0.3165
20812W        W37073   9.684   0.426  12.671  0.0892 -0.1095 -0.0437
20813W        W37074  12.430  12.241  16.157 -0.2933 -0.0951  0.0496
20814W        W37075   6.463   7.509  14.235 -0.0298  0.0455 -0.1770
20815W        W37076   2.531   2.589  15.517  0.0079  0.1988 -0.1187
20816W        W37077  16.260   7.046   1.519 -0.2495  0.1582 -0.3557
20817W        W37078  16.280  12.892  13.543 -0.3595 -0.0930 -0.1968
20818W        W37079   1.367  16.276   3.427  0.1129 -0.3873 -0.1233
20819W        W37080  10.771  16.194   5.083 -0.1462  0.3556  0.3099
20820W        W37081  11.716  11.915   5.300  0.1996  0.1788 -0.0671
20821W        W37082  12.142   1.375  14.220  0.2362 -0.0268 -0.0231
20822W        W37083  13.019  16.782   4.759 -0.0447 -0.2905 -0.0712
20823W        W37084   2.054   2.887  13.162 -0.0504  0.3749 -0.0121
20824W        W37085   5.059  13.242  13.724 -0.0114 -0.0425  0.0511
20825W        W37086   0.723  12.277  14.481  0.0020 -0.2830  0.2206
20826W        W37087   0.054   1.713   3.343 -0.1752  0.0748 -0.0101
20827W        W37088   6.155  11.512  14.501  0.0645  0.1729  0.1675
20828W        W37089   2.000   9.230   1.386 -0.3382  0.0096  0.0629
20829W        W37090   8.656  14.184   0.013 -0.0675  0.1818 -0.2353
20830W        W37091  12.868   5.210   0.893  0.0435 -0.0922  0.0935
20831W        W37092   4.840   0.808   1.658  0.3151 -0.1136  0.0898
20832W        W37093   5.247   7.295  15.979 -0.0959  0.1669  0.1749
20833W        W37094  11.675   0.899   2.334 -0.2942  0.1312  0.0084
20834W        W37095  15.944  11.640   1.714  0.1875 -0.1605  0.0949
20835W        W37096   6.110   3.417   1.203 -0.0375  0.0824  0.0698
20836W        W37097  15.415  13.348  12.574  0.1513 -0.2124 -0.1199
20837W        W37098   8.057   6.634  14.452 -0.1917  0.2941  0.0918
20838W        W37099   3.256  10.672   3.722  0.2468 -0.1587  0.0267
20839W        W37100   4.285  17.349  15.522  0.2463 -0.2668 -0.0383
20840W        W37101   6.123   1.426   2.656  0.1947 -0.1712  0.0097
20841W        W37102  15.257   9.357  12.893  0.0140  0.1257 -0.0327
20842W        W37103  10.079   8.352   4.667  0.0436  0.0779 -0.0895
20843W        W37104   6.135  16.003  13.876 -0.0418 -0.0225  0.4147
20844W        W37105  12.006  17.059   3.888 -0.1144 -0.1723  0.3575
20845W        W37106   2.291   0.921   2.454  0.0300  0.1259  0.2835
20846W        W37107  13.336  16.120  14.836 -0.1929  0.1188  0.1646
20847W        W37108   0.274   8.483  12.062 -0.1400  0.1459  0.2325
20848W        W37109  16.935   6.503   2.031  0.3601 -0.0458 -0.0179
20849W        W37110   4.557   9.599  13.927 -0.2830 -0.0167 -0.0432
20850W        W37111  10.536  15.338   0.140 -0.1374 -0.0218 -0.1888
20851W        W37112   8.443  17.687  12.189 -0.1914 -0.0484 -0.2025
20852W        W37113   2.822  14.744   2.118  0.0221 -0.0494  0.0091
20853W        W37114   1.613   9.850   2.135 -0.2221  0.2249 -0.1801
20854W        W37115   9.467   4.758   4.884  0.0183  0.2252  0.1755
20855W        W37116   1.044   0.776   3.329 -0.3904  0.0204  0.3592
20856W        W37117   7.412   6.634   0.509  0.1521  0.0483 -0.1483
20857W        W37118   5.907   2.656  12.393 -0.0741 -0.0114  0.1718
20858W        W37119  13.710   3.277   4.033 -0.1538 -0.0800 -0.0597
20859W        W37120  11.520   2.161   3.300  0.1151  0.1361 -0.2921
20860W        W37121  16.669  15.983  14.616  0.2327  0.0353 -0.0517
20861W        W37122   2.757   5.719   5.984  0.2696  0.1732  0.2387
20862W        W37123  12.242   7.656  13.062 -0.0715  0.0920  0.0070
20863W        W37124   9.950   8.247   3.057 -0.3103 -0.1029 -0.1550
20864W        W37125  15.509   9.570   5.206 -0.1717  0.2470 -0.0072
20865W        W37126  10.487   4.925   2.252  0.0840  0.1204  0.3806
20866W        W37127   1.036  14.966  11.693 -0.0051 -0.2491  0.0252
20867W        W37128  10.735   2.598  13.232 -0.0893  0.1217  0.0601
20868W        W37129  17.787   4.406  15.327  0.1273 -0.0245  0.0062
20869W        W37130   5.936   6.568   2.301  0.1572  0.1216 -0.0386
20870W        W37131  17.765   5.031  11.979  0.0405  0.1278 -0.1181
20871W        W37132  17.612   3.094  14.686  0.0385  0.0743 -0.3749
20872W        W37133   0.046   1.724   3.874 -0.0063  0.1621 -0.0587
20873W        W37134  16.647  17.962  11.672  0.0860  0.2802 -0.0381
20874W        W37135   0.576  15.673   2.168  0.0232 -0.1163  0.0561
20875W        W37136  10.383  12.290   6.267 -0.1344  0.0881 -0.1714
20876W        W37137   1.762   8.185  15.638  0.0423 -0.0790  0.0832
20877W        W37138   3.607   0.296   6.360 -0.1424 -0.3658 -0.2848
20878W        W37139   0.792  11.908   2.550 -0.1014  0.0480 -0.0564
20879W        W37140  13.185   7.956  15.078 -0.3119  0.0997 -0.0298
20880W        W37141  15.744   0.793   1.981  0.0887  0.0236 -0.0390
20881W        W37142   4.177   7.881  13.343 -0.1877  0.1494 -0.0711
20882W        W37143   0.238  14.906   1.285  0.0763 -0.1620 -0.0950
20883W        W37144   9.368   9.558  13.461 -0.1898 -0.1335  0.1528
20884W        W37145  17.309  17.463  14.837  0.2404  0.1615 -0.0255
20885W        W37146  18.403   6.911  13.075  0.0774  0.3346  0.1174
20886W        W37147  14.847  16.301   0.413  0.0972  0.1204  0.0056
20887W        W37148  16.014   6.712  15.729 -0.0723  0.1769  0.1791
20888W        W37149   5.230   0.510   1.555  0.0371  0.0218  0.1418
20889W        W37150   8.354  17.381  11.795  0.5472  0.1495 -0.1156
20890W        W37151   0.916  14.167   5.587 -0.1543  0.0164 -0.0673
20891W        W37152   4.641  12.288   1.911  0.0379  0.0719 -0.1319
20892W        W37153  14.096   6.235  11.528  0.3303  0.0091  0.1241
20893W        W37154   9.690  14.472   4.444 -0.2269 -0.1467 -0.0804
20894W        W37155   4.957  11.835   4.125 -0.0804  0.1165 -0.3053
20895W        W37156   0.160  11.739  14.546  0.1741  0.2129 -0.2047
20896W        W37157   1.759  15.998   5.803  0.2141  0.2543  0.2365
20897W        W37158   4.181   1.721  11.440 -0.2184  0.0849  0.0743
20898W        W37159  10.817   8.834   1.187  0.1013  0.1876  0.1529
20899W        W37160  18.468   6.713  14.757  0.0564  0.3868 -0.1013
20900W        W37161   2.971   6.275   4.171  0.1133  0.1110  0.0842
20901W        W37162  15.938   0.900   3.757 -0.3215 -0.3407 -0.0209
20902W        W37163   7.126   4.708   2.604 -0.0562  0.1475  0.0748
20903W        W37164   1.823  15.407   3.450  0.1596  0.3046  0.1237
20904W        W37165   6.243  17.830   1.319  0.0976 -0.0364  0.1431
20905W        W37166   7.981   6.934   4.265  0.0099 -0.1235 -0.1152
20906W        W37167   1.305  11.715   1.602 -0.2320  0.1824 -0.4139
20907W        W37168  12.007  11.051   4.065  0.1033  0.1499  0.3704
20908W        W37169   0.845  18.407  10.235  0.0569  0.1487  0.1463
20909W        W37170   8.404   1.072   6.266 -0.0978 -0.0383  0.0961
20910W        W37171   4.143  13.036  13.449  0.0137  0.2006 -0.0056
20911W        W37172   1.877  17.949   1.231  0.0985  0.1550  0.0993
20912W        W37173   7.954   9.639   0.625 -0.1209  0.0899  0.0976
20913W        W37174  13.919   2.212  16.122 -0.2612  0.0091  0.1469
20914W        W37175  11.309  15.622  11.008  0.0507  0.0915  0.3871
20915W        W37176   0.808   0.369   1.543  0.0654 -0.1232 -0.1349
20916W        W37177   5.489  10.597   1.858 -0.0208 -0.3092  0.3585
20917W        W37178  16.338   0.430  12.767  0.1095 -0.0341 -0.2395
20918W        W37179  17.024   8.919  15.051  0.2039 -0.0464 -0.1592
20919W        W37180   6.235   5.653   5.911  0.0956 -0.0874  0.6115
20920W        W37181   6.729   0.240   5.919 -0.2179  0.1653  0.0426
20921W        W37182   3.084   5.779   4.933 -0.0717 -0.0909 -0.1936
20922W        W37183  17.856  14.931   4.782  0.0924  0.0940  0.3319
20923W        W37184   8.234   5.834   3.503 -0.1141 -0.0697 -0.0394
20924W        W37185   6.922  12.434   5.431 -0.3828 -0.0407 -0.1433
20925W        W37186  11.214  12.295  14.503  0.0581  0.1607  0.3007
20926W        W37187   1.800  16.368  13.998 -0.1696 -0.1823 -0.0679
20927W        W37188   2.720  11.204   1.947 -0.1159 -0.0256 -0.2972
20928W        W37189  14.149   7.120  11.129 -0.2347  0.1958 -0.0002
20929W        W37190   7.412  11.236   3.865 -0.2268 -0.0958  0.0690
20930W        W37191  16.517  15.143   4.553 -0.0302 -0.1112 -0.2279
20931W        W37192   0.176  13.575   2.104 -0.0733  0.0807  0.2401
20932W        W37193  14.925  11.044  13.727  0.1251 -0.0623  0.0217
20933W        W37194   6.777  15.575  14.957 -0.1242  0.1418  0.0438
20934W        W37195  14.293   4.775   5.535  0.2148  0.2302  0.0401
20935W        W37196  13.234  16.497  12.730  0.1865  0.0035 -0.5022
20936W        W37197   7.526   4.046   2.603  0.1083  0.5187  0.2954
20937W        W37198   0.742   8.490   2.473 -0.1286  0.0287  0.0219
20938W        W37199   4.771   8.626   1.455 -0.0241  0.0234  0.2516
20939W        W37200   0.058  17.273   1.217 -0.2266 -0.1301  0.1037
20940W        W37201   0.320  13.175  10.909 -0.3689 -0.0213  0.1056
20941W        W37202  17.940   5.644  13.254  0.0638 -0.1409 -0.0697
20942W        W37203   9.173  13.292   1.469 -0.0524 -0.0538 -0.0542
20943W        W37204   0.432  10.661  11.146  0.0837 -0.0131 -0.0392
20944W        W37205  18.029  15.887   2.264 -0.3532  0.0014  0.1341
20945W        W37206   2.564   5.447  13.299 -0.0124  0.0975 -0.0877
20946W        W37207  16.461   7.999   1.517  0.0170 -0.0402 -0.1892
20947W        W37208   6.064   5.270   1.167  0.3791  0.2902  0.0052
20948W        W37209   8.341  18.102  11.436 -0.1345  0.3726 -0.0174
20949W        W37210  16.370  11.842  15.308  0.0914  0.1562 -0.4109
20950W        W37211  16.318  16.570   4.834 -0.2575 -0.3189 -0.0268
20951W        W37212   4.860   5.094   6.029 -0.0000  0.2560  0.0871
20952W        W37213  11.404  15.162   4.281  0.0265 -0.3336  0.2419
20953W        W37214  17.581   3.710   1.077 -0.1358  0.0722  0.2210
20954W        W37215  17.682   5.258   4.550 -0.2049  0.3330 -0.0173
20955W        W37216   6.995  15.798   3.499  0.2488 -0.0887  0.0244
20956W        W37217   1.459  15.782   3.232 -0.0976 -0.0442 -0.0376
20957W        W37218  11.357   6.134   0.423 -0.4541  0.0962 -0.1507
20958W        W37219  18.479   8.954  13.480  0.1212  0.1005 -0.2796
20959W        W37220   3.504   3.933   5.586 -0.1457 -0.3775  0.1776
20960W        W37221  17.851   8.611  14.541 -0.0765 -0.0255  0.0507
20961W        W37222   3.729  16.674  13.272  0.1992  0.0918 -0.0242
20962W        W37223   9.038   9.848  12.419 -0.0063  0.2461  0.1618
20963W        W37224  10.159   7.934  15.261 -0.3876  0.1591 -0.1289
20964W        W37225  11.034   1.482  12.151 -0.2714  0.4463 -0.0044
20965W        W37226   0.865   0.373   0.834 -0.1178 -0.2160  0.3904
20966W        W37227  12.339   8.691  15.993  0.0919  0.2507  0.0789
20967W        W37228   0.017   4.528  13.396  0.0070  0.0912  0.3252
20968W        W37229   6.010  17.855   4.893 -0.1718 -0.2395  0.3012
20969W        W37230  16.172   8.616  13.148  0.2502  0.0566  0.1912
20970W        W37231  13.114   0.111   4.350  0.0195  0.2168 -0.3022
20971W        W37232  13.364  17.619  11.378 -0.1547 -0.0858 -0.1742
20972W        W37233   3.508   6.066   1.005 -0.0491  0.1726  0.0835
20973W        W37234  16.359   8.549  14.130  0.3135  0.0634 -0.3498
20974W        W37235   2.920   0.009   3.789  0.1357  0.1595 -0.0819
20975W        W37236   0.870   0.318   3.098 -0.2428  0.2537  0.2400
20976W        W37237   6.692  17.840   1.758  0.2549  0.0592  0.2548
20977W        W37238   9.984   5.334   3.398  0.1878 -0.2332  0.1180
20978W        W37239  10.085   6.061   1.462  0.0155 -0.1812  0.0663
20979W        W37240  10.338   3.617  12.797 -0.1864 -0.2653 -0.3650
20980W        W37241   8.476   9.045   4.127 -0.0197 -0.3511 -0.1826
20981W        W37242   8.162  13.027   0.462  0.1260 -0.1101 -0.0734
20982W        W37243   8.615  16.827   4.783 -0.1648 -0.2837  0.2548
20983W        W37244  15.887   6.944   2.083  0.0193 -0.0372 -0.4716
20984W        W37245   5.400  17.939   4.605 -0.3078  0.0699  0.0495
20985W        W37246  17.232   5.563   2.484  0.1419 -0.0748  0.0598
20986W        W37247   0.728  16.394  14.913  0.0036 -0.0408 -0.0798
20987W        W37248   9.817  17.440   2.438  0.1422  0.0824  0.1460
20988W        W37249   6.328   3.016  15.997  0.5361 -0.1239  0.0003
20989W        W37250  10.651  16.192   2.212 -0.1713 -0.3169 -0.1967
20990W        W37251  10.100  10.577  15.439  0.0898  0.0651  0.1388
20991W        W37252   0.720  17.102   1.990 -0.3319  0.1976 -0.0337
20992W        W37253   3.337   2.309   0.244 -0.1927 -0.0603  0.2715
20993W        W37254   3.228   7.950   6.108 -0.0263 -0.1954  0.1099
20994W        W37255   8.913   4.695   1.548  0.1291  0.3548  0.1486
20995W        W37256   8.691   9.923  13.857 -0.0369 -0.0348  0.1554
20996W        W37257   4.515  10.517  13.735  0.1259  0.1023  0.1332
20997W        W37258   1.237   5.880   0.615 -0.0359  0.2674  0.2264
20998W        W37259  13.063  16.146   3.550  0.1860  0.1986 -0.0035
20999W        W37260  13.334   6.044   0.655 -0.3081  0.1130 -0.2354
21000W        W37261   9.715   6.992  11.121  0.0560 -0.1221 -0.1057
21001W        W37262   1.567  11.564  15.201  0.1334 -0.3274 -0.2079
21002W        W37263   6.669   0.240  13.175 -0.2742  0.0826  0.2042
21003W        W37264   5.210  11.951  13.038 -0.1227  0.1927  0.1563
21004W        W37265  15.300  10.689  15.474 -0.3120 -0.0048  0.0387
21005W        W37266   2.274  11.984   0.017  0.0052 -0.1686  0.2994
21006W        W37267  16.124   5.077  13.298  0.0996  0.2881 -0.2859
21007W        W37268   0.640  13.047   1.873  0.0668 -0.1130  0.0671
21008W        W37269  16.566   5.157   2.167  0.3130 -0.1165  0.5593
21009W        W37270   5.332   8.947   0.196  0.0435  0.0466 -0.4046
21010W        W37271  17.645  16.830  12.943  0.1697  0.3066  0.1057
21011W        W37272   6.199  12.988   1.117 -0.0295  0.1604  0.0202
21012W        W37273   6.329   1.531  14.983 -0.3987  0.3216 -0.5988
21013W        W37274   7.634  14.929  15.702  0.3059  0.1899 -0.0766
21014W        W37275   1.060  17.604   1.496 -0.1677 -0.3103 -0.0250
21015W        W37276   7.916   3.852  14.181 -0.1394  0.3858 -0.0038
21016W        W37277   9.173   5.091   0.792 -0.0560  0.4403  0.1359
21017W        W37278  10.530   2.246   4.022 -0.0311 -0.2407  0.0261
21018W        W37279   1.469   1.877  15.111 -0.0144  0.1999 -0.0174
21019W        W37280   1.375   5.104  15.964  0.2225  0.0180 -0.0450
21020W        W37281  12.098   3.973  15.878 -0.1620 -0.1800  0.2370
21021W        W37282  12.611  16.495  16.167 -0.1249  0.0838  0.2949
21022W        W37283   8.271   0.840  12.782 -0.0885  0.1595 -0.1955
21023W        W37284   2.832   1.017  16.041  0.0246  0.0987 -0.1948
21024W        W37285   0.056   2.476   3.755  0.2080 -0.3884 -0.2119
21025W        W37286  13.893   7.041   4.863 -0.0436  0.1875 -0.0116
21026W        W37287  11.177   4.063   4.366 -0.1708  0.0780  0.2749
21027W        W37288   1.907  18.158   4.758  0.3644 -0.0396  0.0036
21028W        W37289   4.245   8.147  15.231 -0.0927  0.1187 -0.0897
21029W        W37290  10.865  10.293   5.096 -0.0070 -0.0375  0.0697
21030W        W37291   6.723   8.616   5.158  0.2327 -0.0043  0.2490
21031W        W37292  10.913  12.714  11.633  0.2437  0.0378  0.1457
21032W        W37293   5.821   6.140   2.773  0.4014 -0.0082  0.4892
21033W        W37294   3.462  14.940  12.691  0.4704  0.0091 -0.2446
21034W        W37295  10.894   9.430   4.956 -0.0358  0.4463  0.0571
21035W        W37296   5.470  18.432  15.045 -0.0203 -0.3644  0.2327
21036W        W37297  18.150   5.569  14.915  0.2613 -0.0304  0.0819
21037W        W37298   9.674  11.282   2.362 -0.4082  0.1799  0.2875
21038W        W37299   4.017  16.164  12.006  0.1973  0.2241 -0.0737
21039W        W37300  10.848   1.013   2.893 -0.1890 -0.1091 -0.1156
21040W        W37301  17.703   7.759  12.442 -0.0686  0.2011  0.0283
21041W        W37302   5.474   1.203   3.992 -0.0287  0.1126 -0.3461
21042W        W37303  17.912  15.722   0.109 -0.2472 -0.2952  0.2706
21043W        W37304  17.996  13.154  13.108 -0.4127  0.1762  0.1085
21044W        W37305   1.655   0.726  15.489  0.0136 -0.0044  0.1963
21045W        W37306   8.208   4.253  14.032  0.2708 -0.3316  0.0470
21046W        W37307  17.901   7.249  12.420 -0.2459  0.0103 -0.1425
21047W        W37308   7.268   9.005  12.701 -0.1117  0.2507  0.0357
21048W        W37309   8.638   9.127   0.149 -0.1153  0.0490  0.1788
21049W        W37310  12.416   4.124   4.594 -0.1803 -0.2315  0.0344
21050W        W37311  12.200   6.098   4.213  0.0579 -0.3110  0.2526
21051W        W37312   8.216  17.873  13.966 -0.1685 -0.3880 -0.1123
21052W        W37313  11.764  18.241   1.862 -0.2535 -0.0702 -0.1196
21053W        W37314   8.334   9.905   1.841 -0.2545 -0.1569 -0.1351
21054W        W37315  15.294   5.336  15.578 -0.0709  0.1992 -0.0434
21055W        W37316   8.429  15.683   2.817 -0.3083  0.0702  0.3412
21056W        W37317   0.195   7.327   0.911 -0.0995 -0.1634  0.0899
21057W        W37318  11.137   8.583   1.767  0.0273  0.4739 -0.1748
21058W        W37319   6.573   3.719  13.237  0.1138 -0.1855 -0.3360
21059W        W37320  16.847   3.600  13.071 -0.0293  0.0503 -0.1704
21060W        W37321  16.376  12.965  12.189  0.2295  0.2034  0.2000
21061W        W37322   1.772  10.090   4.571  0.1914  0.6556 -0.1032
21062W        W37323   1.333   3.649   0.418 -0.1178 -0.2530 -0.1082
21063W        W37324  18.344   8.815  14.094  0.0055 -0.3234 -0.0705
21064W        W37325  12.186   0.526  12.240 -0.0125 -0.1249  0.0325
21065W        W37326   7.388  17.992   2.111 -0.2870 -0.1552  0.0279
21066W        W37327  14.391  15.177   1.054  0.0417  0.1590  0.0761
21067W        W37328   8.766  18.154   3.019  0.0787 -0.2283 -0.0026
21068W        W37329   3.451   3.690   0.943 -0.1951  0.3209  0.0492
21069W        W37330  16.424  17.064  13.791  0.2212  0.0737  0.0659
21070W        W37331   0.225   8.059   2.368  0.2458 -0.3111  0.4259
21071W        W37332   4.128   1.563   4.795 -0.2432 -0.0770 -0.1356
21072W        W37333  13.897  15.342   4.426  0.2224  0.0524  0.3892
21073W        W37334   5.838  12.259   1.110  0.1048  0.0231  0.2085
21074W        W37335   6.624   5.095   5.708  0.0839 -0.2856  0.0612
21075W        W37336   8.632  12.843   0.449 -0.1354  0.0663 -0.0062
21076W        W37337   8.084   5.752   0.234 -0.0919 -0.0086 -0.2603
21077W        W37338   8.613  13.767   0.505  0.1796  0.2622  0.0936
21078W        W37339  17.528   4.798   1.054  0.1258  0.2610 -0.1074
21079W        W37340  13.061  12.178   1.536  0.3576  0.0219  0.1593
21080W        W37341   3.560   1.741  14.120  0.1323 -0.0874 -0.2314
21081W        W37342  17.432   0.437   4.969  0.4446 -0.2625 -0.1413
21082W        W37343  14.803   6.511   4.939 -0.1528  0.0165  0.0974
21083W        W37344   5.667   3.352   2.959 -0.0264  0.2469  0.1112
21084W        W37345  17.237   5.222   5.924 -0.2108  0.1853 -0.0074
21085W        W37346   3.008  13.751   5.204 -0.2946  0.0712  0.1601
21086W        W37347   5.852   0.750   4.814 -0.1688 -0.3172 -0.0923
21087W        W37348   4.698   9.452  12.704 -0.0820  0.0297 -0.0368
21088W        W37349  16.401   2.102  14.527 -0.4666  0.2787 -0.0124
21089W        W37350  14.890   4.955  15.583  0.2483  0.0055 -0.5591
21090W        W37351   3.528  12.841   4.158  0.4262 -0.2145 -0.1534
21091W        W37352   3.708  11.723  10.464 -0.1182 -0.0954  0.2108
21092W        W37353  13.485  14.110  14.624  0.1677 -0.3380  0.0200
21093W        W37354   3.390  17.028  14.551  0.0706  0.3094  0.0565
21094W        W37355  17.559  15.431  13.671 -0.1083  0.1298 -0.3521
21095W        W37356   4.716   8.116  15.418  0.0050 -0.1592 -0.1768
21096W        W37357  17.470  14.905   0.358 -0.0110  0.1077 -0.0232
21097W        W37358   2.334   1.742   1.042  0.0815 -0.0542 -0.3779
21098W        W37359  18.385   8.535   3.255  0.2329 -0.1887  0.1611
21099W        W37360   5.539   6.810   6.415 -0.1277 -0.0676 -0.1788
21100W        W37361  12.406  15.179   1.552  0.1953 -0.2548 -0.1958
21101W        W37362   2.644   1.866   1.956  0.0796  0.3892  0.1857
21102W        W37363  16.795   3.884   2.363 -0.2069 -0.1724 -0.0629
21103W        W37364   3.349  14.517  12.417 -0.0447  0.0609 -0.3497
21104W        W37365   8.085   9.460  12.666  0.0910  0.3321  0.0003
21105W        W37366   3.081  16.217  14.304  0.1193  0.0583 -0.0399
21106W        W37367  11.097  17.849   1.159  0.1334  0.2536 -0.0038
21107W        W37368   6.981   0.131   4.824 -0.0351 -0.1689 -0.1744
21108W        W37369  16.353   3.077   4.231 -0.2619  0.1649  0.5270
21109W        W37370   3.289   9.689   2.857  0.1271  0.1937 -0.1723
21110W        W37371   3.168   3.485   0.219  0.0954 -0.0854  0.2028
21111W        W37372  13.573  14.295   4.384 -0.0175 -0.1583  0.2518
21112W        W37373   4.877   0.269   4.516 -0.0551  0.2789  0.0004
21113W        W37374  17.025   9.218  10.597 -0.1001 -0.0697  0.4261
21114W        W37375  11.024  14.798   4.255 -0.0734 -0.0851  0.0748
21115W        W37376   0.484  14.159  15.965 -0.0351 -0.1629  0.0839
21116W        W37377  11.468   2.779  10.765  0.0842 -0.3712 -0.2056
21117W        W37378   0.837  10.695   1.859 -0.0222 -0.1535 -0.2519
21118W        W37379  11.852   7.091   6.105 -0.0010 -0.0263 -0.2215
21119W        W37380  14.502   9.341  13.339 -0.3076 -0.0989 -0.1994
21120W        W37381  15.310   6.865   0.016  0.0545 -0.1114 -0.2519
21121W        W37382  14.767   0.705   0.584 -0.3025 -0.3954 -0.2924
21122W        W37383   9.797   3.001   5.677 -0.0155  0.1920  0.2300
21123W        W37384  11.807   2.947   2.010 -0.1851 -0.1199  0.0221
21124W        W37385  16.366   9.093  15.187 -0.3076 -0.2943  0.2702
21125W        W37386  12.023   1.815  13.946  0.0604 -0.0672  0.3108
21126W        W37387   6.263   5.340   4.131 -0.0137 -0.1599  0.1983
21127W        W37388   6.420  17.886  14.158 -0.0124  0.1065 -0.4605
21128W        W37389   4.580  10.040  12.006 -0.2875  0.2270  0.1425
21129W        W37390   8.548   9.564   4.682 -0.0290  0.6337  0.3044
21130W        W37391  13.841   9.003  14.058  0.0770 -0.0123 -0.0099
21131W        W37392   7.069   2.472  12.253  0.3238  0.4095  0.2911
21132W        W37393  12.395  16.825   1.193  0.1155  0.2299 -0.4248
21133W        W37394   5.567  10.871  14.609  0.3050 -0.0137 -0.0097
21134W        W37395   1.770  14.047   4.106 -0.0383  0.0904  0.0312
21135W        W37396   7.215   1.064   1.103 -0.2742 -0.0980 -0.0847
21136W        W37397  11.395  13.591  10.137 -0.0822 -0.1492  0.2427
21137W        W37398   9.845  12.222  15.635  0.4276  0.0517 -0.0469
21138W        W37399  16.271  17.943  13.955 -0.0906  0.3056  0.1790
21139W        W37400   8.537   2.275   4.227  0.2595  0.1619 -0.1505
21140W        W37401   1.709  14.667  14.831  0.0243  0.0420 -0.0372
21141W        W37402  17.278  14.810  10.630  0.0110 -0.1349 -0.0256
21142W        W37403   5.897   6.721   5.039  0.1436  0.0297  0.0291
21143W        W37404  12.776  14.813  14.756  0.0296 -0.0619  0.1023
21144W        W37405   8.523   3.338  15.062 -0.2126  0.2386 -0.1434
21145W        W37406   1.101   6.199   1.370 -0.1369  0.0753  0.3871
21146W        W37407  15.093   8.997   3.719  0.1954  0.0278 -0.0909
21147W        W37408  13.743   9.110   2.819 -0.1680 -0.0359  0.1140
21148W        W37409   6.474   2.453   4.571  0.0157  0.0623 -0.0587
21149W        W37410  15.304  13.237  13.754 -0.0373 -0.1483 -0.0935
21150W        W37411  16.812   8.552  12.968 -0.0532 -0.0472 -0.1180
21151W        W37412   9.389   3.747  14.880 -0.2705  0.1992 -0.1291
21152W        W37413   8.895   4.676   3.693  0.1173  0.0127  0.1650
21153W        W37414   0.110   3.609   0.266 -0.0685  0.0477  0.1644
21154W        W37415  16.647  10.666  12.386  0.1910 -0.1377 -0.2094
21155W        W37416   4.357  14.137   3.029 -0.2332  0.1014 -0.0441
21156W        W37417  14.989  16.245  13.384 -0.1807  0.0124  0.0683
21157W        W37418   7.152   1.940  14.778  0.0924  0.2122  0.0295
21158W        W37419   6.552  13.941   4.855  0.2246 -0.0444  0.0612
21159W        W37420   2.506  11.662   4.296 -0.0616  0.1253 -0.1572
21160W        W37421   3.883   4.540  11.601  0.0478  0.3158  0.2090
21161W        W37422  13.530  18.324  15.766  0.1222 -0.0634 -0.0257
21162W        W37423   4.569   8.017   5.105 -0.0513  0.1058  0.0502
21163W        W37424  15.652   0.169  12.049 -0.0150  0.0717 -0.0419
21164W        W37425   8.741  15.058  14.473 -0.0146  0.1602 -0.2328
21165W        W37426  10.727   0.465  12.923 -0.1107 -0.0899  0.3523
21166W        W37427  16.811  13.407   0.092 -0.1455  0.1823 -0.2323
21167W        W37428  13.604  13.258  16.071  0.3274 -0.4506  0.2202
21168W        W37429   3.374  16.857   2.937 -0.1346 -0.0900 -0.1723
21169W        W37430  18.408   7.137   0.082  0.2029  0.1177 -0.0195
21170W        W37431   0.493   4.183   2.474  0.0818 -0.2159 -0.4912
21171W        W37432  12.311  15.671  11.488 -0.2380  0.1087 -0.2599
21172W        W37433   4.598   5.089   0.744  0.0431  0.1623 -0.1745
21173W        W37434  10.998  10.427   0.775 -0.0072 -0.1177 -0.2310
21174W        W37435  13.135   4.258  14.069  0.0232  0.3506 -0.1459
21175W        W37436  11.895   9.191  11.941  0.1811 -0.2111  0.0773
21176W        W37437  13.569  16.068  12.750  0.2477  0.1935  0.0429
21177W        W37438  13.397  17.281   3.378  0.1608  0.1587  0.2839
21178W        W37439   2.979   6.966   1.045  0.0843  0.1874 -0.0306
21179W        W37440  17.058   4.517  14.786 -0.0285  0.1881  0.0173
21180W        W37441   1.036  15.541   2.436  0.0643 -0.1604 -0.0680
21181W        W37442  17.592   5.263   1.307  0.4184  0.0408  0.2573
21182W        W37443  10.939   3.047   0.746  0.2733  0.0079 -0.2997
21183W        W37444  14.431  13.973  14.531  0.2354  0.4178 -0.0989
21184W        W37445   7.299  16.499   4.458  0.1855  0.4350 -0.2316
21185W        W37446   4.215   9.417  12.862 -0.1638 -0.1117 -0.2369
21186W        W37447   1.549  11.845   3.590 -0.1164  0.1370  0.0733
21187W        W37448   0.023   1.527  11.963  0.1204 -0.2395  0.4151
21188W        W37449   9.900  16.951   1.164  0.0138 -0.1075 -0.2149
21189W        W37450   8.098   2.125   4.062 -0.1610 -0.2904 -0.0559
21190W        W37451  12.650  17.428  10.912  0.1230  0.1483 -0.0977
21191W        W37452  14.926   9.673   5.101 -0.3828  0.1931 -0.1520
21192W        W37453   0.906  12.370   0.072  0.2431 -0.5077  0.2183
21193W        W37454   6.159   7.810   3.240 -0.1551 -0.2386 -0.1641
21194W        W37455  11.751  10.623  15.201 -0.2168  0.0346 -0.1853
21195W        W37456   6.700  16.990   3.545 -0.2673  0.1994  0.0088
21196W        W37457   8.537   8.412   4.167  0.2522 -0.1661 -0.2259
21197W        W37458  17.689  10.817   2.909  0.3985 -0.0806 -0.1035
21198W        W37459  12.564   7.245  11.976 -0.2264 -0.1980 -0.0316
21199W        W37460  13.737   4.328   0.609 -0.1035 -0.1444  0.2236
21200W        W37461  17.270  13.989  15.206 -0.1605  0.0562  0.3152
21201W        W37462  12.165  11.923   1.718  0.1811  0.2581  0.2241
21202W        W37463  16.137   2.028   5.635 -0.1881 -0.2119 -0.1284
21203W        W37464  12.548   8.402   1.305 -0.1243 -0.0199  0.2446
21204W        W37465  15.367   2.780   0.948  0.1578  0.0610 -0.1131
21205W        W37466  11.048   3.668   3.406  0.0026  0.0340  0.2291
21206W        W37467  10.854   7.934   2.827  0.1770  0.1136  0.3059
21207W        W37468  17.705   3.924   2.212 -0.0371  0.2973  0.0722
21208W        W37469   7.786   1.180  11.551 -0.2454 -0.1415  0.4182
21209W        W37470   7.718   8.716  12.969 -0.0021  0.0518  0.0593
21210W        W37471   5.977  14.267  14.938 -0.1447  0.2181 -0.1988
21211W        W37472   6.217  13.397  13.677  0.0948  0.0516 -0.2646
21212W        W37473  15.943  13.045   5.330 -0.0675  0.1073 -0.0526
21213W        W37474  12.724   8.950   0.395  0.0740  0.0694  0.0848
21214W        W37475   8.755  11.768  12.788 -0.1885  0.0353  0.0443
21215W        W37476  15.089  12.105  14.564  0.2760  0.0298  0.1721
21216W        W37477   8.695   3.206   2.407 -0.1274  0.2452 -0.2655
21217W        W37478  12.956   4.025   0.598 -0.2240  0.1040 -0.2149
21218W        W37479   8.242   9.712   3.420  0.0772 -0.1480 -0.3317
21219W        W37480  16.991   0.502   5.159 -0.0001 -0.2170 -0.5530
21220W        W37481   7.940   5.238  15.125  0.0490  0.0816  0.3102
21221W        W37482  13.692  10.790   1.788  0.0012 -0.1508  0.1752
21222W        W37483   0.469   9.636   3.316 -0.1703 -0.1456 -0.1372
21223W        W37484  12.559  18.330  11.639  0.2733  0.1500  0.0638
21224W        W37485   1.535   4.278  14.030  0.2444 -0.0150 -0.1128
21225W        W37486   4.135  12.191  14.730 -0.0455  0.1312 -0.0119
21226W        W37487   8.985   2.523   4.069  0.1863  0.0871  0.3133
21227W        W37488  11.682   3.309  14.583 -0.2488 -0.0290 -0.1649
21228W        W37489   2.156  14.326  13.101 -0.0474 -0.0498  0.1511
21229W        W37490   1.907  16.424   0.941 -0.0835 -0.0717 -0.1054
21230W        W37491  11.880   3.272   0.280 -0.0078 -0.0857  0.2634
21231W        W37492   1.027  11.229  11.482 -0.0032  0.0385  0.4929
21232W        W37493  15.342  18.248   3.182 -0.0836 -0.0340 -0.0334
21233W        W37494  12.622  16.734  14.321 -0.1373 -0.0379  0.1774
21234W        W37495   9.235  14.332  13.053  0.0769  0.0110  0.0054
21235W        W37496   2.090  11.138  12.022  0.0337 -0.1869  0.1009
21236W        W37497   7.911   9.572  14.346 -0.1580  0.1490  0.0022
21237W        W37498   9.488  11.421   3.953  0.1191 -0.1972 -0.2900
21238W        W37499  15.574  15.263   4.142 -0.1881 -0.1155  0.1813
21239W        W37500  16.839  14.322  10.345  0.2927 -0.0675  0.4310
21240W        W37501   1.437   8.737   1.567 -0.0603 -0.0644 -0.0066
21241W        W37502  13.875   5.884   5.573  0.3216  0.0197 -0.2881
21242W        W37503   1.341   4.888  13.294 -0.1230  0.2618 -0.2526
21243W        W37504   7.042   4.793   3.701 -0.0823 -0.2022  0.0094
21244W        W37505   2.445   2.845   5.027 -0.2237  0.2649  0.2835
21245W        W37506   9.051   4.981   0.022  0.1176 -0.2028 -0.3782
21246W        W37507   4.327  10.025   4.857 -0.2006 -0.0001  0.0548
21247W        W37508   4.607   6.809  15.773  0.0115  0.5377  0.0983
21248W        W37509  17.370   5.778   3.798 -0.0398 -0.1449  0.0198
21249W        W37510   5.369   9.207  14.173  0.0278  0.0907  0.1464
21250W        W37511  17.023   6.277   5.382  0.0671 -0.1544 -0.0158
21251W        W37512   5.214   7.615  14.177 -0.0757 -0.1041 -0.4941
21252W        W37513  18.265   8.750   2.197 -0.1133 -0.0771  0.0285
21253W        W37514  13.467   4.097   3.152  0.1851  0.0657  0.0050
21254W        W37515  13.778   4.158  12.081 -0.3434 -0.4709  0.0306
21255W        W37516   3.972  18.180   0.949 -0.2856  0.1538  0.2696
21256W        W37517   2.640  17.903  12.441  0.0099  0.1941 -0.3693
21257W        W37518  11.377   0.128   0.610  0.1124 -0.0752  0.0061
21258W        W37519   4.211  11.656   6.287 -0.2005 -0.1806 -0.2574
21259W        W37520  10.786  16.229   5.826 -0.0679 -0.4208  0.1129
21260W        W37521  17.549  11.519  16.173 -0.0099 -0.0104  0.3931
21261W        W37522  10.283   3.653   4.016  0.0729  0.2449 -0.1405
21262W        W37523   5.743   7.551  11.914  0.1217 -0.1298  0.1656
21263W        W37524  16.456  15.953   2.052 -0.2956  0.1511  0.0880
21264W        W37525  17.093   1.035  16.017  0.1265 -0.1647 -0.0956
21265W        W37526   4.530  14.492  14.890  0.3424 -0.4001  0.0110
21266W        W37527   8.645  17.711  15.786  0.1852  0.4800  0.0937
21267W        W37528   1.080  10.016  14.139 -0.3755  0.1554 -0.4893
21268W        W37529   2.231   6.452  16.142 -0.1310  0.1707  0.0265
21269W        W37530  11.246   8.150   3.302 -0.1005 -0.0239  0.2079
21270W        W37531   4.827  10.242   3.417 -0.0898  0.2358 -0.1417
21271W        W37532   8.643  17.198  12.262  0.1011 -0.1848  0.0252
21272W        W37533  13.388   4.123   0.861  0.0749 -0.0929  0.2715
21273W        W37534   6.691  15.200   4.787 -0.0438  0.0570 -0.1623
21274W        W37535   1.514   1.089  15.910  0.2128 -0.0178  0.0896
21275W        W37536  17.290  17.283   5.122  0.0822  0.2535  0.2077
21276W        W37537  15.236   9.586   0.235  0.1400  0.1324  0.2543
21277W        W37538   7.653  12.879  15.467 -0.4218 -0.0342  0.3793
21278W        W37539   4.437  12.354   2.808  0.0735 -0.2291 -0.2108
21279W        W37540   1.867   9.590   4.192  0.1348  0.0274  0.1617
21280W        W37541   5.935   3.958   6.116  0.1874  0.2022  0.3040
21281W        W37542   8.210   8.635  12.034  0.1020 -0.3868 -0.0687
21282W        W37543   9.737   0.064   0.895  0.0133 -0.3249 -0.0036
21283W        W37544   5.484  16.083   3.330 -0.0833  0.3117  0.0051
21284W        W37545  10.140   8.386  15.714 -0.1423 -0.1998 -0.0719
21285W        W37546  11.977   8.601   0.103  0.1317  0.3006 -0.0774
21286W        W37547  15.491   0.171   0.676 -0.1053  0.0036 -0.1318
21287W        W37548   9.460  12.137   4.583  0.1516 -0.0124  0.2455
21288W        W37549   8.361   7.255   1.232 -0.1198  0.2635  0.0152
21289W        W37550   1.561   9.305   4.540  0.0524 -0.1119  0.3030
21290W        W37551  11.222  18.166   3.360 -0.0351 -0.1030  0.0722
21291W        W37552  13.220   8.391  15.884 -0.1107 -0.1409  0.0913
21292W        W37553  15.531  12.193   3.394  0.1040  0.0396 -0.0851
21293W        W37554  10.194  15.517  15.171 -0.0314 -0.1678  0.1040
21294W        W37555  14.321   8.419   2.590 -0.1184  0.1125 -0.0187
21295W        W37556   3.791  10.252  11.946  0.3666 -0.0972  0.2659
21296W        W37557  15.168  15.389   2.027 -0.2173  0.1371 -0.0684
21297W        W37558   1.875   2.263   5.620 -0.0207 -0.1026  0.1993
21298W        W37559   6.935  12.880  12.019  0.1713  0.0546 -0.0048
21299W        W37560  10.921  16.686   4.499  0.0686 -0.2708  0.0084
21300W        W37561  15.270   3.569  11.584 -0.0233  0.0219 -0.2326
21301W        W37562   0.829   9.653  14.415  0.1160  0.0170 -0.0127
21302W        W37563  11.311  15.385  14.261 -0.2502  0.0264 -0.3324
21303W        W37564  16.516  14.981  15.979  0.0039 -0.0217  0.2058
21304W        W37565   1.364   2.707  11.649  0.1456  0.0359  0.2906
21305W        W37566  10.476  15.994  15.404 -0.1340  0.1802 -0.0548
21306W        W37567   9.152   2.956  12.251 -0.1416 -0.1470  0.1678
21307W        W37568   7.862   6.741   6.392 -0.1274 -0.0511  0.0970
21308W        W37569  12.145  14.765  13.255  0.0520 -0.0403 -0.1180
21309W        W37570   5.534   7.030   2.453  0.2437  0.2177 -0.0212
21310W        W37571   4.160   4.809  15.103 -0.0612  0.4521 -0.1105
21311W        W37572   2.179  16.940  16.076 -0.1185  0.4272 -0.1357
21312W        W37573  14.595   3.623  15.773 -0.3118 -0.2740 -0.1005
21313W        W37574  17.289  11.743  14.510  0.0765 -0.0948  0.1495
21314W        W37575   7.332   4.813   2.135  0.1626  0.2561  0.1667
21315W        W37576  14.458  16.525  13.058  0.2198  0.3918 -0.0576
21316W        W37577  10.456  14.302  15.554  0.0344 -0.1947  0.1580
21317W        W37578  15.290   5.553  14.398 -0.1453 -0.4903 -0.0758
21318W        W37579  14.535  17.429  15.619  0.0496 -0.0061  0.0773
21319W        W37580  11.618   0.028  16.116 -0.0295 -0.0084 -0.1302
21320W        W37581  14.113   6.521   1.107  0.2967 -0.1143  0.1144
21321W        W37582  13.943   9.988  14.755  0.2625 -0.0771 -0.0625
21322W        W37583   6.465   3.315   1.575 -0.1745  0.3387  0.2793
21323W        W37584  14.293  11.520   2.907  0.3382  0.2091  0.1465
21324W        W37585  11.764   1.537   1.834  0.0526 -0.4774 -0.0539
21325W        W37586   2.185  12.400  12.206  0.5461  0.0760 -0.2828
21326W        W37587   0.030  14.505  14.625 -0.0316  0.3859 -0.0467
21327W        W37588   5.052  16.965   1.679  0.2268  0.0520 -0.0020
21328W        W37589   0.175   6.606   0.213 -0.3430 -0.2440  0.4337
21329W        W37590  16.423  17.761  12.811 -0.0301 -0.1970 -0.0044
21330W        W37591  17.312   6.956  13.369  0.1089 -0.2042 -0.2151
21331W        W37592   4.265   4.329   2.618 -0.1110 -0.0037 -0.1186
21332W        W37593   9.276   2.776   1.659  0.2023  0.2421  0.1657
21333W        W37594   6.542   5.043   0.119 -0.1462 -0.1605  0.0359
21334W        W37595  13.140  10.402   4.021  0.0948  0.0687  0.0544
21335W        W37596   9.004  10.075   2.798  0.1281 -0.0914  0.4307
21336W        W37597  10.431   6.371   3.915  0.3026  0.0905  0.1152
21337W        W37598  11.571  12.173  12.963  0.2092  0.0084 -0.0176
21338W        W37599   8.490   4.930   0.686 -0.0509  0.2960  0.1099
21339W        W37600   1.615  18.028  11.661 -0.1368 -0.0492  0.2468
21340W        W37601  10.428  16.884  14.891  0.0318  0.2851  0.0378
21341W        W37602  10.995  14.058  14.224  0.1161 -0.2461 -0.1809
21342W        W37603  10.374   2.656   3.009  0.1553 -0.3544 -0.3094
21343W        W37604   8.934  13.330   2.730 -0.1000  0.1728  0.0400
21344W        W37605   5.169  16.656  13.307  0.1412  0.1568 -0.0660
21345W        W37606   0.784  14.981   0.620  0.1699 -0.1577  0.1848
21346W        W37607   2.624   9.052   0.323 -0.0608  0.0341 -0.1983
21347W        W37608   8.583   5.435  12.015  0.2994 -0.3265  0.1014
21348W        W37609   8.660  13.075   1.604  0.1307  0.0504  0.0226
21349W        W37610  17.212   4.965  13.435  0.0723  0.1474 -0.4668
21350W        W37611   2.044  14.591   4.803  0.0511  0.0811  0.0145
21351W        W37612  12.787   8.452   0.046  0.2064  0.0944  0.1224
21352W        W37613  16.582  18.404   3.536 -0.1689  0.3937  0.1287
21353W        W37614   8.873   7.599  11.713  0.0824  0.5591 -0.1577
21354W        W37615   5.879  12.331   3.337 -0.0051  0.1982 -0.0571
21355W        W37616   3.090  15.983  11.138 -0.2292 -0.2331 -0.0612
21356W        W37617   7.517   2.832   0.245 -0.2509 -0.3687  0.1681
21357W        W37618   4.598  13.166  13.389  0.0104  0.1390 -0.1185
21358W        W37619  12.963   7.301  11.569 -0.1141 -0.0151 -0.1697
21359W        W37620  11.562  14.234   3.523 -0.1524  0.0532 -0.0109
21360W        W37621   4.417  13.538  12.076 -0.1876  0.1789  0.3663
21361W        W37622   7.437  13.304   0.037  0.3000 -0.0802 -0.0018
21362W        W37623   9.935   9.642   0.322 -0.0945 -0.0101  0.2381
21363W        W37624  12.723  10.840  15.154 -0.2962 -0.2342 -0.1885
21364W        W37625  15.717   1.932   3.329 -0.0261  0.1596 -0.0124
21365W        W37626  15.616  11.978   5.274  0.0260  0.2064 -0.2402
21366W        W37627  16.468  16.945   4.360  0.1764  0.0872 -0.1004
21367W        W37628   2.884  18.079   2.814 -0.1119  0.1036 -0.1172
21368W        W37629   2.078  14.685  13.723  0.2725  0.0917 -0.3385
21369W        W37630   2.145  16.373  12.978 -0.5690  0.1352  0.0361
21370W        W37631   8.946  16.843  12.156 -0.3199 -0.2139  0.1790
21371W        W37632   0.405   1.248  12.052 -0.2304 -0.3167 -0.0596
21372W        W37633   4.785   8.373  14.441  0.0457 -0.0143 -0.0869
21373W        W37634   6.588   1.466  11.744 -0.0920 -0.2160 -0.0533
21374W        W37635   1.204   4.026  15.230 -0.2855  0.0590 -0.0239
21375W        W37636   0.933   4.437   2.661 -0.1731  0.0383 -0.2557
21376W        W37637   9.451   2.117  12.901  0.1490  0.2935 -0.1819
21377W        W37638  10.813  10.237   4.567 -0.0460 -0.0527 -0.1764
21378W        W37639   4.606   9.047   2.778 -0.2805 -0.2822  0.3989
21379W        W37640  10.489  11.327  11.554 -0.0667  0.1394 -0.0127
21380W        W37641  15.536  15.938   9.608  0.0814 -0.0624 -0.2151
21381W        W37642   9.504   8.031   4.799 -0.0563 -0.2825 -0.1108
21382W        W37643  12.894   3.013   0.068 -0.1762 -0.4343  0.0497
21383W        W37644   7.259   3.524   4.977 -0.0176 -0.1759  0.1106
21384W        W37645   0.822  17.462   4.691 -0.1723  0.1026 -0.0651
21385W        W37646  10.619  12.366   0.153 -0.0086  0.0075 -0.1355
21386W        W37647  10.276   8.490   2.118  0.3735  0.1982 -0.1716
21387W        W37648   2.387   1.443  15.693  0.3496 -0.0207  0.2747
21388W        W37649   5.659   5.189   5.628 -0.0468 -0.1260  0.0832
21389W        W37650   3.683  10.622   5.069 -0.1229 -0.4535 -0.2292
21390W        W37651   1.421   0.002  15.470  0.1263 -0.0276  0.1138
21391W        W37652   8.591   8.655  12.720  0.0321 -0.0263 -0.1754
21392W        W37653  18.361  14.393   2.107 -0.1103  0.3064  0.0245
21393W        W37654  13.097  16.199  10.500 -0.4908 -0.1825  0.2133
21394W        W37655   0.894   4.848  13.491 -0.0946 -0.0205 -0.1032
21395W        W37656  10.924  17.494  15.020  0.0282  0.2263  0.0892
21396W        W37657  16.524   0.997   2.179 -0.0091  0.1338  0.0964
21397W        W37658  15.231  17.843  15.167  0.3152  0.1586  0.3810
21398W        W37659   5.957   0.667   2.838  0.0238  0.2424 -0.1523
21399W        W37660  11.630   3.675   3.560  0.2475  0.5151 -0.3462
21400W        W37661   7.441  12.430   3.562  0.2281 -0.0623 -0.1545
21401W        W37662  11.653  12.666  13.131  0.3472  0.1953 -0.0733
21402W        W37663   4.875   9.267   0.330  0.2208 -0.1535  0.1593
21403W        W37664   3.901   4.390  15.191  0.0651  0.0430 -0.2035
21404W        W37665   6.586   4.095   0.910  0.0113  0.0908  0.1938
21405W        W37666   3.271  15.810  12.458  0.1641  0.1222  0.1882
21406W        W37667   4.770   6.312  14.103  0.3738  0.0884  0.1022
21407W        W37668   1.419   9.551  12.346 -0.2020  0.2325  0.0206
21408W        W37669   4.187   6.772  15.420  0.1584 -0.4150  0.3085
21409W        W37670   4.658  12.026  11.374 -0.1454 -0.0285 -0.0594
21410W        W37671  11.451   5.384   3.700  0.0270 -0.0890 -0.3518
21411W        W37672  16.723  16.704  11.207  0.0599  0.1743 -0.3489
21412W        W37673   1.536   8.184   2.892 -0.1180  0.1709 -0.2528
21413W        W37674  11.991  16.474   0.176  0.0810 -0.0454 -0.0178
21414W        W37675   1.465   5.002  10.994  0.2054 -0.2379  0.2040
21415W        W37676   9.953  10.510   3.721  0.1459  0.1812  0.0996
21416W        W37677  11.153  17.357   0.950 -0.2329 -0.1119  0.1426
21417W        W37678  18.314  16.768  12.219 -0.0830  0.5319 -0.1440
21418W        W37679  15.916  11.462  15.433 -0.0817 -0.3751 -0.2884
21419W        W37680   6.542   7.537  11.365  0.2649 -0.2718 -0.4032
21420W        W37681  14.889   1.196   5.663 -0.1338 -0.3182  0.1049
21421W        W37682  14.349   7.948   0.251  0.0531 -0.1527 -0.0449
21422W        W37683  13.289   4.775   0.105 -0.0843 -0.1590 -0.1306
21423W        W37684   9.865   8.420  13.078 -0.0519 -0.0116  0.1266
21424W        W37685  11.611   5.271   0.273  0.1624  0.0492 -0.1031
21425W        W37686  15.861   0.384   3.881 -0.0487  0.0615  0.1758
21426W        W37687  16.605  16.466   2.660 -0.0819  0.0757 -0.1848
21427W        W37688   3.160   9.181  14.596  0.2250  0.0102 -0.2658
21428W        W37689   4.194   9.875   1.595  0.0860 -0.1634  0.3455
21429W        W37690  15.637   0.867  15.959  0.3312 -0.1841 -0.0090
21430W        W37691  11.178  12.657   3.121 -0.2908  0.2717  0.1769
21431W        W37692   9.336   6.563  13.811  0.0049 -0.0394  0.2667
21432W        W37693  15.709  17.639  13.371  0.1807  0.3291 -0.0372
21433W        W37694   8.539  11.011  14.201 -0.2101 -0.1914 -0.1108
21434W        W37695   8.006  10.375  14.831  0.2081 -0.5116 -0.0741
21435W        W37696   1.218   3.751   3.395 -0.1089 -0.3371  0.1956
21436W        W37697   1.716  11.104  11.660 -0.0665  0.2805  0.2347
21437W        W37698  17.784   8.225   1.369  0.0798 -0.3155  0.0060
21438W        W37699   5.623  14.656  11.970 -0.2355 -0.0067 -0.0732
21439W        W37700   2.605   8.137  14.046  0.1993 -0.1948  0.1320
21440W        W37701   3.925   6.973  12.272  0.0476  0.1527  0.2143
21441W        W37702  13.759  17.574   1.548 -0.1290  0.0027 -0.1533
21442W        W37703   1.491   3.214  11.463 -0.1152  0.1851 -0.0836
21443W        W37704  14.394   5.674  14.387  0.0475 -0.2151  0.0768
21444W        W37705  14.875   9.170   4.169  0.1129 -0.1273  0.0270
21445W        W37706   0.186   7.984   3.661 -0.1506 -0.3320  0.0419
21446W        W37707  17.303  16.626  14.507 -0.0619 -0.1585  0.1255
21447W        W37708  11.597   1.992  13.487  0.1981  0.0616 -0.0424
21448W        W37709   9.079  17.862   4.840 -0.2700 -0.0472  0.1776
21449W        W37710   5.523   6.705  14.501  0.2553 -0.0582  0.2233
21450W        W37711   4.372   7.393   3.154  0.1650  0.1711 -0.0694
21451W        W37712  16.826   2.526   5.190 -0.0218 -0.0018  0.0865
21452W        W37713   2.512   6.861  15.844 -0.0200 -0.0670 -0.0087
21453W        W37714   5.949  10.916   2.473 -0.0484  0.0436 -0.1963
21454W        W37715  13.182   1.712  11.852  0.0215  0.0000 -0.3054
21455W        W37716  16.557  11.512   3.730  0.1790 -0.0252 -0.1954
21456W        W37717  17.089   3.550   0.960 -0.0423 -0.2048  0.0152
21457W        W37718  11.133  11.245   5.886 -0.1068  0.3382 -0.0476
21458W        W37719  17.881  12.575  15.627 -0.0540  0.0435  0.1190
21459W        W37720  12.707  14.859   5.301  0.2856  0.1311  0.1582
21460W        W37721   5.120   7.725   1.910  0.0565 -0.0387  0.1359
21461W        W37722   0.982  16.585  13.485  0.0646 -0.1076 -0.4050
21462W        W37723  16.911  10.086   1.366  0.1501  0.1341 -0.1268
21463W        W37724   9.365  16.292   0.804  0.1803  0.2068  0.0391
21464W        W37725  17.767  17.073   0.503 -0.1106  0.3773  0.2265
21465W        W37726   2.351   4.344  15.007 -0.2608 -0.0861  0.2254
21466W        W37727   8.500  13.177   2.891 -0.0213  0.2373  0.1321
21467W        W37728  18.284   3.926   5.399 -0.1257  0.0933  0.0723
21468W        W37729   0.182   2.074  14.764  0.0454  0.0761  0.0118
21469W        W37730   3.548  15.833   1.353 -0.0459 -0.3290 -0.0093
21470W        W37731   1.865   0.750  15.954  0.1073 -0.0703  0.0041
21471W        W37732  15.080   5.168  11.655  0.2862 -0.2011 -0.1110
21472W        W37733  10.113   2.761   3.481 -0.3128  0.1327  0.3256
21473W        W37734  14.159   4.525   3.245  0.0380 -0.0508  0.0588
21474W        W37735  14.929   0.198   2.837 -0.0951  0.0553 -0.5416
21475W        W37736   7.231  15.426   0.870 -0.1138  0.1360  0.1381
21476W        W37737  16.084   1.290  15.122  0.1553 -0.0906 -0.2845
21477W        W37738   9.379  16.503  14.953 -0.1103  0.2010 -0.0674
21478W        W37739   5.195   8.902   0.701  0.1308  0.1997 -0.0610
21479W        W37740   3.519  15.000  11.344  0.2952  0.3605 -0.1047
21480W        W37741  13.226   6.089  12.965 -0.0036  0.0288 -0.0319
21481W        W37742  12.186   0.616   1.137 -0.0323  0.1276  0.2443
21482W        W37743   6.216  10.467   0.693  0.0183  0.2328 -0.3381
21483W        W37744  15.813  14.718   1.777  0.2101  0.3777 -0.2338
21484W        W37745  16.314  12.656  16.117 -0.1576  0.2111 -0.1534
21485W        W37746   4.957   8.132  14.866 -0.1257  0.2247  0.3321
21486W        W37747  10.041  13.037  10.271  0.4411 -0.3030 -0.1575
21487W        W37748  14.968  14.161  11.939 -0.0275 -0.1119 -0.1370
21488W        W37749  14.265   3.332  15.009 -0.1308 -0.2513 -0.1623
21489W        W37750   5.278   8.144   3.730  0.1724 -0.1814  0.0287
21490W        W37751   7.169   6.220   2.545  0.0356 -0.2435  0.3055
21491W        W37752   4.822  18.267  14.085 -0.0864 -0.0929 -0.2331
21492W        W37753   4.264   4.874   5.349 -0.1518  0.2687 -0.2072
21493W        W37754   0.524   9.981  14.710  0.4492  0.1355  0.0093
21494W        W37755  16.193   0.772  10.674  0.1222  0.1222  0.0565
21495W        W37756  16.761   7.032  14.541  0.2359  0.2000  0.2158
21496W        W37757  15.248   8.773  14.354 -0.1511  0.1842  0.0593
21497W        W37758   7.809   5.924  15.953  0.2769  0.4245  0.1974
21498W        W37759   1.319   2.682  11.126 -0.1573 -0.1281  0.2833
21499W        W37760   8.909   3.181   2.952 -0.2996  0.3529 -0.3843
21500W        W37761   4.772  13.150   3.545  0.0618  0.0136  0.1329
21501W        W37762   9.287   5.078   1.649  0.1244 -0.1353 -0.0781
21502W        W37763   4.339  12.100   3.998 -0.1609 -0.2601 -0.0256
21503W        W37764  18.384  11.808   3.804  0.0829 -0.2042  0.0884
21504W        W37765   7.669   2.437   1.576  0.1154 -0.3242  0.1298
21505W        W37766   9.053  13.611   0.904  0.0564  0.0810 -0.0946
21506W        W37767   9.526  16.880  14.680  0.0235 -0.0852 -0.0522
21507W        W37768   8.657   1.562  12.004  0.1837  0.0476  0.3563
21508W        W37769  17.213  12.083  14.816  0.0480 -0.0055 -0.1789
21509W        W37770   4.694   5.324  12.408  0.0487 -0.2158 -0.2861
21510W        W37771  11.465  16.121  10.744 -0.0844 -0.1221  0.5257
21511W        W37772   8.993   9.599  13.711 -0.1188 -0.0988  0.0096
21512W        W37773   8.710  16.021  12.449  0.1484 -0.1647  0.0409
21513W        W37774   4.826   8.598  15.513  0.0629 -0.1232  0.0513
21514W        W37775   2.785  15.832  11.620  0.0648 -0.2290  0.0447
21515W        W37776   3.819  18.096  15.523  0.0218  0.0938  0.3161
21516W        W37777  16.736  10.155  12.229 -0.2210 -0.3095 -0.0845
21517W        W37778  16.696   8.943  12.653 -0.3689 -0.3166 -0.1045
21518W        W37779  10.096  10.493  14.268 -0.2301  0.1086  0.0037
21519W        W37780   5.810  12.988  14.619 -0.1173 -0.0826  0.0136
21520W        W37781   2.306   1.085   3.600 -0.2047 -0.1096  0.1178
21521W        W37782  11.213   8.112  12.644 -0.0915 -0.0839 -0.1806
21522W        W37783  15.882  17.922   0.390 -0.0034  0.1264  0.3336
21523W        W37784  18.237   0.389  15.575  0.1763  0.1371  0.0685
21524W        W37785   0.309  13.917  14.578 -0.2113  0.2361  0.0634
21525W        W37786   7.824  13.245   3.356  0.1472 -0.0176 -0.4527
21526W        W37787  15.313  16.387   0.328  0.1052  0.0552 -0.3282
21527W        W37788   8.581   5.585   3.717 -0.0670 -0.0818  0.4053
21528W        W37789   1.444  12.776  11.688 -0.2092  0.0865 -0.4077
21529W        W37790   2.297   8.136   0.124  0.0192  0.0650  0.1563
21530W        W37791   2.336  17.890  16.004 -0.1783  0.1356  0.0332
21531W        W37792  17.937  14.340  15.963 -0.2196  0.1970  0.2654
21532W        W37793  10.335   0.343   4.071  0.3666  0.3177  0.0423
21533W        W37794   1.654   9.216  14.154  0.2063  0.2669 -0.0056
21534W        W37795  18.237   7.461  11.508  0.1174  0.2060 -0.1765
21535W        W37796   2.446  18.374   3.598 -0.0974  0.0932  0.1859
21536W        W37797   1.420   6.831   3.203 -0.2234 -0.2224 -0.1806
21537W        W37798   7.307   3.429   4.002 -0.2050 -0.2752 -0.0496
21538W        W37799  13.118   1.894   5.155  0.1044 -0.0770  0.0075
21539W        W37800  16.684   7.554  13.413 -0.2427  0.1414 -0.1437
21540W        W37801  13.510   5.862  13.811 -0.2084 -0.4557 -0.0037
21541W        W37802  16.951  10.721  11.359  0.1450 -0.0488 -0.1509
21542W        W37803  17.629  15.704   4.226 -0.2932  0.0836  0.6377
21543W        W37804   5.484   3.816   1.737 -0.1042  0.0157  0.0782
21544W        W37805   9.211   1.457   4.811 -0.2874  0.1413 -0.0288
21545W        W37806  17.970  13.586   4.506  0.0497  0.1854  0.1905
21546W        W37807  17.348  17.688  15.909 -0.1895 -0.2189 -0.2446
21547W        W37808   4.430   5.249  15.140 -0.0911 -0.0233  0.1348
21548W        W37809  13.519   5.812  12.127  0.0490 -0.1199 -0.3907
21549W        W37810   6.172  15.243  13.233  0.1332  0.0045  0.2555
21550W        W37811  10.215   7.588   3.930  0.0077  0.2547 -0.3714
21551W        W37812   0.415   1.056  14.094 -0.1663 -0.3996  0.1154
21552W        W37813  13.850   3.446  12.828  0.0594  0.1500  0.0421
21553W        W37814   6.186   4.570  14.337 -0.2071  0.1377  0.0381
21554W        W37815   3.389   7.616   1.621  0.0268  0.1531  0.2004
21555W        W37816  10.929   9.885  12.318  0.0616  0.1717  0.1317
21556W        W37817  15.295   0.073   4.461  0.0998 -0.0379 -0.0392
21557W        W37818  12.159   1.765  15.359 -0.0811 -0.1425  0.2521
21558W        W37819   1.392  16.544  11.775 -0.0495  0.0595  0.1254
21559W        W37820   6.415   9.069  13.089 -0.1420  0.1522  0.0647
21560W        W37821  10.342   1.117   5.132 -0.0464  0.0219 -0.1887
21561W        W37822   7.740   8.902   3.585  0.0361 -0.1639 -0.2624
21562W        W37823  10.567   6.376   5.819 -0.1732  0.2476  0.1665
21563W        W37824   4.754  13.260   4.750 -0.0864  0.0729 -0.0291
21564W        W37825  13.467  14.969   2.028  0.2840  0.0008 -0.2912
21565W        W37826   4.935   6.130   3.901 -0.3829 -0.1577 -0.1368
21566W        W37827   2.043   5.775   3.433  0.0655  0.0159  0.2065
21567W        W37828  17.659  16.739  10.575 -0.2024 -0.0198 -0.0575
21568W        W37829   7.539  16.085   2.633  0.1232 -0.0966 -0.1237
21569W        W37830   0.525  11.177  15.679  0.2563  0.1125  0.2429
21570W        W37831  12.850  16.425  12.258  0.2016  0.0056  0.1411
21571W        W37832   9.806   0.420   2.767 -0.0316 -0.0655  0.2252
21572W        W37833  18.387  10.194   0.484  0.1567  0.1038  0.0361
21573W        W37834  15.908   3.511   3.294  0.1929  0.5007  0.4276
21574W        W37835   7.491  13.605   4.110 -0.3228 -0.0465  0.1450
21575W        W37836  11.372  10.976  14.470 -0.3607  0.0161 -0.1761
21576W        W37837  14.339  17.563  14.595  0.0320 -0.0601  0.0121
21577W        W37838  14.686   1.589   2.142  0.1620  0.0035 -0.1755
21578W        W37839   1.694   1.308  12.677  0.1262  0.0564  0.0607
21579W        W37840  18.133  16.389  15.599 -0.3245  0.1891 -0.2802
21580W        W37841   2.542  12.513  15.014  0.1031 -0.2189  0.1310
21581W        W37842   0.197  16.740  10.964 -0.1810  0.4754  0.1145
21582W        W37843  13.438   7.048  11.719  0.0180 -0.3032  0.1743
21583W        W37844   6.360   5.028  12.924 -0.5458 -0.2617  0.4094
21584W        W37845  15.341   6.561  14.907  0.1940  0.1884 -0.0762
21585W        W37846   8.569  10.051  16.093  0.1495 -0.0459  0.0869
21586W        W37847  10.419   5.095   5.181 -0.0683 -0.0128 -0.1647
21587W        W37848  16.445  18.373  11.396 -0.0713 -0.0068  0.1683
21588W        W37849  16.625  14.684   0.800  0.0478  0.1297 -0.0695
21589W        W37850   0.006   5.517   1.992 -0.0598  0.2293 -0.0892
21590W        W37851  13.691   8.539  12.663 -0.1223 -0.1917 -0.2152
21591W        W37852  18.027  15.372  14.123 -0.3774 -0.1949  0.1152
21592W        W37853  13.391   9.790  12.617 -0.0135  0.1408  0.4398
21593W        W37854  15.108  16.422  12.426 -0.1488  0.4256  0.1758
21594W        W37855   6.084  17.368   2.737  0.2903 -0.1049  0.1098
21595W        W37856  17.557  13.989   4.436 -0.1262  0.2215 -0.0444
21596W        W37857  11.415  11.323   1.685  0.0665 -0.1708 -0.0960
21597W        W37858   3.906   4.856  14.670  0.1414 -0.0023 -0.2384
21598W        W37859   6.691   4.019   4.874  0.1987  0.1829 -0.0384
21599W        W37860  10.603   8.436  14.757  0.2028 -0.0267 -0.0255
21600W        W37861  14.523  13.753   2.893 -0.0615 -0.1762 -0.2601
21601W        W37862  12.337   8.753   2.522  0.0260 -0.0085 -0.0426
21602W        W37863  15.463  16.918  14.486 -0.1521 -0.0302  0.1704
21603W        W37864  11.462  16.515  13.949 -0.1644 -0.1232 -0.4293
21604W        W37865  14.167  10.027   1.792  0.5204 -0.1311 -0.2923
21605W        W37866  11.055  14.495   2.719  0.1919 -0.0559  0.0648
21606W        W37867  10.240   9.420   4.185 -0.1500 -0.1755  0.0022
21607W        W37868   1.160   4.558  11.059 -0.2674  0.0361 -0.3704
21608W        W37869   6.823  17.610   4.094  0.1851 -0.1629  0.1838
21609W        W37870   7.877  10.185   1.545 -0.3701 -0.1618 -0.0174
21610W        W37871   3.228  15.731   1.942  0.2289 -0.0591  0.1507
21611W        W37872   4.562   5.601   0.645 -0.0786 -0.0753 -0.4926
21612W        W37873  10.463  16.735  15.500  0.0871 -0.0540 -0.0312
21613W        W37874   9.790   7.362   2.392 -0.2059 -0.0394  0.1205
21614W        W37875   8.354  13.202   4.951  0.2448  0.2566 -0.2521
21615W        W37876   4.034   9.610   4.615  0.0583 -0.1500 -0.0161
21616W        W37877   3.457   3.604  15.475 -0.3043 -0.1285 -0.2867
21617W        W37878  11.574   3.784   1.720 -0.1630 -0.1153  0.0564
21618W        W37879  14.404  13.028   4.484 -0.0664 -0.1905  0.1176
21619W        W37880  15.432  14.337  11.758 -0.4166  0.1811  0.0189
21620W        W37881   7.278  10.978  13.346  0.2452 -0.3981  0.1847
21621W        W37882  10.398   4.916  12.828  0.3531  0.1554 -0.2757
21622W        W37883   4.667  10.664  13.264 -0.0284  0.0782  0.1708
21623W        W37884  11.560  11.525  12.210  0.0451  0.2430  0.3639
21624W        W37885   6.970  13.125  11.120  0.1298  0.2603 -0.2256
21625W        W37886   8.530  16.239  11.613 -0.3158 -0.1391  0.2274
21626W        W37887  15.629   6.320   2.690  0.0861  0.0422 -0.1714
21627W        W37888   6.678   3.297   3.419  0.0119  0.0963 -0.1608
21628W        W37889  15.789  17.200   4.396  0.0540 -0.0679 -0.0220
21629W        W37890  17.455  15.237   3.276  0.0772  0.2134  0.0232
21630W        W37891   6.637   1.976   4.620 -0.3696  0.3102  0.0834
21631W        W37892   3.104   8.926   0.221 -0.1107  0.0737  0.3645
21632W        W37893  15.367   0.379  11.557 -0.2243  0.1562 -0.2069
21633W        W37894   9.127   3.096  11.751  0.1211  0.0223  0.1855
21634W        W37895   4.382   9.506   0.167  0.0511  0.0821 -0.0431
21635W        W37896  10.064  16.655  13.473 -0.2182 -0.2297  0.2635
21636W        W37897   8.042   8.614   3.338 -0.3230  0.0478  0.1867
21637W        W37898   4.682  11.492   4.421 -0.0901 -0.0076  0.1097
21638W        W37899   8.923   7.877   1.270 -0.0530  0.1455  0.0348
21639W        W37900   3.348   4.974   6.696 -0.0767 -0.0643 -0.3580
21640W        W37901   1.310   3.875  14.299 -0.2181  0.1278  0.0694
21641W        W37902  13.432   3.045  16.183 -0.0510 -0.0487  0.0586
21642W        W37903  10.725   7.189   4.241  0.1319  0.0738  0.3909
21643W        W37904  15.086  10.437  15.931  0.0111 -0.2570  0.0035
21644W        W37905   5.901  10.108  14.906  0.3508 -0.0395 -0.1533
21645W        W37906  10.559  10.801  15.376 -0.4393 -0.1419  0.2869
21646W        W37907   8.212   9.952  12.541 -0.1146 -0.2371  0.0961
21647W        W37908   6.664   2.174  15.880 -0.0460 -0.3834 -0.1621
21648W        W37909  12.414  11.042  14.791 -0.0709  0.0808 -0.0514
21649W        W37910  11.409  11.770  13.370 -0.0391 -0.2016  0.0086
21650W        W37911   2.546   7.084   1.233  0.0649 -0.1953  0.0876
21651W        W37912   4.270  12.762  12.465  0.1497 -0.3048  0.2027
21652W        W37913  17.934   4.832   2.549 -0.3656  0.0666  0.1115
21653W        W37914   4.701   6.149  13.238 -0.3349 -0.3540 -0.1648
21654W        W37915   6.166   9.891  13.533 -0.0396  0.1215 -0.0274
21655W        W37916  18.200  14.945  14.536  0.2115 -0.2390  0.0973
21656W        W37917  18.144   2.147  15.039 -0.0550 -0.1128 -0.0721
21657W        W37918  15.166   7.012   0.474 -0.0263 -0.2333 -0.0252
21658W        W37919   8.190   0.491   5.143  0.2241 -0.1337  0.2011
21659W        W37920   5.361   9.298  15.113 -0.1999 -0.2307 -0.1628
21660W        W37921   0.431   6.578  15.037  0.2586  0.0070 -0.0858
21661W        W37922  15.302  14.813  15.854  0.0752  0.1878 -0.2450
21662W        W37923   7.860   6.331   0.269 -0.1086 -0.0956  0.1482
21663W        W37924  13.294  17.748   4.991  0.0414  0.2004  0.0276
21664W        W37925  10.082  12.221  16.108  0.2093  0.1136  0.1229
21665W        W37926  17.566  18.005  11.077  0.2978 -0.1950 -0.1135
21666W        W37927  10.973   4.555   2.547  0.1071 -0.2513 -0.1942
21667W        W37928  17.260   5.628  13.128  0.1630 -0.0379  0.1353
21668W        W37929   9.997  10.737   2.966  0.1778  0.1312  0.1378
21669W        W37930   7.463   0.701  16.108 -0.1178 -0.2288  0.1686
21670W        W37931  18.005   0.715  14.371 -0.0439 -0.0632 -0.4088
21671W        W37932  16.217   9.040  12.447  0.1696  0.2028 -0.2139
21672W        W37933   8.141   4.634   4.663  0.1640 -0.1738  0.0517
21673W        W37934  12.457  17.179  11.320  0.3502 -0.1276  0.4040
21674W        W37935  14.294  12.890   1.711 -0.0279  0.0735  0.0118
21675W        W37936  18.124  12.223   2.407 -0.1342  0.1807 -0.0169
21676W        W37937   9.118  17.552  15.960 -0.4213 -0.0475 -0.0480
21677W        W37938   2.297  12.817  16.127  0.4159 -0.1741  0.0022
21678W        W37939  15.429  14.433  10.204 -0.0164 -0.1096  0.0311
21679W        W37940   7.704   9.121   5.044 -0.0888 -0.1067  0.0707
21680W        W37941  13.150   7.185   0.522  0.2738  0.2018  0.2938
21681W        W37942  16.651   8.136  13.853  0.1184 -0.2873  0.0875
21682W        W37943   3.108  16.319   4.149  0.0420 -0.1070  0.1184
21683W        W37944   6.441  16.392  14.740 -0.3344 -0.2230 -0.1932
21684W        W37945   3.843  16.896  13.707 -0.0605 -0.1936  0.2921
21685W        W37946  11.421  11.485   0.615  0.1488 -0.2697  0.0516
21686W        W37947   7.461   2.985  14.557  0.1991  0.1124  0.1967
21687W        W37948   9.760  15.183   2.744  0.0023  0.1288 -0.0458
21688W        W37949   6.440   3.027  13.328  0.1177  0.1577 -0.3668
21689W        W37950   1.597  17.064   5.758  0.4687 -0.2289  0.0098
21690W        W37951   9.397   4.304   2.181  0.1882  0.1727  0.2807
21691W        W37952  18.127   3.666  15.122 -0.3596 -0.2534 -0.1460
21692W        W37953   1.858  13.674  15.803  0.2145  0.4218 -0.0369
21693W        W37954   1.266  12.700  11.247 -0.1906  0.1830 -0.1217
21694W        W37955   2.995  14.967  13.225  0.1612  0.2229  0.0090
21695W        W37956   1.787  14.146  13.533  0.1358  0.2587  0.0250
21696W        W37957  14.443   0.004  13.827  0.0082  0.0370 -0.0527
21697W        W37958  16.748  18.136   1.146  0.0745 -0.0561 -0.0949
21698W        W37959  14.270  10.204   4.426  0.0686 -0.1356 -0.1799
21699W        W37960   6.421   1.030  15.121 -0.1675  0.1379 -0.1972
21700W        W37961  13.065   8.789   4.085 -0.2399  0.0039 -0.0181
21701W        W37962   5.655  11.861   3.371  0.0551  0.1027 -0.0835
21702W        W37963  13.049  13.481   3.228  0.0700  0.0339 -0.0074
21703W        W37964   0.818   1.190  13.776  0.0055  0.0269 -0.1176
21704W        W37965   7.183  11.873  11.151 -0.1578  0.1763  0.1392
21705W        W37966   7.253   9.708   3.028 -0.0135 -0.3061 -0.0837
21706W        W37967  11.707   0.910  14.630 -0.2646  0.0915 -0.1769
21707W        W37968   7.226   7.959   3.751  0.1083  0.3570  0.0342
21708W        W37969   6.110   5.184   2.725 -0.0943  0.1750  0.1687
21709W        W37970  13.074  11.656  10.530  0.4819  0.1550  0.0563
21710W        W37971  17.146  14.564  12.249  0.0064  0.0528  0.0090
21711W        W37972  17.271   4.047   3.895 -0.0297 -0.0716  0.0314
21712W        W37973   8.773   5.327   4.141 -0.0410 -0.1665 -0.0312
21713W        W37974   5.029   6.443  13.637 -0.1490  0.0369  0.1429
21714W        W37975   6.077   6.680  14.456 -0.2563  0.1887  0.2642
21715W        W37976  15.753   3.882  11.645  0.0336 -0.2536 -0.1626
21716W        W37977   6.156   4.444   0.855  0.4014 -0.3990 -0.0683
21717W        W37978   3.626   1.235   2.943  0.0987 -0.0262  0.4868
21718W        W37979  17.630  14.570  15.140  0.2310 -0.0547 -0.4750
21719W        W37980   3.045   0.551   5.123 -0.0967 -0.0843  0.1791
21720W        W37981   5.799  16.959  14.717  0.1707  0.1804  0.1648
21721W        W37982   5.546  16.605   5.256  0.0101 -0.2495  0.0345
21722W        W37983  13.973   4.339   1.033 -0.2768  0.1245 -0.0160
21723W        W37984  10.626  15.333   2.697  0.1820  0.1071 -0.1461
21724W        W37985  13.671   1.260  13.109  0.3151  0.0192 -0.3263
21725W        W37986  10.068  15.546   0.930  0.0732  0.1745 -0.1460
21726W        W37987   3.237  12.343   0.106 -0.0363  0.2573  0.3241
21727W        W37988   0.599   5.058  14.426  0.2345  0.3468  0.1658
21728W        W37989   7.835  11.847   1.376 -0.1358 -0.0481  0.1400
21729W        W37990   0.554  12.953   2.637 -0.0139 -0.3593 -0.1855
21730W        W37991  13.045   4.960   4.350  0.0835 -0.1536  0.0500
21731W        W37992  16.249  16.308  14.445  0.3343 -0.1745 -0.0603
21732W        W37993  16.963  11.592  14.860 -0.0416  0.2609  0.4593
21733W        W37994   3.267   3.217   2.506 -0.2454  0.4915  0.4782
21734W        W37995   4.619   8.798  14.580 -0.0832  0.0534 -0.2189
21735W        W37996   6.180  14.281   2.914  0.0078  0.0686  0.0773
21736W        W37997   1.101   2.391  14.524 -0.3782  0.0695  0.2061
21737W        W37998   4.384  16.999   2.049 -0.2973 -0.0057 -0.0271
21738W        W37999   0.311   0.409   2.178  0.0574 -0.3840 -0.0461
21739W        W38000  18.063   5.568   3.168  0.2126 -0.0215  0.3220
21740W        W38001  16.424   1.063  11.534  0.0240 -0.0836 -0.1320
21741W        W38002   3.656  17.206  12.433  0.0138 -0.0088 -0.1224
21742W        W38003   4.438   0.178   4.209  0.0477  0.0544  0.3153
21743W        W38004  13.953   2.188   1.458  0.3202  0.2818  0.0829
21744W        W38005  16.126  15.302   0.041 -0.2445 -0.0342  0.0372
21745W        W38006   3.425   6.963   6.031  0.1902 -0.3219  0.1004
21746W        W38007  11.744   1.988  11.495  0.0419  0.2261 -0.1670
21747W        W38008   0.304  15.569  15.894  0.1373 -0.2567  0.0370
21748W        W38009  15.811  17.330   4.969  0.1348  0.1290  0.1368
21749W        W38010  12.597   4.643  13.518  0.2685 -0.2122 -0.3079
21750W        W38011  11.656  16.424   5.352 -0.0034 -0.2049 -0.1198
21751W        W38012   9.359  17.651  13.099  0.2652 -0.0609 -0.3795
21752W        W38013   5.180   9.100   4.276 -0.3859  0.2058 -0.1345
21753W        W38014  12.911  16.702   5.347 -0.2226  0.2739  0.1177
21754W        W38015   5.333  16.202  15.561 -0.3553  0.1598 -0.0402
21755W        W38016   2.182  10.896   4.662 -0.1672  0.1839  0.1244
21756W        W38017  10.609  17.289  14.071 -0.0337  0.0119  0.0022
21757W        W38018  17.457   1.235  11.466  0.0876 -0.0339  0.0712
21758W        W38019  14.942   1.842  15.498  0.1145 -0.0677 -0.0718
21759W        W38020   5.668  13.534   5.830  0.0463 -0.2013 -0.0020
21760W        W38021   8.990   7.309   4.897 -0.0234  0.0887 -0.3823
21761W        W38022  15.374  18.363  11.591  0.1787  0.1987 -0.0929
21762W        W38023   7.460  12.931   4.579 -0.0269  0.1194 -0.0555
21763W        W38024   8.472  18.280   3.667  0.1566 -0.5466  0.3196
21764W        W38025  13.422  15.050  16.169 -0.2211 -0.2951 -0.0847
21765W        W38026   3.178  12.543   3.277 -0.0329  0.1976 -0.0127
21766W        W38027  12.737   2.659   4.289  0.1217 -0.2205 -0.2726
21767W        W38028   9.433   1.913  14.982  0.0916  0.2005 -0.0466
21768W        W38029   8.268   4.943   1.792  0.2149 -0.0953  0.0440
21769W        W38030  13.239  11.013   1.678  0.1026  0.2918 -0.1846
21770W        W38031  16.407   9.563   4.343 -0.2213  0.0012 -0.0037
21771W        W38032  11.311  10.365  15.053  0.0560 -0.3004 -0.1092
21772W        W38033  12.889  13.141  11.704  0.1616  0.0036  0.0402
21773W        W38034  12.495  10.770   0.769  0.0933  0.3326  0.5834
21774W        W38035   5.401  10.115   5.694  0.1471  0.3018  0.3915
21775W        W38036  14.395  10.402  12.350  0.1642  0.0885  0.0112
21776W        W38037  13.043   4.160  12.858 -0.1414 -0.1262 -0.1022
21777W        W38038  11.971   5.512   0.527  0.1950  0.0860  0.2350
21778W        W38039   4.023   2.432  11.942 -0.2550 -0.0266 -0.0852
21779W        W38040  16.843   7.815  14.264 -0.0495  0.4154 -0.0213
21780W        W38041   7.277  16.946  13.663 -0.1412 -0.3328  0.0201
21781W        W38042   7.486  17.685  15.788 -0.0991 -0.1172  0.0330
21782W        W38043   1.546   8.371   4.009  0.2426 -0.1225 -0.0516
21783W        W38044  11.834   6.966   1.901  0.0242  0.2043 -0.3553
21784W        W38045  14.561   7.770  11.112  0.2036 -0.2610 -0.1068
21785W        W38046   2.508   1.353   0.669 -0.1048 -0.0421  0.0648
21786W        W38047  17.053   8.787   3.122  0.0088  0.1621 -0.3191
21787W        W38048  14.436   8.202  14.313  0.0229 -0.1568  0.0652
21788W        W38049   7.782  13.210  15.863  0.3199  0.0435  0.1870
21789W        W38050   7.819  12.792  11.937  0.2493  0.3352 -0.0561
21790W        W38051  16.266   0.104   4.635 -0.2160  0.0343  0.5490
21791W        W38052  10.289   0.849   3.856  0.3793 -0.0895  0.0371
21792W        W38053   8.926   4.774   4.226  0.0082  0.1805  0.1244
21793W        W38054   3.779   8.482  15.628  0.2095 -0.0640 -0.0490
21794W        W38055  14.896  17.474   2.220 -0.1779 -0.3426  0.2067
21795W        W38056   8.654  10.434  11.278  0.1095  0.2359  0.1422
21796W        W38057   2.385  10.712  14.793  0.2168  0.2042 -0.2604
21797W        W38058   0.099  17.727   3.008 -0.1532  0.0583 -0.0174
21798W        W38059  13.326   6.172  16.184  0.3437 -0.0496 -0.1819
21799W        W38060   0.866  16.462   3.159 -0.2119 -0.5437  0.1191
21800W        W38061  14.163  15.672  11.859 -0.2791 -0.0684 -0.2798
21801W        W38062  15.838  14.151  10.370  0.2014  0.0666  0.0931
21802W        W38063   0.835   8.865   2.149 -0.0265  0.0533  0.1294
21803W        W38064   3.142   7.643  11.238 -0.1420  0.2614  0.1063
21804W        W38065  16.611   5.804  14.780 -0.0509  0.0292 -0.1424
21805W        W38066  13.904   1.096  11.803  0.2932  0.2531 -0.0400
21806W        W38067  10.437  12.715  14.286  0.2807 -0.2690 -0.1810
21807W        W38068  13.755   6.516  15.949 -0.1431  0.1254  0.1563
21808W        W38069  15.280  16.441  14.637  0.1863  0.1827  0.1282
21809W        W38070  11.482  17.155   1.371  0.1795 -0.3591  0.0157
21810W        W38071  12.368  17.579  12.738 -0.1399 -0.0099  0.1983
21811W        W38072   9.505  15.976   3.652  0.2062 -0.1065  0.2007
21812W        W38073   5.736  10.531   3.261  0.0446  0.0541 -0.0846
21813W        W38074   0.929  16.618   3.713 -0.0268 -0.1528 -0.4057
21814W        W38075  11.671  10.357  14.674  0.0708  0.0650 -0.1782
21815W        W38076  11.161   2.309   0.362  0.1003  0.1641 -0.1991
21816W        W38077   6.993   5.585   3.483 -0.1457  0.2205 -0.2795
21817W        W38078   7.751   3.566  15.742  0.1113 -0.1325  0.3061
21818W        W38079  14.164   9.957   1.221  0.0323  0.1071  0.1442
21819W        W38080   2.566  15.984   5.008  0.1035 -0.0081  0.0050
21820W        W38081  13.990   8.408   6.009  0.1069 -0.3469  0.2458
21821W        W38082   8.943   2.422  15.289 -0.0023 -0.0985  0.1836
21822W        W38083  13.732   5.370  12.025  0.1090 -0.3936  0.2346
21823W        W38084   8.075   6.993   3.540 -0.1841 -0.3566 -0.3345
21824W        W38085  12.285  17.451  10.593 -0.1461  0.2403 -0.1010
21825W        W38086  11.560  11.922  14.364  0.1626  0.1371 -0.5284
21826W        W38087   7.451   9.906   0.573 -0.0747  0.2788 -0.0451
21827W        W38088  13.776   9.587   5.013 -0.0571 -0.0260  0.0288
21828W        W38089   6.467   2.680   3.930 -0.0208  0.3080  0.1326
21829W        W38090   3.290   9.500  11.913 -0.0318  0.1309  0.4386
21830W        W38091  11.138  10.148   2.563 -0.0192  0.1380 -0.1894
21831W        W38092   9.648  10.865  13.593 -0.0603  0.0226  0.0829
21832W        W38093  18.329   1.981   5.440  0.1661  0.2321 -0.2421
21833W        W38094   6.268  11.061   1.091  0.0849  0.3369  0.4441
21834W        W38095  13.039  10.226  13.572  0.1456 -0.2228  0.1370
21835W        W38096   3.367   9.641   1.415 -0.0027 -0.0136 -0.1417
21836W        W38097   2.419   2.718   1.600  0.1891 -0.0749  0.0667
21837W        W38098   7.846   1.002   5.658  0.0425  0.0744 -0.0567
21838W        W38099  17.097  15.206   1.062 -0.0156 -0.0551  0.0567
21839W        W38100   9.421   8.409  11.459 -0.1590 -0.0800  0.1832
21840W        W38101  12.163   4.421  14.026 -0.3347  0.1867 -0.0467
21841W        W38102   1.465   5.162  14.577 -0.0992  0.0144 -0.1702
21842W        W38103   4.628   9.982  12.596  0.1946 -0.1972  0.0725
21843W        W38104  12.073  11.035   4.911  0.1163  0.0419 -0.0299
21844W        W38105   1.965   2.661  13.620  0.0324  0.0177 -0.2768
21845W        W38106  15.697   3.482   1.446 -0.1820 -0.0422 -0.1362
21846W        W38107   2.266   9.064  11.868  0.2541 -0.2166  0.3994
21847W        W38108  10.701   6.622  13.435 -0.0450  0.1548  0.2301
21848W        W38109  13.224  18.346  14.232  0.2298  0.2167  0.4175
21849W        W38110   2.180   9.811  12.484  0.2140 -0.0679  0.1499
21850W        W38111   2.165  11.193  13.907 -0.1076 -0.0108 -0.4085
21851W        W38112   6.512  13.154  11.362  0.0025  0.1320  0.2829
21852W        W38113   2.809   7.421  14.018 -0.0236  0.0954 -0.1655
21853W        W38114   9.304   3.299   1.117  0.3477 -0.1940  0.0930
21854W        W38115   9.409  15.573   0.107  0.0481 -0.4418  0.0592
21855W        W38116   1.347  15.796   6.022  0.0489 -0.2205 -0.2444
21856W        W38117  14.441   6.061  13.990 -0.0835 -0.0561  0.1235
21857W        W38118   6.539  17.530   3.490 -0.1423  0.0866  0.0412
21858W        W38119   1.142   8.744   1.130  0.1410  0.2598 -0.3248
21859W        W38120  11.903  17.878  12.949  0.1576 -0.1129 -0.1467
21860W        W38121  11.116   0.056  15.675  0.1034 -0.0321 -0.0302
21861W        W38122  18.258  17.934  15.874  0.0751 -0.0323  0.3565
21862W        W38123  16.923   9.696   3.640 -0.3689  0.0898 -0.2467
21863W        W38124   4.566   9.464   2.462 -0.0208 -0.4068  0.0714
21864W        W38125  15.530   7.902   1.909  0.1048  0.0804  0.2852
21865W        W38126   1.409   0.796   4.493 -0.2533  0.2432  0.0582
21866W        W38127   5.954   3.935  14.460  0.1739  0.2369 -0.1033
21867W        W38128   2.521   4.335   3.378  0.1568 -0.0913 -0.0453
21868W        W38129   5.057  12.725   3.410  0.0315 -0.0640  0.1087
21869W        W38130  13.430  11.899  16.137  0.2283 -0.2308 -0.1916
21870W        W38131   7.401   2.669  15.911  0.2788 -0.1400 -0.0178
21871W        W38132   4.337   4.473   3.872  0.1319 -0.0980 -0.0551
21872W        W38133  16.756   8.149   0.282 -0.4932 -0.0117 -0.1778
21873W        W38134   2.219   3.745   5.322  0.4374 -0.0685  0.0051
21874W        W38135  12.921   2.220   5.492  0.0357 -0.1197  0.1069
21875W        W38136   2.120  10.101   2.844 -0.4886 -0.2203 -0.2382
21876W        W38137   9.141  10.709   4.854  0.2282  0.0052 -0.0954
21877W        W38138   6.714   6.494   2.288  0.0841  0.2408 -0.2755
21878W        W38139   6.234   2.155   6.220 -0.4282  0.3331 -0.2081
21879W        W38140   1.002   5.622   3.644  0.0892 -0.0801  0.0572
21880W        W38141  16.314   7.771   0.003  0.1454 -0.1921 -0.4494
21881W        W38142  13.547  16.886  12.669  0.5679 -0.2837  0.4214
21882W        W38143  15.252   9.453   2.240 -0.1162  0.0703  0.0529
21883W        W38144   1.373   0.586   5.003  0.1401 -0.3676  0.0063
21884W        W38145  17.872   5.252   0.229 -0.0609  0.1560 -0.0393
21885W        W38146  18.345   7.589   1.659  0.1414  0.0767 -0.0713
21886W        W38147  14.170   5.486  11.731  0.3042  0.3063 -0.3512
21887W        W38148  12.192  15.267   5.548  0.1414 -0.2625 -0.0920
21888W        W38149  15.244   6.085  12.891  0.2119 -0.1111 -0.0003
21889W        W38150   8.386   6.256  14.696  0.0456 -0.1350 -0.0678
21890W        W38151  15.005   0.803   3.834 -0.2226 -0.0865  0.4284
21891W        W38152  17.553   0.910   0.688  0.1157 -0.1637 -0.3594
21892W        W38153  17.073   5.185   2.138  0.0119  0.1454  0.0444
21893W        W38154   3.671   8.139  16.047  0.2155  0.2611 -0.3466
21894W        W38155   6.285   0.432   0.956 -0.0076 -0.2256 -0.0675
21895W        W38156   8.835   0.933   0.596 -0.1004  0.0817 -0.0604
21896W        W38157  15.191  13.119  14.487  0.1814  0.0303 -0.0526
21897W        W38158  15.365  15.665  10.022  0.2781 -0.2647 -0.3938
21898W        W38159   4.108   4.740   2.474  0.2813 -0.0857 -0.2895
21899W        W38160  15.822   5.288   3.724 -0.1669  0.1811 -0.0485
21900W        W38161  16.158   6.237   2.768  0.2613 -0.1404  0.2562
21901W        W38162   1.829  18.309  11.999 -0.3509  0.1855  0.0011
21902W        W38163   4.300   2.960   3.792  0.0396 -0.1396 -0.0594
21903W        W38164  16.822   5.990  15.765 -0.1157 -0.0331 -0.0907
21904W        W38165  11.503   9.813  13.308 -0.0620 -0.2581 -0.0399
21905W        W38166   1.759   8.563   0.237 -0.2363 -0.0673  0.2737
21906W        W38167  15.678   1.432   1.097 -0.2089  0.1415 -0.0760
21907W        W38168   4.780   3.380  15.697  0.0651 -0.5028 -0.2593
21908W        W38169   8.340  15.801   3.317  0.0196  0.0797 -0.3946
21909W        W38170   1.420   5.283   2.010 -0.0044  0.1701  0.0592
21910W        W38171   2.040   0.535  13.110 -0.0156 -0.0988 -0.0349
21911W        W38172  10.216  14.894   2.503 -0.2617  0.1004  0.2731
21912W        W38173   6.944  15.164  16.044 -0.1304 -0.1606  0.0219
21913W        W38174   9.333  12.580  13.083  0.0521  0.1991  0.0046
21914W        W38175  11.560  13.498  14.931  0.1460 -0.0500 -0.1774
21915W        W38176   1.307   9.816  13.749 -0.4241  0.1929 -0.0046
21916W        W38177  13.857  16.885  15.416  0.2557  0.0722 -0.2284
21917W        W38178  11.014  11.723  12.273  0.2569  0.2374 -0.2160
21918W        W38179  11.720  15.559   4.363 -0.1531 -0.0518 -0.1539
21919W        W38180   2.704   0.641   1.074 -0.0187  0.0911 -0.0515
21920W        W38181   4.650  14.293  12.175 -0.1423  0.0313 -0.1420
21921W        W38182   0.321   2.115   4.120 -0.1546 -0.1042 -0.1697
21922W        W38183  15.661  11.428   5.149 -0.2789 -0.0053 -0.1705
21923W        W38184   2.301   5.422   2.541 -0.0769  0.0103 -0.1129
21924W        W38185   6.716   1.472   4.882 -0.0324  0.2870  0.1182
21925W        W38186  11.140  13.476   2.616  0.1556 -0.1890 -0.1973
21926W        W38187   6.559  13.004  16.093 -0.0277  0.1527  0.1625
21927W        W38188  13.731  15.680   1.409  0.1450  0.0394 -0.0660
21928W        W38189   3.588  14.817  14.136 -0.1123 -0.1488 -0.0110
21929W        W38190  17.654  11.288   0.377 -0.0186  0.2722  0.0035
21930W        W38191  15.547   9.938   4.910  0.3128 -0.4238  0.0815
21931W        W38192   9.962   6.618  13.296  0.1541  0.0432  0.0336
21932W        W38193   3.287   3.887  13.012  0.0852  0.1568  0.2180
21933W        W38194  17.282   8.202   0.395 -0.2351  0.1133 -0.0491
21934W        W38195   3.106   1.962   0.867  0.3042 -0.1249 -0.0416
21935W        W38196  16.440   6.657  12.551  0.3171  0.1836 -0.1229
21936W        W38197   1.217   8.439   4.371 -0.0674  0.3383 -0.1412
21937W        W38198  12.550   1.293   5.589 -0.2978 -0.0488 -0.1424
21938W        W38199   5.993  10.344  13.640 -0.5646  0.2016 -0.0069
21939W        W38200   0.157   6.316   3.799  0.1494 -0.2364  0.0652
21940W        W38201  11.731   6.269   3.433 -0.0022  0.0725  0.0428
21941W        W38202   3.343   7.165  14.002  0.0911  0.0541 -0.2372
21942W        W38203   9.946   1.364   3.939  0.2548  0.0702  0.1427
21943W        W38204  13.710  17.271   1.945 -0.2684 -0.0591  0.2117
21944W        W38205  16.300  18.189  14.695 -0.2130  0.1685 -0.2101
21945W        W38206   7.745  10.493   4.691  0.0036 -0.0755 -0.2918
21946W        W38207   4.369   0.777   1.452 -0.1295 -0.2690 -0.0379
21947W        W38208  17.526   0.588  11.989  0.0031  0.1250  0.0420
21948W        W38209  13.006  10.124   1.940 -0.0983  0.5318 -0.1529
21949W        W38210  17.551   3.110  12.648 -0.1986 -0.2533  0.0221
21950W        W38211   7.129   2.434  14.518  0.0113  0.0613 -0.1030
21951W        W38212  13.438  12.135   3.463 -0.2944  0.0016  0.2811
21952W        W38213  11.778   4.915  15.775 -0.4246  0.2334  0.2587
21953W        W38214  11.684  10.935   3.690  0.1242 -0.5574  0.1467
21954W        W38215  10.580   7.664  11.076 -0.1607  0.4209 -0.1570
21955W        W38216  10.324   8.828  14.671 -0.2018  0.2048 -0.0206
21956W        W38217  13.128  11.246  10.936 -0.3367  0.0897 -0.0539
21957W        W38218   3.074   6.268   0.412  0.1205 -0.0771  0.1022
21958W        W38219  17.265   3.081   5.074  0.0980 -0.4161 -0.0121
21959W        W38220  16.663  13.491  11.507  0.5375 -0.2787  0.2940
21960W        W38221   4.698  13.575  12.976  0.0921  0.1003  0.0871
21961W        W38222   9.153  16.307  13.631  0.0383 -0.0202 -0.0759
21962W        W38223  12.654   4.158   2.834 -0.0123 -0.3452 -0.0182
21963W        W38224  17.041  10.645   2.512 -0.1414 -0.0184  0.0697
21964W        W38225   4.985  15.980  12.551 -0.0452 -0.2272 -0.1044
21965W        W38226   8.987   2.025  11.717  0.0147  0.0798  0.1199
21966W        W38227   4.626  12.483   4.197 -0.0077  0.0072  0.1057
21967W        W38228  14.609  11.430   1.932 -0.2924 -0.3763  0.1352
21968W        W38229  11.263  13.737   5.366  0.2897  0.0957  0.3545
21969W        W38230   9.600  17.552  11.172 -0.1138 -0.1170 -0.1224
21970W        W38231  16.000   7.708  15.358  0.0083  0.2371  0.0238
21971W        W38232   6.083   5.409   5.483  0.1955 -0.2123 -0.1734
21972W        W38233  12.439   2.439   3.956 -0.2802  0.4799 -0.0970
21973W        W38234   2.328  10.725  15.611 -0.2689  0.0393  0.1693
21974W        W38235   6.696  10.510  15.257  0.0317 -0.2188  0.0853
21975W        W38236   0.324  16.669  14.117  0.2485 -0.0408  0.0543
21976W        W38237   5.336   0.382  13.518 -0.1833 -0.1639 -0.2622
21977W        W38238  12.566  12.501  10.360  0.1829  0.2537  0.1849
21978W        W38239  11.824   6.238  13.900  0.1475  0.3201  0.0238
21979W        W38240  16.051  16.178  15.882  0.5390 -0.2677  0.0325
21980W        W38241  10.245  18.111  14.502  0.4006  0.1172 -0.0076
21981W        W38242   8.448  14.601   4.579 -0.1741  0.3591  0.0395
21982W        W38243   5.557  10.023  14.577  0.0740 -0.0949 -0.1802
21983W        W38244  14.171   6.876   1.429  0.1852 -0.1044  0.2123
21984W        W38245  13.085  15.213  15.887  0.2715 -0.0044 -0.1147
21985W        W38246   2.131  16.388   5.697 -0.0666  0.0124  0.0217
21986W        W38247   4.944   4.879  14.007  0.1387 -0.1207  0.1257
21987W        W38248  16.163  15.301  13.500 -0.0931 -0.3182  0.1719
21988W        W38249  17.390  12.677  12.393 -0.1858 -0.0054  0.3154
21989W        W38250   6.664  10.697   4.285 -0.1168  0.3923  0.0050
21990W        W38251   6.994   4.023  12.443 -0.1370  0.2888  0.2220
21991W        W38252  12.245  13.605   3.419 -0.0921  0.0410  0.0506
21992W        W38253  10.934  13.414   1.381  0.4072  0.0959 -0.1957
21993W        W38254  18.324  11.269  14.328 -0.3160  0.0368  0.0472
21994W        W38255   4.457  16.497  12.163 -0.0669  0.0961  0.0320
21995W        W38256   3.916  13.897  12.497  0.2144  0.0269  0.1273
21996W        W38257   7.062  10.896   2.040 -0.1794 -0.0287  0.2017
21997W        W38258  14.905  15.702   4.274 -0.1068  0.1507 -0.0856
21998W        W38259   0.273   4.469  11.836  0.1826 -0.1898 -0.2509
21999W        W38260  12.126  15.377   3.948 -0.0911 -0.1162 -0.0312
22000W        W38261  10.233  18.296   4.560  0.2522 -0.0086  0.1166
22001W        W38262  10.708   2.123  14.955 -0.2217 -0.0600  0.0804
22002W        W38263  14.385  15.030   1.502 -0.0811 -0.0011 -0.2401
22003W        W38264  10.492   2.238   2.189 -0.1411  0.1010  0.3711
22004W        W38265  16.680  12.828  14.028  0.0933 -0.4158 -0.2475
22005W        W38266  10.772   3.327   4.544 -0.0436 -0.1765  0.1260
22006W        W38267   6.081   3.816  13.945  0.0012 -0.0370 -0.0661
22007W        W38268   0.803   6.024   2.265 -0.2693  0.0587 -0.1161
22008W        W38269  14.794  12.795   1.566 -0.0481  0.1315 -0.0991
22009W        W38270   9.642  12.917   5.151  0.0271  0.0398  0.2685
22010W        W38271   5.397  12.018   1.203 -0.1651 -0.0415  0.0531
22011W        W38272  18.107  13.760   9.794  0.0772 -0.1215  0.1696
22012W        W38273  12.676  14.093   1.184  0.0926  0.0146  0.1452
22013W        W38274   3.825   0.432   3.250 -0.4060 -0.0921 -0.1087
22014W        W38275   2.241  17.257  14.085 -0.1793 -0.0369  0.3456
22015W        W38276   9.451  11.772   2.115  0.0870  0.3548 -0.0840
22016W        W38277   3.498   8.778  16.004 -0.0415 -0.1046 -0.0294
22017W        W38278   5.459   1.846   1.282 -0.0154  0.0862 -0.0127
22018W        W38279  14.743   2.806  16.127 -0.2399  0.1487  0.3600
22019W        W38280   6.567   3.322  12.501 -0.0514 -0.0361  0.0915
22020W        W38281  10.748  15.436  14.314 -0.2511  0.0951  0.1557
22021W        W38282   3.877   4.778   1.528  0.0493 -0.1264 -0.0425
22022W        W38283  15.884  11.483   2.911 -0.1364  0.1684  0.0301
22023W        W38284   2.121  17.803   2.616 -0.3731 -0.3776 -0.3567
22024W        W38285  13.587   7.893  11.459  0.1347 -0.1088  0.1451
22025W        W38286   0.531  12.669   5.120 -0.1418  0.6768 -0.0541
22026W        W38287  18.010  13.325  11.261  0.1246 -0.2678 -0.1076
22027W        W38288  18.473  16.210  11.031 -0.1547  0.1121  0.1333
22028W        W38289  10.376   7.285  13.718 -0.4946  0.2670 -0.2082
22029W        W38290  14.276  12.518  11.608 -0.2176  0.1126  0.1645
22030W        W38291  12.709   1.383  12.456  0.2065  0.1934 -0.0610
22031W        W38292  16.369  17.684  14.958 -0.3524 -0.0217 -0.3584
22032W        W38293  14.429  15.095   4.484 -0.2371 -0.2404  0.0631
22033W        W38294   5.755  13.381   2.549 -0.0253  0.0707 -0.3895
22034W        W38295  15.310   9.052   1.862  0.2722  0.0705  0.0990
22035W        W38296   9.302  10.929  11.717 -0.0074 -0.2220 -0.0149
22036W        W38297  18.064  17.757   2.378  0.1130 -0.2126 -0.0543
22037W        W38298  17.675  10.989  15.504  0.3497  0.0536  0.0862
22038W        W38299   4.036   8.347  13.553 -0.0840  0.0016 -0.4589
22039W        W38300  13.998   4.072   4.996  0.0643  0.1271 -0.0702
22040W        W38301   9.630  10.719   4.869  0.0642 -0.0480  0.1447
22041W        W38302   1.228   2.384  15.890 -0.0303 -0.2259  0.1264
22042W        W38303   7.631   6.822  15.785 -0.3244  0.3227 -0.1830
22043W        W38304  18.362  17.998  12.357  0.0608 -0.1829 -0.1810
22044W        W38305   3.132   2.568  15.409 -0.0198  0.2229 -0.2147
22045W        W38306   5.886  13.305  11.901 -0.0391 -0.0630 -0.2511
22046W        W38307   9.886  11.321   0.001 -0.1079 -0.3255  0.1767
22047W        W38308  11.927   6.482   5.334 -0.0963 -0.0908  0.1443
22048W        W38309  16.521   8.496   4.252  0.0666  0.1726  0.1044
22049W        W38310   6.133  14.175   1.812 -0.0473 -0.0232  0.0400
22050W        W38311  10.167  17.626   5.337  0.0188  0.1162  0.2823
22051W        W38312   0.098  15.163  14.251 -0.2557 -0.1305  0.3074
22052W        W38313   4.646  17.075  12.632 -0.1069 -0.1351  0.2128
22053W        W38314   7.479   8.565  16.153 -0.0285  0.2297  0.0638
22054W        W38315  13.894  14.662  14.296  0.1187 -0.0726 -0.2510
22055W        W38316  11.220  11.499  11.356 -0.5088  0.2249  0.1473
22056W        W38317  17.910  11.209  11.202  0.0134 -0.0163  0.1172
22057W        W38318  14.832  15.835  15.357  0.0602  0.1744 -0.0848
22058W        W38319  13.089   3.964   5.035 -0.1689  0.3523 -0.1212
22059W        W38320  15.139   4.540   3.622 -0.0591 -0.2439  0.2530
22060W        W38321   4.309  13.027   0.908  0.1980 -0.0214 -0.1942
22061W        W38322   8.473   1.840   3.110  0.1513  0.1288  0.2387
22062W        W38323  11.273  10.370   5.389  0.1858  0.1853  0.1960
22063W        W38324   6.414   4.647   0.358  0.1292  0.0766  0.0402
22064W        W38325   9.847   8.850  15.800 -0.1328 -0.2183 -0.2255
22065W        W38326   4.982   5.942  13.753  0.2882 -0.1747 -0.2896
22066W        W38327  15.516   9.700  11.008  0.1804  0.3985  0.2346
22067W        W38328  16.231   0.152  11.760  0.0766  0.3933 -0.2909
22068W        W38329  14.650   4.140  14.984  0.1543  0.1341 -0.4011
22069W        W38330  14.513   0.248   1.596  0.2027 -0.2443  0.0946
22070W        W38331  11.285   2.926   4.427  0.2122 -0.1265 -0.0028
22071W        W38332   8.469   6.470   6.352  0.1144  0.1592 -0.1381
22072W        W38333   8.372   5.044  11.806 -0.2186  0.2021  0.0906
22073W        W38334   9.553   8.058   0.579 -0.2449  0.1428  0.0244
22074W        W38335   1.225  12.471  15.296 -0.1323 -0.2207 -0.0316
22075W        W38336   3.827   2.834   5.028 -0.3852  0.0113 -0.0827
22076W        W38337  15.447   1.062  15.222 -0.2441 -0.0906 -0.2513
22077W        W38338   1.000   5.431  14.599  0.0930 -0.0044  0.1063
22078W        W38339  11.777   2.754   1.557  0.0245 -0.0182  0.2243
22079W        W38340   5.435  10.404  14.830 -0.1260 -0.1797  0.1806
22080W        W38341   5.577  10.022  15.790 -0.0504 -0.1591  0.1437
22081W        W38342  13.750  10.692   0.245 -0.2930 -0.0369  0.0410
22082W        W38343   3.986   5.430   4.730 -0.2226 -0.4899  0.1109
22083W        W38344  13.407  12.549   1.747 -0.4579  0.1043  0.4002
22084W        W38345   5.545  17.539  15.933 -0.1858  0.2403 -0.1080
22085W        W38346   5.755  12.796  12.537  0.1209  0.0300  0.2021
22086W        W38347   1.962   7.608   1.064 -0.1320 -0.2915  0.0197
22087W        W38348   6.086   6.143   4.632 -0.2037  0.2485  0.0326
22088W        W38349  11.883   2.371   2.881  0.1719 -0.0742 -0.2367
22089W        W38350   3.643  11.835  15.878 -0.1210 -0.0561 -0.4004
22090W        W38351   1.028   0.050   1.219  0.3680  0.1111  0.5438
22091W        W38352   0.170  14.265  13.669 -0.1849  0.3054 -0.0689
22092W        W38353  17.009  12.187  14.360 -0.2467 -0.2396 -0.0110
22093W        W38354   0.704  11.742  15.033  0.0414  0.1161 -0.0067
22094W        W38355   8.735   9.438   2.913 -0.0341 -0.1047 -0.0707
22095W        W38356  14.073  16.020   1.828 -0.0729  0.1259 -0.1195
22096W        W38357   8.266   5.029   2.421  0.4076  0.0964  0.3561
22097W        W38358   2.015  12.468   1.364  0.1318 -0.1550 -0.0313
22098W        W38359   8.412   8.116  12.096 -0.0383 -0.1011 -0.2756
22099W        W38360   7.397   6.041  11.629 -0.2304  0.0149 -0.1845
22100W        W38361   6.482   4.451  16.089  0.2406  0.0418  0.0818
22101W        W38362   8.589  10.244   5.239  0.1645  0.0264  0.0051
22102W        W38363  18.155   1.939  11.671 -0.0346  0.0294  0.1572
22103W        W38364   8.983  18.045  13.530  0.1534 -0.3001  0.2265
22104W        W38365   8.993  12.797   2.966 -0.0044 -0.2305  0.2140
22105W        W38366   1.767   5.651   2.915  0.1130 -0.1125 -0.3350
22106W        W38367  16.750  12.101   2.397 -0.0539  0.1805 -0.2281
22107W        W38368   3.022   2.085  12.618  0.2109  0.3209  0.2932
22108W        W38369   5.031  14.144  13.254 -0.0426  0.1365 -0.3200
22109W        W38370   0.518   7.959  12.780 -0.1705 -0.1539  0.0912
22110W        W38371   0.345  14.057  12.386 -0.2224 -0.3923 -0.1322
22111W        W38372  12.186  16.867  14.145  0.2492  0.0342  0.0756
22112W        W38373   1.361  14.355   4.862  0.1801  0.0301  0.0612
22113W        W38374  16.365  17.221  12.026  0.0655  0.3611  0.0729
22114W        W38375  16.857  18.102  11.237  0.1597 -0.0103 -0.0783
22115W        W38376   1.034   5.384   0.382 -0.0210  0.0093 -0.0228
22116W        W38377  14.824  10.614  12.274 -0.0254  0.1180 -0.3261
22117W        W38378   4.285  16.259   0.819 -0.1747 -0.0354 -0.1114
22118W        W38379   6.186   7.481   4.602 -0.1068 -0.1032 -0.0562
22119W        W38380  18.059  15.785   4.421 -0.3059  0.0066  0.0772
22120W        W38381   9.016   7.017  13.778  0.1351 -0.4404 -0.2274
22121W        W38382   8.850   2.739  14.588 -0.2454  0.0084 -0.0259
22122W        W38383   2.030   6.745   4.490 -0.2113 -0.0669  0.0866
22123W        W38384  13.325  16.112   4.090  0.0388  0.0081 -0.0149
22124W        W38385   8.135  12.094   4.762 -0.0200  0.1728  0.0858
22125W        W38386  16.277   6.967   2.481  0.1439  0.1009  0.1868
22126W        W38387   9.401   3.743  15.340  0.3609 -0.1251 -0.0816
22127W        W38388  16.405   3.470  14.509  0.0298  0.0100 -0.0694
22128W        W38389   7.844   4.145   2.242  0.3723 -0.1248  0.1651
22129W        W38390  14.682   9.556   3.513 -0.1170  0.1173 -0.0374
22130W        W38391  14.492  11.808  15.573 -0.2693 -0.0972 -0.0649
22131W        W38392   0.187   4.085  15.831  0.0762  0.0723 -0.1842
22132W        W38393  17.910   3.624  12.062  0.0812 -0.1740  0.1020
22133W        W38394   5.391   3.683   6.038 -0.3467 -0.0093 -0.1207
22134W        W38395   8.472  14.771  11.094  0.3269 -0.3334 -0.2212
22135W        W38396  13.014  11.444  14.344  0.2174  0.2165  0.0902
22136W        W38397   3.837  16.694  12.633  0.0348 -0.1381  0.0381
22137W        W38398   8.637   3.148  15.690  0.1795 -0.0540 -0.0942
22138W        W38399  13.487   0.758  11.815 -0.1672 -0.3086 -0.0244
22139W        W38400   5.136  10.882   0.160 -0.8593  0.1624  0.2201
22140W        W38401   9.421   5.147  13.258  0.1760  0.3145 -0.1948
22141W        W38402  18.475   5.503   1.427  0.3788  0.2190 -0.3743
22142W        W38403   5.483   8.405  13.946  0.3926  0.4610 -0.0532
22143W        W38404   8.591  11.176  12.148 -0.0111 -0.2819 -0.0151
22144W        W38405   5.104   7.155   2.695  0.0535 -0.2172 -0.0457
22145W        W38406   0.146   6.954   4.949  0.0134 -0.1037  0.1602
22146W        W38407  16.399  13.593   2.837  0.1861  0.1499  0.0838
22147W        W38408   7.787   4.147  11.931  0.0549  0.3017  0.3607
22148W        W38409   4.501  12.056  12.345  0.0338 -0.1921 -0.1483
22149W        W38410  10.607  14.978  14.249  0.1236  0.0468  0.2199
22150W        W38411   8.090  16.106   1.489  0.0343 -0.0512 -0.4086
22151W        W38412   4.289  13.556  13.268  0.1504 -0.0127  0.0366
22152W        W38413   7.221  18.254   4.586 -0.1735  0.0383  0.0617
22153W        W38414   0.969  13.634  11.462 -0.1016 -0.0360  0.0736
22154W        W38415   4.411   0.515   3.290 -0.0485 -0.0899  0.0433
22155W        W38416   0.861  12.216   2.926  0.0058  0.2352  0.1739
22156W        W38417   7.189   8.849   5.869  0.0576 -0.1712  0.0025
22157W        W38418   3.222   4.848   5.892  0.2541 -0.1675 -0.2313
22158W        W38419  16.772  12.835  13.540 -0.2833 -0.1642 -0.2521
22159W        W38420   4.103   8.332  12.071  0.1141  0.0871 -0.0018
22160W        W38421  12.470  11.182   2.140 -0.0124 -0.0057  0.1651
22161W        W38422   7.701   8.539  12.037 -0.1413 -0.1234 -0.2665
22162W        W38423   5.715   1.802  13.737 -0.1098 -0.0369 -0.0320
22163W        W38424  12.920   3.343  14.013  0.1825 -0.1356 -0.3264
22164W        W38425  12.253   3.025   0.029  0.0842 -0.1274 -0.4144
22165W        W38426   8.848   1.979   5.920 -0.0032  0.0585 -0.1074
22166W        W38427   6.983  12.644   4.869 -0.1510  0.0689 -0.1483
22167W        W38428   4.965   5.044   4.657 -0.2837  0.1507 -0.1174
22168W        W38429   7.275  17.200  12.823 -0.0839 -0.1166  0.1435
22169W        W38430   7.977  18.058  16.138 -0.0048  0.1675  0.0321
22170W        W38431   0.025   9.996  13.328 -0.1189 -0.1951 -0.1137
22171W        W38432  17.289  11.813   1.779 -0.0583  0.3336  0.2567
22172W        W38433   7.417   6.189   2.042 -0.2017 -0.2012  0.2018
22173W        W38434  17.217  12.353   2.147 -0.0749 -0.0509 -0.0599
22174W        W38435  17.991   6.544  13.131 -0.1378 -0.3030 -0.0040
22175W        W38436   8.113   8.626  11.292  0.1824 -0.0490  0.0496
22176W        W38437   7.421  16.070   4.744  0.2584 -0.1564  0.2311
22177W        W38438   6.409  17.908   5.208 -0.5777  0.1965  0.2000
22178W        W38439  13.049  13.156  13.454 -0.0957  0.0298 -0.1390
22179W        W38440   7.031   4.510  15.079  0.5110 -0.0257 -0.0129
22180W        W38441  16.436  12.291   4.869 -0.0689 -0.2707 -0.1125
22181W        W38442   4.093  12.643   0.104  0.0103  0.0762 -0.0475
22182W        W38443  10.789  12.804   0.367  0.2420  0.1469 -0.0499
22183W        W38444   5.330   0.989  12.470 -0.1023 -0.3356 -0.0827
22184W        W38445   0.403   5.468   5.260 -0.2373  0.2222 -0.2446
22185W        W38446  16.847  12.124  10.686 -0.3542  0.1328  0.0740
22186W        W38447   8.513   0.160  12.347 -0.0406 -0.2569 -0.3837
22187W        W38448  11.263  14.690  10.886 -0.1060 -0.2995  0.1514
22188W        W38449  10.274   2.275  14.095  0.3014 -0.1508  0.0651
22189W        W38450  10.825  12.704   4.292 -0.1086 -0.2170  0.0855
22190W        W38451  14.766  15.671  11.873 -0.0669 -0.1767 -0.2410
22191W        W38452   0.332  12.637   3.596 -0.1014  0.1382  0.2172
22192W        W38453   1.616   4.682   3.509  0.0118  0.0975  0.0464
22193W        W38454  14.233   2.721  12.930 -0.1811  0.0344 -0.0516
22194W        W38455  13.929  11.511   5.086 -0.3537  0.0569 -0.2730
22195W        W38456  11.966  17.512  14.210  0.1654 -0.0145 -0.0635
22196W        W38457   4.077   9.051   1.983 -0.1020 -0.2650 -0.0945
22197W        W38458  13.678  13.984   3.528  0.3516  0.1658  0.0681
22198W        W38459  15.185   0.761   0.267  0.0195 -0.1377 -0.1203
22199W        W38460  14.088   1.659   2.340  0.3257  0.2431  0.0715
22200W        W38461  12.919   2.618  12.305  0.2604 -0.1556  0.2972
22201W        W38462  17.424   0.265  12.369 -0.1038  0.2794 -0.1589
22202W        W38463   7.982   9.397   1.632  0.3141 -0.0497 -0.5077
22203W        W38464   8.803   9.412  15.031  0.1459 -0.2627 -0.1403
22204W        W38465   6.129  13.638   1.788  0.2797 -0.2356 -0.1946
22205W        W38466  14.165  10.232  11.949  0.2263 -0.0697 -0.1034
22206W        W38467  10.967   5.990  13.904  0.0119 -0.0478 -0.2442
22207W        W38468  15.185   0.719  11.954 -0.1216 -0.1557  0.0542
22208W        W38469  13.335   6.071  11.725  0.0698 -0.0948 -0.1506
22209W        W38470  17.909   1.355   1.677 -0.0065  0.1148 -0.0380
22210W        W38471   5.300  16.221   1.067 -0.1932 -0.0399  0.0020
22211W        W38472  11.132  16.305  14.569  0.4151  0.3131 -0.0173
22212W        W38473   1.333  15.571   1.260  0.1415 -0.1094  0.3717
22213W        W38474   7.284   3.708   3.535 -0.2504 -0.1283 -0.1059
22214W        W38475   1.226   6.130   5.474  0.4670 -0.1098  0.0825
22215W        W38476   3.587  12.760   0.178  0.0032  0.0465  0.0527
22216W        W38477   3.539   9.753   5.193  0.0882  0.0920  0.0092
22217W        W38478   5.384   2.396  11.632 -0.0609  0.0921 -0.2691
22218W        W38479   0.542  13.734   0.672  0.0574  0.2930 -0.0898
22219W        W38480  11.052   3.477  13.322 -0.1839 -0.3621 -0.0937
22220W        W38481  14.416  11.485  15.110  0.1219 -0.1662  0.1422
22221W        W38482  15.886  10.360   4.495 -0.1618 -0.0891  0.0765
22222W        W38483  12.934  16.953   4.294 -0.3612 -0.0198 -0.1281
22223W        W38484  11.725  12.409  11.635  0.0416  0.0172  0.1007
22224W        W38485   5.732   2.704   1.519 -0.1262 -0.1071 -0.0338
22225W        W38486   2.778  12.256   3.159  0.1146  0.3083 -0.0744
22226W        W38487  13.882   0.185  12.492 -0.0305 -0.1048 -0.3895
22227W        W38488  13.246  11.629   4.586  0.0639 -0.0796  0.0686
22228W        W38489   1.460   7.314   3.314 -0.0009  0.0036 -0.2438
22229W        W38490   0.716  12.584  15.103  0.0640  0.0899  0.3649
22230W        W38491   9.265   0.350   3.561  0.0925  0.4366 -0.0985
22231W        W38492  10.381   0.956   0.589 -0.2351 -0.1249 -0.1008
22232W        W38493  17.223   8.333  12.789 -0.0405  0.2208 -0.1131
22233W        W38494   4.593  17.841  13.017  0.0990  0.0208 -0.1187
22234W        W38495  17.293  15.754  11.517  0.0643  0.0324  0.1631
22235W        W38496   6.635   5.248  15.333 -0.0815 -0.1011  0.1714
22236W        W38497  11.148   1.929  11.889 -0.1018 -0.1515  0.2681
22237W        W38498  11.418   4.806   2.653  0.2446 -0.2574  0.2200
22238W        W38499   2.408  11.417   5.732  0.2803  0.0866  0.0981
22239W        W38500   7.513   1.578  13.937 -0.1081 -0.1609  0.3827
22240W        W38501   2.882   8.600  13.882  0.1245  0.1922 -0.0589
22241W        W38502   5.342  12.352   3.373 -0.1285  0.2463  0.0752
22242W        W38503   4.525   7.895  13.770 -0.1241 -0.2216 -0.1864
22243W        W38504   9.676  12.606  15.857 -0.1235  0.0145 -0.2731
22244W        W38505   9.185   6.137   4.568  0.0586  0.2177  0.1202
22245W        W38506   9.136  12.900   0.372 -0.0012 -0.0031  0.0837
22246W        W38507  12.468   9.233   2.387  0.1924 -0.0183  0.1925
22247W        W38508  12.092  11.437  14.936 -0.4075  0.1502 -0.0225
22248W        W38509  16.567   1.646   2.688 -0.2424  0.0407 -0.2911
22249W        W38510  12.267   1.395   3.153 -0.2040  0.1456  0.0131
22250W        W38511  11.522   8.026   2.129  0.0616  0.1258 -0.0947
22251W        W38512  10.565   0.183   3.352  0.0960  0.0803 -0.1974
22252W        W38513  10.927   2.908   4.842  0.0733  0.1647  0.3681
22253W        W38514   2.997   8.256   4.514  0.4674 -0.1910  0.0716
22254W        W38515  15.912   1.047   4.269 -0.1606  0.0510  0.2069
22255W        W38516   6.063  14.883   0.278  0.2014 -0.3722 -0.1506
22256W        W38517   9.624   4.607  13.897 -0.0573  0.3630  0.0029
22257W        W38518  10.506   2.441   1.739 -0.0659 -0.1086  0.0425
22258W        W38519  16.524  15.646   3.574  0.1682  0.1273  0.2097
22259W        W38520   6.063  16.586  13.034  0.1688  0.1390 -0.1078
22260W        W38521   7.493  10.409   1.340  0.3694 -0.0432 -0.0254
22261W        W38522  16.656   4.905  11.964 -0.1052  0.2346 -0.4443
22262W        W38523   7.112  17.293   1.903  0.0919  0.0167 -0.0414
22263W        W38524  13.774  16.206  10.673 -0.0276  0.0128 -0.0350
22264W        W38525  15.784  16.138  14.454 -0.2406 -0.2675 -0.2877
22265W        W38526  12.764   4.739  13.022 -0.0781  0.0839  0.1198
22266W        W38527   9.700  12.699   1.048  0.0969 -0.1314 -0.0370
22267W        W38528  10.777  13.128  14.276 -0.2484  0.1392 -0.0165
22268W        W38529   1.492  16.749  12.371 -0.1522 -0.0864  0.3131
22269W        W38530  10.099   0.828   0.170  0.1558  0.2013 -0.0055
22270W        W38531  11.031   3.776   2.336 -0.0720  0.1883 -0.3277
22271W        W38532  11.480   6.979  15.076 -0.1712  0.2137  0.1020
22272W        W38533   4.903  15.498  13.934  0.1195 -0.0141  0.2086
22273W        W38534   0.646  16.408   0.271 -0.1561 -0.0993  0.2818
22274W        W38535   2.184  18.401  15.954  0.1447 -0.2264  0.1225
22275W        W38536  10.880   4.274  13.900  0.3627  0.0002 -0.2306
22276W        W38537   5.574   2.455   3.904  0.0088 -0.0355  0.0038
22277W        W38538   6.988   2.889  15.738 -0.1780 -0.0578 -0.1504
22278W        W38539   6.463   3.997   6.114  0.0864 -0.1648 -0.2140
22279W        W38540  15.746   7.390   3.331  0.2335  0.0594 -0.1469
22280W        W38541   3.775  15.146   3.118 -0.0746 -0.2292 -0.0396
22281W        W38542  12.879  15.306  10.119 -0.1638  0.1471 -0.0590
22282W        W38543   9.125   3.841   2.328  0.0868  0.2049 -0.3018
22283W        W38544  15.853  11.224   1.469 -0.1188  0.5766  0.2249
22284W        W38545  16.981  11.721   3.348 -0.3078 -0.0572 -0.3018
22285W        W38546   8.484   1.340   3.852 -0.3040 -0.0167  0.3617
22286W        W38547  13.096   5.672   2.471  0.0502  0.2265  0.0504
22287W        W38548  17.383   5.871   3.237  0.1585 -0.1751  0.0044
22288W        W38549   7.967  11.494   3.786 -0.0457  0.1297  0.3401
22289W        W38550   3.464   8.136   1.536  0.0670  0.0244 -0.0476
22290W        W38551   0.932   6.623   3.100  0.0083 -0.1872 -0.2517
22291W        W38552  15.000   2.489  12.498  0.3996 -0.0582 -0.0070
22292W        W38553  14.326  10.579  10.693 -0.1623 -0.0176  0.0376
22293W        W38554   3.943  14.075   2.218 -0.0544  0.5561 -0.0217
22294W        W38555  15.611  10.976   2.908  0.0047  0.0609 -0.1446
22295W        W38556   3.452  12.231   3.685  0.1659  0.3119  0.3779
22296W        W38557   5.204  14.814  13.285  0.0822  0.0458 -0.0401
22297W        W38558   4.385  16.775  14.462  0.2286 -0.0177  0.0596
22298W        W38559  14.703   8.712  14.252  0.0891  0.1747 -0.2493
22299W        W38560  17.308   2.725   2.468  0.0886  0.0960 -0.1603
22300W        W38561   6.733   2.263   1.877  0.2801 -0.2878  0.1619
22301W        W38562   0.273  16.194   4.943  0.2344 -0.2024  0.0203
22302W        W38563   3.229   1.783  15.669 -0.0341  0.2309  0.2326
22303W        W38564   1.549  10.936  13.154 -0.1956  0.1016  0.0170
22304W        W38565  11.664   7.161  13.489 -0.2936 -0.0326 -0.1112
22305W        W38566   9.146  14.451   1.789  0.0000  0.2835  0.0373
22306W        W38567   0.467  11.567  10.727 -0.1440 -0.1599  0.4164
22307W        W38568  15.324   4.547  12.916  0.1161  0.2443 -0.3273
22308W        W38569   7.080  17.401  15.747 -0.1566  0.2980 -0.1424
22309W        W38570  15.919   9.280  14.792  0.1375  0.0700 -0.1155
22310W        W38571   0.593   0.306  12.215 -0.0592  0.0869  0.2670
22311W        W38572   1.783   3.826  14.202 -0.0023 -0.0244  0.0244
22312W        W38573  17.928   4.004  16.036 -0.1038  0.1327 -0.0554
22313W        W38574   4.089  14.107   0.369  0.1476  0.1266 -0.1096
22314W        W38575  12.578  18.139  13.336 -0.0185  0.1713 -0.0543
22315W        W38576   1.965   2.772   2.570  0.2400 -0.2498  0.3184
22316W        W38577  13.506   8.663   5.196 -0.0204 -0.1748  0.2243
22317W        W38578  15.543   5.122   0.717  0.0399  0.1011 -0.0516
22318W        W38579   2.564   6.980   1.869  0.1354 -0.0942 -0.1063
22319W        W38580  15.070  15.438   3.413  0.2707  0.1500  0.0166
22320W        W38581   5.152  17.489   1.861  0.0872 -0.1551 -0.0789
22321W        W38582   9.688   1.648  12.887  0.0042  0.3879  0.0445
22322W        W38583   9.135  10.163  13.913  0.0849 -0.0080 -0.2459
22323W        W38584  14.873  15.148  14.077  0.1578 -0.3586  0.1510
22324W        W38585  13.132  15.836  13.930  0.0390 -0.0920 -0.2422
22325W        W38586   2.053   9.790   1.394 -0.0158  0.0267 -0.1454
22326W        W38587   0.039   8.525   0.339  0.0850  0.1007 -0.1516
22327W        W38588  14.938   6.437   0.656  0.1741 -0.1112  0.0696
22328W        W38589   4.341  16.618   3.843  0.0957 -0.1845  0.0901
22329W        W38590   3.140   4.192   3.223 -0.0525 -0.0179  0.1272
22330W        W38591  12.175   8.320   2.708  0.0696  0.0759 -0.0638
22331W        W38592   4.816   7.962  13.392 -0.2186 -0.0089  0.1156
22332W        W38593   3.587   4.081  15.441 -0.0231 -0.4985  0.2639
22333W        W38594   1.850   0.675   5.671  0.0769  0.1113  0.1004
22334W        W38595   8.815   6.181   0.220  0.1478  0.0573 -0.4209
22335W        W38596  12.818   9.204   3.969  0.0051  0.1252  0.2838
22336W        W38597   5.429   5.552   0.403 -0.0208 -0.0022 -0.3610
22337W        W38598  18.424   3.898  11.950 -0.1527  0.0064  0.1794
22338W        W38599   9.173   0.335  12.519  0.1353  0.0345 -0.0729
22339W        W38600  10.945  10.747  15.751 -0.1027 -0.0910 -0.3141
22340W        W38601  18.343   2.214   1.805  0.0138 -0.1220  0.2712
22341W        W38602   6.323   9.169   3.720  0.0767  0.1741  0.2301
22342W        W38603   4.975  14.194  13.792 -0.1684 -0.1061  0.0490
22343W        W38604  10.658   2.626   0.311 -0.0714 -0.1727 -0.0814
22344W        W38605  13.761   3.356  15.298  0.2034  0.1440  0.0595
22345W        W38606   6.148  15.496   0.796 -0.1754  0.3370  0.1615
22346W        W38607   3.934   4.493  12.167 -0.2907 -0.1952 -0.3098
22347W        W38608   3.917  11.107   3.008 -0.0330  0.4452 -0.3814
22348W        W38609   1.868   4.943   4.814  0.0022  0.1891 -0.3907
22349W        W38610   2.349  17.450  13.040  0.1558  0.1204  0.1393
22350W        W38611  14.371   7.827  15.946 -0.0851 -0.1241 -0.0417
22351W        W38612   9.788   8.405  16.173 -0.2666  0.4565  0.0373
22352W        W38613   1.273   4.087  12.182 -0.2798  0.2914  0.1062
22353W        W38614   0.965  10.085   0.056 -0.1659 -0.0684 -0.0094
22354W        W38615  13.916  15.585  15.565 -0.1342 -0.1262  0.0797
22355W        W38616   3.919  10.725   6.303  0.1912  0.0878 -0.0754
22356W        W38617  11.923   7.093  11.413 -0.0199  0.1095 -0.1895
22357W        W38618   9.476   5.368   0.031 -0.1085 -0.0717 -0.1695
22358W        W38619   4.306   7.985   4.002 -0.1064  0.0639  0.1652
22359W        W38620  18.442  12.862   3.835  0.0796  0.1099  0.1660
22360W        W38621  12.527  12.317   4.470 -0.0200 -0.1810 -0.1915
22361W        W38622  12.118  13.613   0.047 -0.0111 -0.2901  0.0704
22362W        W38623   2.464  14.209  13.528  0.1335  0.2032  0.0998
22363W        W38624  15.602   4.621  14.771 -0.2052  0.0010  0.3280
22364W        W38625  13.326  12.762  13.655  0.3051 -0.0376  0.1344
22365W        W38626   0.438   9.524  12.739  0.0931 -0.1499 -0.1974
22366W        W38627  10.572  11.658  12.080  0.1186  0.0132  0.2046
22367W        W38628   5.368  13.172   0.482 -0.1907  0.1284 -0.1247
22368W        W38629   1.830   1.278  14.517 -0.2377  0.2632  0.3134
22369W        W38630   3.332  17.236  12.010 -0.0119 -0.0053 -0.0455
22370W        W38631   7.973   2.016   4.915 -0.5250  0.1949  0.2483
22371W        W38632   1.137  15.210   4.063  0.1427 -0.0741 -0.1852
22372W        W38633  15.141  17.411   0.252 -0.0388  0.2337 -0.1256
22373W        W38634   0.099   0.726   0.869 -0.0975 -0.2447 -0.0048
22374W        W38635   4.417   0.375   5.898 -0.0974  0.1390  0.0663
22375W        W38636  18.451   7.819   0.785 -0.2277 -0.0725 -0.0650
22376W        W38637  17.983  13.264  14.273 -0.3792  0.1958 -0.2758
22377W        W38638  16.472   7.311   2.925  0.2173 -0.1903  0.3650
22378W        W38639   8.508  16.815   3.767  0.2140 -0.0094 -0.0436
22379W        W38640  14.786  13.798  10.489 -0.3268 -0.3317  0.1624
22380W        W38641  11.069  10.322   3.936  0.2200  0.1834 -0.1880
22381W        W38642   9.636   5.913  12.011 -0.1897  0.1848 -0.0398
22382W        W38643   1.059   1.189  15.138 -0.0647  0.0429  0.0849
22383W        W38644   9.650   7.728  13.504 -0.2055 -0.1450 -0.0321
22384W        W38645  12.925  13.141  12.606 -0.0358  0.0801 -0.1562
22385W        W38646   1.635  13.207   3.754  0.3112 -0.2778 -0.0988
22386W        W38647   9.140  17.407  11.488  0.0933  0.2715 -0.1549
22387W        W38648  13.817  14.370  12.510 -0.3072  0.0639 -0.1079
22388W        W38649   6.353   2.371  11.804 -0.0653 -0.1673  0.2132
22389W        W38650   1.230   4.823   0.231 -0.2961  0.2764 -0.2600
22390W        W38651   1.494   7.058  11.987  0.4634 -0.1723  0.0240
22391W        W38652   3.028   9.465   1.699  0.0899  0.1578  0.0703
22392W        W38653  17.759  16.942   3.645 -0.2320  0.3045 -0.2405
22393W        W38654  10.053   6.617  12.407 -0.3442  0.1334 -0.1480
22394W        W38655  10.351  16.280  13.250 -0.0437  0.0799  0.0035
22395W        W38656  17.732   9.442  13.420 -0.3229 -0.0414 -0.1256
22396W        W38657   8.564  13.991  12.219 -0.0815  0.0239  0.1695
22397W        W38658   4.465   0.098  14.864 -0.4886  0.3704  0.2561
22398W        W38659   4.416  17.407  16.029 -0.3493 -0.0454  0.0337
22399W        W38660   5.763   6.919  14.953  0.1444 -0.1311 -0.0668
22400W        W38661  11.621   6.769   4.352  0.0886  0.0269 -0.0506
22401W        W38662   4.241   5.542   1.492 -0.0566  0.2064  0.1354
22402W        W38663   5.270  10.954   1.558  0.0966 -0.1505 -0.2380
22403W        W38664   0.885  15.990   4.334 -0.1713 -0.1377  0.0609
22404W        W38665   3.929   8.578   2.322 -0.2448 -0.0678 -0.1753
22405W        W38666  14.665   0.847   0.100  0.0296  0.2097 -0.2357
22406W        W38667  12.167  16.457  14.547  0.1834 -0.1017  0.0384
22407W        W38668   0.337  18.369   2.382 -0.0303 -0.0559  0.0669
22408W        W38669   7.848  15.704  14.423 -0.2202 -0.2603  0.0330
22409W        W38670   9.229  18.060   0.357 -0.0292  0.3001 -0.4622
22410W        W38671  15.613   5.235   1.742  0.0698  0.1623  0.0777
22411W        W38672  13.328  14.174  15.580 -0.1573 -0.0668 -0.3917
22412W        W38673   0.935   8.930  11.942 -0.1466 -0.0470 -0.4090
22413W        W38674   6.045   5.128  12.160 -0.3289  0.0104  0.1702
22414W        W38675  16.374  16.916  12.526  0.0403  0.0471  0.2279
22415W        W38676   9.811  12.348  13.242 -0.2356 -0.0122 -0.0214
22416W        W38677  13.333  11.721   2.185  0.0693 -0.0190  0.0545
22417W        W38678  16.839   9.107  11.047  0.1389  0.0211  0.1196
22418W        W38679  10.631  12.250   1.335  0.3606  0.3643  0.0112
22419W        W38680  11.769  10.423   5.474 -0.0804  0.1862  0.1603
22420W        W38681  10.667   9.051  14.157  0.2657  0.2221  0.2303
22421W        W38682   1.580   3.938   2.363 -0.0132  0.0872  0.0403
22422W        W38683   1.678  13.412   1.460 -0.2680 -0.0172  0.0580
22423W        W38684  11.714  13.097   1.887  0.1434 -0.1519 -0.1731
22424W        W38685   8.742  15.071  13.122 -0.2301 -0.2833 -0.0238
22425W        W38686   0.875   2.361   2.651 -0.2421 -0.2575  0.0881
22426W        W38687  13.215   1.083   1.432 -0.4215  0.2035  0.1338
22427W        W38688  10.798   5.566   4.345  0.0174  0.0870  0.2494
22428W        W38689  16.784  17.329  14.808 -0.3915 -0.0589  0.2935
22429W        W38690   0.859   2.016   2.124  0.0093  0.0417 -0.0836
22430W        W38691   0.415   7.851   5.043 -0.2102 -0.2698  0.1785
22431W        W38692  13.735  11.704  13.242 -0.1064  0.3787 -0.0390
22432W        W38693   5.590   2.671  14.635 -0.0954  0.3236 -0.0096
22433W        W38694   6.284   0.673   3.683  0.0748  0.0125  0.3743
22434W        W38695  11.860  15.245  15.698 -0.0805 -0.1873  0.0295
22435W        W38696   8.593   5.809   4.273  0.0814 -0.0439 -0.0732
22436W        W38697   1.088  14.105  13.046  0.0174  0.0008 -0.1368
22437W        W38698   0.857  13.215   2.993 -0.0780 -0.2325  0.1092
22438W        W38699  18.158  15.174   1.354 -0.3102 -0.1509 -0.0144
22439W        W38700  11.463  14.226   1.558 -0.2544 -0.3911  0.1736
22440W        W38701  14.970  13.568  15.581  0.3482 -0.1371  0.1856
22441W        W38702  11.597  17.358   0.466 -0.1023  0.0600  0.2047
22442W        W38703   8.272   5.887   5.900  0.3310  0.1693  0.2203
22443W        W38704  17.116  13.000  11.485 -0.3688  0.0768 -0.0856
22444W        W38705  11.803   1.587  12.137  0.1471 -0.1795  0.0868
22445W        W38706  11.563  14.758  12.133 -0.0567 -0.0407 -0.0305
22446W        W38707  12.046   3.888  12.278 -0.1215  0.0056  0.2495
22447W        W38708   2.177   9.253  10.998  0.2462 -0.1473  0.3458
22448W        W38709  15.505  11.949  14.993  0.1962 -0.0264 -0.0698
22449W        W38710   5.948  10.175   4.051  0.1671 -0.1726  0.0358
22450W        W38711  17.336   3.780  13.428 -0.1180  0.2014 -0.2349
22451W        W38712  18.009   4.662  12.303  0.0981 -0.2789 -0.0116
22452W        W38713   5.167   1.046   5.511 -0.1137 -0.1146  0.0162
22453W        W38714  12.057  13.640  14.387 -0.1423 -0.0858 -0.1813
22454W        W38715  18.085   2.366   0.878 -0.3331 -0.0783  0.0601
22455W        W38716  12.861  12.563  16.038 -0.0416  0.2122  0.1463
22456W        W38717   6.576  14.884  14.456 -0.2402 -0.0088  0.3178
22457W        W38718  15.091  10.128   0.434  0.2005 -0.3938 -0.0924
22458W        W38719  14.127  16.327  12.657 -0.1559  0.0333 -0.2803
22459W        W38720   1.730   6.238   4.568  0.2292 -0.3245  0.0925
22460W        W38721  10.554   2.470   1.254 -0.2864 -0.3587  0.0492
22461W        W38722   3.199  10.678  12.094  0.0013  0.0438  0.3287
22462W        W38723   6.112   0.107  15.171  0.2263  0.1994  0.0867
22463W        W38724  10.151  13.155   1.750  0.1301 -0.0466  0.1838
22464W        W38725   0.917  18.460  12.991 -0.1557  0.3469  0.0630
22465W        W38726   6.022  13.728   4.779 -0.2034  0.3622 -0.0429
22466W        W38727   8.182   7.281  12.380  0.0853  0.1250 -0.0590
22467W        W38728  18.011  16.049  11.000 -0.2166 -0.1251 -0.0891
22468W        W38729  15.842  10.679  15.316 -0.0472 -0.1380  0.0544
22469W        W38730  14.991   4.988   3.722  0.0055  0.1141  0.2036
22470W        W38731   4.524  10.241   1.623  0.1232 -0.2194 -0.1389
22471W        W38732   6.467   9.299  15.265  0.0739 -0.0277  0.1075
22472W        W38733   9.378  18.053   1.013 -0.1296 -0.0252  0.0535
22473W        W38734   9.409  16.538  11.441 -0.1560 -0.0324  0.0526
22474W        W38735  10.585   2.562  14.718  0.0135  0.2090  0.2515
22475W        W38736  14.191   5.183   0.291  0.1279  0.2231  0.2023
22476W        W38737   5.768  16.498   2.088 -0.0879 -0.3524  0.2481
22477W        W38738   1.661   5.116  15.335  0.3794  0.2490  0.4158
22478W        W38739   5.273   3.884   4.902  0.1056 -0.2461 -0.1589
22479W        W38740  16.935   7.283   0.794  0.1836 -0.0910 -0.1567
22480W        W38741   2.228   0.408  15.946  0.2707  0.1732 -0.1242
22481W        W38742   0.856  15.820   9.890  0.2601 -0.1596 -0.0646
22482W        W38743  13.555   0.911  13.957  0.2152  0.2412  0.0213
22483W        W38744   6.280   9.616   2.675  0.2727 -0.0532  0.1132
22484W        W38745   7.411   1.941  11.567  0.1597  0.3271 -0.0703
22485W        W38746   2.803  14.346  11.545 -0.2145 -0.0677  0.0349
22486W        W38747  13.168   8.334   3.216  0.1973 -0.1123  0.1363
22487W        W38748   7.475  14.732   1.306 -0.1070 -0.4449  0.1545
22488W        W38749  16.232   5.315   4.729 -0.2682  0.3918  0.3102
22489W        W38750   3.804  11.071  13.067 -0.1778  0.2043  0.1541
22490W        W38751   0.734   6.048   1.721 -0.0272  0.1700 -0.3544
22491W        W38752   3.325  18.304   3.508 -0.0416 -0.3491  0.0932
22492W        W38753  13.294   3.940   1.996  0.3043  0.1950 -0.1150
22493W        W38754  17.833  14.926   4.271  0.1187  0.0569  0.1182
22494W        W38755  10.481  12.767   5.035 -0.0260 -0.2060  0.0145
22495W        W38756   9.821  11.472  12.321  0.1504 -0.1987  0.2379
22496W        W38757  10.496  11.205  13.940 -0.1630 -0.3913 -0.3667
22497W        W38758   7.180   9.797   2.114 -0.2149  0.3622  0.1860
22498W        W38759   0.990  15.514   2.991  0.1481 -0.3330 -0.0920
22499W        W38760   9.946   3.249  12.962  0.2425 -0.1543 -0.0881
22500W        W38761  18.072  16.746   2.468 -0.0283  0.4005  0.1827
22501W        W38762  12.346  15.705  13.332  0.1224 -0.1630  0.1463
22502W        W38763   2.221  14.631   5.265 -0.4001  0.2060  0.0660
22503W        W38764   1.844  17.401   4.918  0.2328 -0.0724  0.4111
22504W        W38765   0.916  13.568  10.988  0.1109  0.1189  0.2578
22505W        W38766   7.824   1.427  15.709 -0.0661  0.0890  0.1550
22506W        W38767   9.088   9.374  12.588  0.2372  0.1359 -0.0643
22507W        W38768  12.517   5.680   1.276 -0.2587  0.0534  0.0424
22508W        W38769  13.695   5.111   2.963 -0.2875  0.0520 -0.2416
22509W        W38770  11.551   3.782  13.601 -0.2653  0.1078  0.0323
22510W        W38771  14.189   6.556   0.195 -0.0157  0.2715  0.0564
22511W        W38772  13.727   4.585   1.414  0.0415 -0.2678 -0.1834
22512W        W38773  16.812   9.690   1.700  0.1826 -0.1041  0.1343
22513W        W38774   1.160   5.850  12.993 -0.0898  0.1459 -0.0163
22514W        W38775  16.809   3.260   5.178 -0.0283  0.0150 -0.0044
22515W        W38776  16.289  16.681   2.956 -0.0319  0.4084 -0.1063
22516W        W38777   8.544   7.920  11.543  0.0044  0.2030 -0.1849
22517W        W38778  13.142  15.179  13.697  0.3008  0.2965  0.1166
22518W        W38779   2.653  16.450  14.316 -0.1476  0.1466 -0.2196
22519W        W38780  15.840  14.331  15.511  0.1334 -0.3056 -0.1617
22520W        W38781  15.258   7.329  13.774 -0.2822  0.4312  0.6560
22521W        W38782  13.380  15.595   0.144 -0.0846 -0.5531  0.0404
22522W        W38783  15.329   9.044   2.891  0.0144  0.1731 -0.0141
22523W        W38784   2.787  17.463   3.606 -0.0563  0.0997  0.0980
22524W        W38785   1.724   2.458   1.251 -0.2256  0.0900 -0.1423
22525W        W38786  17.552  13.960   1.688 -0.2740 -0.0317  0.2023
22526W        W38787  12.060   9.107   3.204  0.0011 -0.2277 -0.0276
22527W        W38788  17.940   1.701   3.706 -0.3155 -0.0270 -0.2533
22528W        W38789   1.992   6.514  11.576  0.2706  0.1287 -0.0130
22529W        W38790  12.243  10.515  12.793  0.3257 -0.0412 -0.0388
22530W        W38791  17.408   2.803   0.313 -0.3772 -0.1564  0.4212
22531W        W38792   7.661   0.781  12.827  0.1356  0.2169  0.0161
22532W        W38793   5.221   8.812   1.519 -0.2160 -0.0088  0.0988
22533W        W38794  11.340   8.966  14.603 -0.1294  0.1675 -0.1314
22534W        W38795   2.744  17.356   1.245  0.1860  0.4420 -0.0981
22535W        W38796   3.231  17.971  14.909  0.2973  0.0371 -0.1312
22536W        W38797   6.954   7.440  14.455  0.5784 -0.4204 -0.1713
22537W        W38798   7.130   2.463   3.128 -0.2066 -0.0739  0.1110
22538W        W38799  17.312  11.558   0.783  0.2507 -0.1811 -0.3494
22539W        W38800  17.575   4.979  15.650 -0.2370 -0.1671 -0.0696
22540W        W38801  10.386   5.780   2.691  0.1721  0.1900 -0.2091
22541W        W38802  13.501  11.943  11.949  0.1419 -0.2634 -0.1142
22542W        W38803   9.996  17.196   5.930  0.0089 -0.3474  0.0631
22543W        W38804   0.512  15.517  15.155 -0.6137  0.1697 -0.0267
22544W        W38805   8.775  18.465   0.998  0.1770 -0.1177 -0.0897
22545W        W38806  10.040  18.133  11.618 -0.1608  0.0414 -0.1678
22546W        W38807  18.127  14.460  14.962  0.0487 -0.1510  0.1064
22547W        W38808  14.851  13.527  13.363 -0.3733 -0.0064 -0.1973
22548W        W38809   2.497  13.273  12.441  0.1480  0.0347  0.2351
22549W        W38810  10.688  15.045  14.693  0.3199  0.0242  0.0576
22550W        W38811   4.415   8.104  12.509 -0.0861 -0.2000 -0.1357
22551W        W38812  10.444   2.501  15.987 -0.1709 -0.1779  0.0842
22552W        W38813   2.070   5.302  13.055  0.1377 -0.2276  0.0993
22553W        W38814  13.759   1.600  12.584  0.0554 -0.2535  0.0888
22554W        W38815   1.591  16.154  13.590  0.2073  0.2027 -0.0291
22555W        W38816   7.050   0.172   1.382 -0.0434  0.0737 -0.0691
22556W        W38817  13.551   9.417  14.469 -0.2639  0.4820 -0.3019
22557W        W38818   3.120  13.416   2.993 -0.4447  0.0634 -0.0362
22558W        W38819   8.675   2.873  15.266  0.2956 -0.0703  0.2803
22559W        W38820   1.874  12.858  14.738  0.0259  0.1298  0.1978
22560W        W38821  16.770  12.634  14.528  0.2648  0.0856  0.0888
22561W        W38822   2.105  12.222  12.776  0.2978  0.2887 -0.0870
22562W        W38823  11.003   3.479  14.196  0.2580  0.3243  0.0071
22563W        W38824   5.869  11.403   2.215  0.0459 -0.1837  0.4074
22564W        W38825  13.697   6.127  13.339  0.0275  0.0279 -0.3846
22565W        W38826  16.270   6.320   3.984  0.0789 -0.0034 -0.1567
22566W        W38827   9.785   5.465   0.514  0.0972  0.0368  0.0845
22567W        W38828   4.465  12.491  14.950  0.0486  0.1329 -0.0257
22568W        W38829  10.297  14.240  12.047  0.2764 -0.1301 -0.2603
22569W        W38830   4.786  12.902  15.287  0.0157 -0.0909  0.2906
22570W        W38831   6.535   6.646   1.447 -0.1300 -0.1272 -0.1735
22571W        W38832   4.588  10.264   5.791  0.0675 -0.0122 -0.0226
22572W        W38833  16.710   7.002   4.272  0.1468 -0.2740  0.2420
22573W        W38834  10.317   0.291  14.624  0.1390  0.0168  0.0770
22574W        W38835  10.299   2.477  12.391 -0.0852 -0.1075 -0.1982
22575W        W38836   6.151   8.823  14.999 -0.1044 -0.2210 -0.1341
22576W        W38837  13.435   2.171   3.878 -0.1222 -0.1820  0.0122
22577W        W38838  12.047   9.325   1.634  0.2787  0.0409 -0.1180
22578W        W38839   0.953  10.659  12.203 -0.0863 -0.0886 -0.0350
22579W        W38840   8.183  15.920   3.798  0.0719  0.2409  0.1400
22580W        W38841   4.767   9.796   1.569  0.2166 -0.0269 -0.1537
22581W        W38842  11.888  18.227  15.753  0.1133 -0.0207 -0.3722
22582W        W38843  16.665   5.857   1.761 -0.1365 -0.0585 -0.0093
22583W        W38844  11.956  10.032   5.118  0.2281  0.3405  0.2333
22584W        W38845  15.783   9.281  12.120 -0.1418  0.0567 -0.0641
22585W        W38846   2.790   0.741  10.442 -0.0835 -0.1034 -0.1652
22586W        W38847  12.112   5.187   5.559  0.1917  0.2562 -0.0372
22587W        W38848   3.311   7.434   6.232  0.3835 -0.1215  0.0276
22588W        W38849   3.281  16.603  12.562  0.1522 -0.0988 -0.2105
22589W        W38850   9.970  18.419  13.659 -0.2461 -0.3161  0.1019
22590W        W38851   2.590  17.029  11.323  0.1682 -0.0196  0.1601
22591W        W38852   1.051  17.537  15.881 -0.2895 -0.3029  0.2078
22592W        W38853   5.907  15.676   1.227 -0.0414  0.0708 -0.0412
22593W        W38854   5.568  11.808  14.560 -0.1407  0.0543  0.0054
22594W        W38855  10.272   9.581  13.800 -0.1467  0.2742 -0.0141
22595W        W38856  15.535   3.993   0.294  0.2584  0.0183  0.0012
22596W        W38857  16.999   0.118  14.548 -0.0668 -0.1314 -0.1111
22597W        W38858  12.029  14.356  15.934  0.2665 -0.3458  0.1694
22598W        W38859  11.328  14.559   3.180  0.2651 -0.2194 -0.1361
22599W        W38860   9.742  17.093  14.303  0.0146  0.0710  0.2657
22600W        W38861  11.380   3.280   2.965 -0.1361  0.1005  0.0634
22601W        W38862   8.291   5.003   2.948 -0.2893  0.3481 -0.0296
22602W        W38863  16.758  12.322   1.269 -0.1772 -0.1183  0.0708
22603W        W38864  11.596  16.542   1.215 -0.0159 -0.1007  0.3229
22604W        W38865   1.355   2.766  14.953 -0.0087 -0.1413  0.1256
22605W        W38866  16.707   9.968  11.552 -0.2666  0.0421  0.0562
22606W        W38867  11.494   1.849  14.680  0.1127 -0.2929 -0.0721
22607W        W38868   8.631  11.508  14.380 -0.0372 -0.0695  0.1201
22608W        W38869  10.576  18.356  11.552 -0.2758  0.0129  0.1000
22609W        W38870   2.682  13.415   1.087 -0.1644 -0.0956  0.1745
22610W        W38871  13.327  11.711  12.808  0.2483  0.0087  0.0829
22611W        W38872  17.862   3.846  13.253  0.2716 -0.0656 -0.0546
22612W        W38873   5.993  10.691   6.011  0.1518  0.4295  0.0122
22613W        W38874   6.962  11.440   0.506 -0.1025  0.0238 -0.0229
22614W        W38875  10.496  10.960  12.511  0.2221  0.0187  0.0973
22615W        W38876   6.959  13.018  15.156  0.2948  0.2749  0.0185
22616W        W38877   3.380   5.375   2.385  0.0519 -0.1727  0.0933
22617W        W38878   6.639  16.690   0.701 -0.1434  0.2068  0.1191
22618W        W38879  13.745  11.317  12.215  0.1116  0.0540 -0.2724
22619W        W38880  15.755   7.080   1.620 -0.1109  0.1246 -0.3711
22620W        W38881  12.328  17.713  13.254  0.1952 -0.0343 -0.2010
22621W        W38882   9.251   9.543  14.801 -0.2029 -0.2323  0.1908
22622W        W38883   3.555  12.325   4.176 -0.2484  0.1791  0.1532
22623W        W38884  14.291   6.668   5.006 -0.0175 -0.0023  0.0052
22624W        W38885   9.270   0.954   1.744 -0.1212 -0.0435 -0.1918
22625W        W38886  18.366   8.166  11.974  0.1555  0.0077 -0.0653
22626W        W38887   6.622  14.682  15.671  0.0457 -0.1362 -0.0690
22627W        W38888   9.419   4.265  15.426  0.1887  0.0885 -0.0413
22628W        W38889   1.408   5.478  12.683 -0.0421  0.1139  0.0966
22629W        W38890   0.140   5.492  11.774 -0.2344  0.0999 -0.2801
22630W        W38891   0.670   3.142   5.119 -0.2120  0.2627  0.0652
22631W        W38892   4.934  13.089   4.304  0.2288  0.2389  0.1816
22632W        W38893   4.614  11.934  15.060 -0.0527  0.2083  0.0181
22633W        W38894  10.146  13.740   3.896  0.2136  0.0496 -0.2007
22634W        W38895   1.921  14.978   1.684 -0.2351  0.4368  0.2021
22635W        W38896  13.497   5.225   5.553  0.2085  0.0981  0.1295
22636W        W38897  17.178  11.754  14.010 -0.2441  0.3658 -0.0468
22637W        W38898  15.153  17.901  11.537  0.2014 -0.1402 -0.1343
22638W        W38899   9.646   4.752   5.650  0.2752  0.0558  0.3395
22639W        W38900   7.700  16.008  12.094  0.0063  0.1732 -0.1591
22640W        W38901   1.653  12.785  13.048  0.2822  0.5946  0.1476
22641W        W38902   1.081   0.299  11.967 -0.0855  0.1700  0.1878
22642W        W38903   6.688  17.212   4.424  0.3233  0.2077  0.0447
22643W        W38904  11.694  10.773  10.803 -0.2019  0.2455  0.0292
22644W        W38905   9.250  11.583  12.613 -0.4119 -0.0388 -0.1049
22645W        W38906  18.087  17.322   3.404 -0.2074 -0.0482  0.0017
22646W        W38907   5.829  10.405   2.373 -0.1581 -0.0065 -0.2365
22647W        W38908   7.561   1.520   2.438 -0.3123  0.0290 -0.1617
22648W        W38909  12.745  17.816   3.291  0.0498  0.0280  0.0469
22649W        W38910   2.868   6.465   0.858  0.0683 -0.2331 -0.2915
22650W        W38911  14.742  10.935   5.566 -0.0551 -0.0563  0.0354
22651W        W38912  16.526   1.002  12.704  0.1019 -0.2277  0.2141
22652W        W38913  14.822  13.270  11.109  0.1281 -0.1984  0.3550
22653W        W38914  13.545   0.057   1.472  0.4067  0.1331 -0.0687
22654W        W38915  15.235  13.035   1.721 -0.0978 -0.0089  0.0822
22655W        W38916  14.326  14.136  11.159 -0.2634  0.0818  0.0785
22656W        W38917   0.970  18.014  14.878 -0.1787  0.0667 -0.2529
22657W        W38918   6.484   8.988   4.712  0.4485  0.0740 -0.1967
22658W        W38919   5.913   4.262   0.093 -0.2453 -0.2805  0.2702
22659W        W38920  14.043  11.637   3.344  0.0903 -0.2140 -0.0268
22660W        W38921   6.645   1.840   2.134 -0.4346 -0.1890  0.0431
22661W        W38922  15.152  16.903  15.252  0.1971 -0.0569 -0.0546
22662W        W38923  18.350  15.354  13.670 -0.0015 -0.0914  0.0634
22663W        W38924  14.135  14.058   4.989  0.0517 -0.2668  0.1341
22664W        W38925   2.938  14.147   4.788 -0.2229  0.1864  0.1413
22665W        W38926   2.975  16.606  14.024 -0.1543 -0.0371 -0.1241
22666W        W38927   6.363  13.624  13.252 -0.3197  0.1973 -0.0420
22667W        W38928  14.277   1.196  14.073 -0.0495 -0.0216 -0.1763
22668W        W38929  16.186  10.697   4.178  0.0428  0.4069 -0.1806
22669W        W38930   2.467   1.431   5.133  0.0804  0.3332 -0.0599
22670W        W38931  15.690   7.504   4.742 -0.1239  0.0784  0.3094
22671W        W38932   2.736   7.438   3.457  0.1973 -0.3557 -0.1589
22672W        W38933  13.826   6.248  12.039  0.0845  0.0823 -0.3636
22673W        W38934   8.737   1.441   4.614  0.0852  0.0184  0.1796
22674W        W38935   9.222  12.294   1.589  0.0783 -0.2766 -0.2470
22675W        W38936  16.648  10.536   1.659 -0.0852 -0.0857 -0.0960
22676W        W38937  17.055  17.916   0.790  0.1608 -0.3695 -0.2714
22677W        W38938   9.913   3.785  12.241  0.1345  0.1311  0.2111
22678W        W38939  17.363   2.351   5.162 -0.0046  0.1281 -0.1875
22679W        W38940  10.570  16.286   2.689  0.2544 -0.0910  0.1012
22680W        W38941  16.502   7.500  14.508 -0.0414 -0.1959  0.0173
22681W        W38942   3.965  13.623  12.046  0.0313  0.0261  0.2970
22682W        W38943   0.098  14.255   4.400 -0.2619 -0.2741 -0.4109
22683W        W38944  12.791   3.509   0.582 -0.1162  0.0780  0.1632
22684W        W38945   7.907  15.886   1.960  0.0082 -0.0343  0.3732
22685W        W38946   8.586   8.158   1.554 -0.0693 -0.3473 -0.0332
22686W        W38947  10.536   2.838   4.550  0.4786  0.0967  0.2453
22687W        W38948  15.009  14.070   3.484  0.4814  0.0301  0.1017
22688W        W38949   1.538   5.943   1.013  0.2144  0.2914 -0.0716
22689W        W38950  15.489   2.368   3.998  0.1328  0.0981 -0.0082
22690W        W38951  17.367   7.433  14.973 -0.0501 -0.1751  0.1535
22691W        W38952  13.254  12.229   3.987  0.3804 -0.3293 -0.3423
22692W        W38953  10.498   4.410   2.397 -0.1503  0.0910 -0.2993
22693W        W38954  10.676   3.869  12.472  0.2372 -0.0537  0.0496
22694W        W38955  13.590  16.969  13.171 -0.0359 -0.1867 -0.1142
22695W        W38956  10.829   4.331  12.821 -0.1168  0.1628 -0.1514
22696W        W38957  14.223   9.656  15.601  0.1484  0.0736  0.2122
22697W        W38958   6.054   9.410   1.479 -0.0964  0.3128  0.0203
22698W        W38959   8.031  10.401   2.129 -0.0539  0.0781 -0.2356
22699W        W38960  14.823  11.088   0.371 -0.4992 -0.1027 -0.3039
22700W        W38961   5.768   7.065  13.559  0.1255 -0.0772 -0.0526
22701W        W38962  11.427   8.460  14.978 -0.3927  0.0593  0.4247
22702W        W38963   2.855  11.768  11.501  0.1746  0.0270  0.3905
22703W        W38964  11.618   4.112  15.941 -0.2508  0.1765  0.2426
22704W        W38965   6.107   0.090   3.801 -0.0592  0.0508  0.1736
22705W        W38966   9.402   2.227  15.418 -0.4369  0.2549 -0.0352
22706W        W38967   9.428   1.347   3.890 -0.2649 -0.0103  0.2239
22707W        W38968  17.425   4.008   0.679  0.0047 -0.1491 -0.1576
22708W        W38969  16.650   5.441  15.721  0.1200  0.2772 -0.0350
22709W        W38970   7.142   6.437   4.672  0.0601  0.0882 -0.0573
22710W        W38971   4.811  10.496  14.492  0.0898 -0.0929  0.0258
22711W        W38972   7.583   2.350  14.391  0.1008  0.2172  0.1977
22712W        W38973  10.951  10.502  15.314 -0.2290 -0.3422  0.0720
22713W        W38974  12.550  16.764  13.059  0.0594  0.0959 -0.0693
22714W        W38975  10.688  16.971   3.304 -0.2533 -0.1830 -0.0449
22715W        W38976  15.792   8.383  13.818 -0.1827  0.1223  0.2518
22716W        W38977  11.855   1.038  11.952 -0.3008  0.1068 -0.0599
22717W        W38978  18.146  11.732  12.071 -0.0042  0.1878  0.0863
22718W        W38979   8.351  12.350  14.430  0.0512 -0.0456 -0.3942
22719W        W38980   3.578  18.437  12.915 -0.3111 -0.0660 -0.0673
22720W        W38981   5.490   6.485   2.171  0.1091 -0.0102  0.1496
22721W        W38982   7.797  16.839   1.729 -0.3586 -0.2160  0.0918
22722W        W38983   0.209  15.708   5.072 -0.2325  0.1049 -0.2624
22723W        W38984  10.730   8.049  11.564  0.0830  0.2169  0.1059
22724W        W38985   5.038   4.398  13.379  0.0038  0.0307 -0.1378
22725W        W38986  18.058  16.843  10.865  0.2720  0.2821  0.1742
22726W        W38987   6.664  11.996   1.156  0.0947  0.2816 -0.1746
22727W        W38988  14.649   9.029   3.497 -0.3119  0.3387  0.1541
22728W        W38989  18.333   5.227   0.532  0.0236 -0.2210  0.2828
22729W        W38990  16.283  11.540   4.376  0.2985  0.2733 -0.0650
22730W        W38991   5.220  16.639  15.958  0.2178  0.1237  0.2500
22731W        W38992   0.833   7.766   5.937  0.2147  0.1274 -0.2688
22732W        W38993   9.172  10.882   1.016  0.0781  0.0499  0.0163
22733W        W38994   8.655   2.950   0.427 -0.0366 -0.2220 -0.0789
22734W        W38995   4.189  10.011  11.127 -0.0490 -0.0021 -0.0385
22735W        W38996   1.172   3.083   0.120 -0.0429  0.2274  0.2398
22736W        W38997   8.698  12.073  14.144  0.2329  0.1630  0.1435
22737W        W38998   6.489   4.525   2.099 -0.2104 -0.2746 -0.2674
22738W        W38999   5.498  18.264   1.880  0.0406 -0.0967 -0.2729
22739W        W39000   3.330   6.310  14.118  0.0401  0.0694 -0.2602
22740W        W39001   9.476   7.719   2.538  0.1076  0.0601  0.0704
22741W        W39002   0.785   2.981   2.249  0.1024 -0.0398  0.1774
22742W        W39003  10.954   6.566   1.840  0.0678  0.2192 -0.0339
22743W        W39004  13.875   8.205   2.359  0.2822  0.1103 -0.0424
22744W        W39005   6.424  13.910   2.130 -0.0546 -0.1336  0.0419
22745W        W39006  10.124   2.374   0.424  0.0086 -0.0474 -0.1977
22746W        W39007   9.786  12.503   4.631 -0.0155 -0.1970  0.1670
22747W        W39008   3.320  11.962  11.427  0.0640 -0.1077 -0.0691
22748W        W39009  18.314   4.969  11.949  0.2999  0.0756 -0.1289
22749W        W39010  16.003  15.292   0.940  0.0859 -0.0424 -0.0982
22750W        W39011  16.376   5.833  15.950 -0.1333 -0.0590 -0.1639
22751W        W39012  12.971   3.342   5.028 -0.2286 -0.1964  0.1365
22752W        W39013   1.618   6.383   2.173  0.0703 -0.5991  0.3274
22753W        W39014  12.583   3.427   3.864 -0.2814  0.0176  0.1140
22754W        W39015   1.451   1.270  11.759 -0.2438 -0.0196 -0.2969
22755W        W39016   8.940   7.018   2.457  0.2021  0.2733 -0.4064
22756W        W39017   0.241  10.207   5.405  0.0673  0.1852  0.0513
22757W        W39018   4.965   1.941   5.698  0.1826  0.0982 -0.3018
22758W        W39019  16.101  10.688  16.006  0.1763 -0.3181 -0.0102
22759W        W39020   0.611  15.472   3.510  0.2240 -0.0136  0.3421
22760W        W39021   7.796  10.381  15.457  0.1968 -0.0654 -0.0518
22761W        W39022   7.613  14.906  13.499  0.2501 -0.3272 -0.0068
22762W        W39023  18.368  15.935  13.653  0.3973 -0.2399 -0.0735
22763W        W39024  11.714   4.078   3.029  0.0175 -0.1115  0.3303
22764W        W39025   4.816   4.640   3.785 -0.1546  0.2138  0.1167
22765W        W39026  13.859   3.255   4.504 -0.2048 -0.1253 -0.0115
22766W        W39027  14.981   1.235   1.423 -0.2763 -0.0051  0.2077
22767W        W39028   4.617   8.521  15.049 -0.1773 -0.1573  0.1567
22768W        W39029  10.528  10.430   1.009 -0.0280  0.0152 -0.0366
22769W        W39030   8.973  17.182  13.087 -0.2290 -0.2250 -0.1981
22770W        W39031  16.189  10.610   1.747 -0.0682 -0.0133 -0.3242
22771W        W39032   6.466  13.952   0.037  0.1775  0.2201 -0.1173
22772W        W39033   7.320   8.425  15.717  0.1300 -0.0724  0.3871
22773W        W39034  10.684   2.269   4.550 -0.0007 -0.0919  0.1671
22774W        W39035   7.943   4.694  15.263 -0.4977 -0.0266 -0.0035
22775W        W39036  13.973  15.023   2.744  0.0332 -0.2294 -0.3248
22776W        W39037  10.270  10.931  11.132 -0.0736  0.1282 -0.1181
22777W        W39038   1.507   8.647   2.656 -0.3092 -0.1553  0.2280
22778W        W39039   8.166   9.200  16.067  0.0499  0.0303  0.2179
22779W        W39040   0.280   4.790  12.766  0.0193 -0.1744  0.2256
22780W        W39041   9.179   3.292  13.662 -0.3659 -0.0593  0.2027
22781W        W39042   2.487  18.286  13.743  0.1168 -0.0483  0.0580
22782W        W39043   4.744  14.145   0.436 -0.1550  0.2216 -0.3039
22783W        W39044   9.833   9.669   4.242  0.0441 -0.1309 -0.2046
22784W        W39045   7.945   3.869  12.678  0.1608  0.2036  0.2959
22785W        W39046   3.191   5.480  13.903 -0.2237  0.1838 -0.0689
22786W        W39047  13.883   0.753   0.754 -0.2660 -0.1044 -0.1541
22787W        W39048   7.191   7.541   5.912 -0.4277 -0.0130 -0.3124
22788W        W39049   3.781  12.489   2.438  0.1435 -0.4000  0.0913
22789W        W39050   0.065   1.019   0.484  0.2110  0.0140 -0.0003
22790W        W39051  10.307   6.832   3.043 -0.0907 -0.0066  0.1313
22791W        W39052  16.708  14.969   3.025  0.1846 -0.3224 -0.0220
22792W        W39053  14.544   6.775   4.024 -0.1075 -0.0962  0.0276
22793W        W39054   9.370  17.123   2.501  0.0897 -0.0808  0.2859
22794W        W39055   8.409   4.654   5.224 -0.1256 -0.0555 -0.1008
22795W        W39056   4.896   1.091   2.071 -0.1925  0.0468  0.2859
22796W        W39057  15.653   7.550   2.865 -0.2387 -0.0855  0.3051
22797W        W39058   3.468  16.136   5.463  0.1426 -0.1181  0.0950
22798W        W39059   5.082  15.395  15.223 -0.0245 -0.4113 -0.2712
22799W        W39060   7.233   7.066  15.875  0.0028  0.0785 -0.2058
22800W        W39061  10.569  13.845  15.806 -0.1881 -0.0401 -0.1272
22801W        W39062  11.394   1.466  11.778  0.0466  0.0468  0.0130
22802W        W39063  12.477   9.980  12.142  0.1349  0.0872 -0.1058
22803W        W39064   2.670  12.281  11.990  0.3204 -0.2774  0.3188
22804W        W39065  10.991  12.518   1.613 -0.1097 -0.3217  0.0468
22805W        W39066  15.464   5.887   2.463 -0.1515 -0.0828  0.0024
22806W        W39067  13.293  14.132  12.272  0.0037  0.3789  0.0292
22807W        W39068   9.832   6.321   5.152  0.2304 -0.3464  0.0856
22808W        W39069   4.239  10.685   0.483  0.1054 -0.1148  0.2649
22809W        W39070  11.392  16.003   5.118  0.0496 -0.2758  0.0832
22810W        W39071   0.884  16.086   1.869 -0.2535  0.2108  0.2534
22811W        W39072  16.082   1.184   1.889 -0.0992 -0.0633 -0.1832
22812W        W39073   5.338  14.131  12.151 -0.0161 -0.1510  0.2394
22813W        W39074   4.140  11.694  11.986  0.1624 -0.0384 -0.3632
22814W        W39075   9.655   4.254   5.679 -0.1017 -0.0787 -0.0211
22815W        W39076   7.029   1.151  15.254 -0.0018  0.2795 -0.1441
22816W        W39077  18.356  11.099   4.511  0.2184 -0.0921  0.1625
22817W        W39078   9.973  16.225  14.052  0.0550  0.0669  0.1993
22818W        W39079   3.939   2.672   4.050 -0.0669  0.0293  0.1241
22819W        W39080  17.131   2.186   4.411  0.0932 -0.2918  0.0427
22820W        W39081  12.362   8.697  14.438 -0.0756 -0.1297  0.0453
22821W        W39082   1.459   2.113   2.095  0.0365 -0.1448  0.1717
22822W        W39083   0.238   6.632   1.393  0.1042 -0.1357  0.1580
22823W        W39084  14.905   5.965  14.344 -0.1874 -0.2020 -0.0731
22824W        W39085  11.790  12.040   4.388  0.1383 -0.0091  0.1740
22825W        W39086   3.590  17.642  13.317 -0.0883 -0.1694  0.1986
22826W        W39087   2.114   1.726  12.394 -0.0753  0.1790 -0.0698
22827W        W39088   1.544   1.129   1.844  0.0275 -0.0170  0.1082
22828W        W39089  15.634  18.173  12.111  0.4834 -0.0484  0.0915
22829W        W39090  10.951  11.311   1.934 -0.2067  0.1859 -0.3791
22830W        W39091   2.307   1.380   3.009  0.0731 -0.1019  0.1521
22831W        W39092   8.354  18.191   2.781 -0.2931 -0.0447  0.0228
22832W        W39093   8.362   0.763   0.558  0.1442  0.1584  0.2751
22833W        W39094  11.553   3.022  11.223  0.4191 -0.0705  0.0272
22834W        W39095   9.841  16.689   0.581 -0.1771  0.3167  0.1310
22835W        W39096  18.296   9.901  10.079  0.3475  0.0539 -0.3280
22836W        W39097  12.830  14.856   2.973  0.0218 -0.0325 -0.1541
22837W        W39098   9.116  11.553  13.559 -0.1591 -0.1023 -0.3073
22838W        W39099   9.529  17.588   0.299  0.1260 -0.0700  0.4138
22839W        W39100   4.542   8.544   3.835 -0.0775  0.0645 -0.2242
22840W        W39101   3.742  15.758  12.634  0.2630 -0.2535  0.0259
22841W        W39102   0.710   1.359   1.113  0.2059 -0.0421 -0.0726
22842W        W39103  11.547   5.619   5.575  0.0879  0.1102 -0.0831
22843W        W39104   8.329  10.481  13.454 -0.1275  0.1104  0.0408
22844W        W39105   4.969  12.331   2.769 -0.0021  0.3066 -0.2939
22845W        W39106   5.043  15.755   5.303 -0.1686 -0.2300  0.1022
22846W        W39107   3.303  11.068   4.165  0.1886 -0.0082 -0.2189
22847W        W39108  17.609  14.779   2.814 -0.1467  0.0973  0.2013
22848W        W39109   0.761  14.284  13.978  0.0703  0.2834 -0.1514
22849W        W39110  10.911   1.969   4.850 -0.2078  0.4113 -0.0755
22850W        W39111  13.949   8.781   4.126 -0.0648 -0.0607 -0.0918
22851W        W39112   0.959  15.835   1.460  0.0034 -0.0836 -0.3053
22852W        W39113  16.701   2.604   1.152  0.3774 -0.1092  0.0580
22853W        W39114  17.444   1.328  14.782 -0.1754 -0.1546 -0.1396
22854W        W39115  14.181  12.733  15.180  0.2326 -0.1296  0.0262
22855W        W39116  15.816   2.650  14.138  0.0649  0.1826 -0.3429
22856W        W39117  10.555   8.413  11.901  0.2228  0.0725  0.0586
22857W        W39118  15.285  12.801  12.421 -0.1371  0.1048  0.0945
22858W        W39119   0.613   5.649   2.611  0.4488  0.4343  0.0962
22859W        W39120  14.529   4.586  11.144  0.4025 -0.0443  0.1868
22860W        W39121   9.121  12.987   4.162 -0.0504  0.2064  0.3471
22861W        W39122  12.973   0.891  10.627 -0.2651  0.0229 -0.0837
22862W        W39123   5.854   2.073   0.966  0.2259  0.2071 -0.1285
22863W        W39124   2.161   6.879   6.208  0.2904 -0.5368  0.1190
22864W        W39125  14.329   0.718   4.539  0.0179  0.0938 -0.1868
22865W        W39126  17.179   0.921   4.935  0.1003 -0.1667  0.0669
22866W        W39127  18.397   5.801  15.295 -0.1084  0.0945 -0.0788
22867W        W39128   7.752   6.682   1.975  0.0394 -0.0275 -0.3797
22868W        W39129   5.289   2.916   0.168  0.0386  0.1138  0.0433
22869W        W39130  18.234  18.148   1.706 -0.4262 -0.0272 -0.0467
22870W        W39131  14.356  13.665   1.909 -0.1398 -0.0358 -0.2532
22871W        W39132   1.651   1.033  11.376 -0.2240 -0.0913 -0.0567
22872W        W39133  12.209  14.008  13.079  0.0866  0.2523  0.0185
22873W        W39134   3.259   3.466  15.909  0.0328  0.1991 -0.1236
22874W        W39135  17.787   3.281  15.183 -0.3608 -0.2209  0.3454
22875W        W39136  15.812  17.528  10.514  0.5382 -0.1124  0.1879
22876W        W39137   1.645  17.609   1.599 -0.4651  0.3288 -0.0462
22877W        W39138   4.908   0.093   1.303 -0.2668  0.1887 -0.3831
22878W        W39139  11.374  15.976  12.567  0.2716 -0.0958 -0.0803
22879W        W39140   5.144  13.454   1.414 -0.2324  0.3668 -0.0257
22880W        W39141   6.586  14.541  13.565 -0.2982  0.3867  0.3330
22881W        W39142   8.683   2.199   2.333  0.0800  0.2055  0.0077
22882W        W39143   5.529  15.650   4.040 -0.0242 -0.3367 -0.1871
22883W        W39144  18.092   7.912  11.507 -0.0821 -0.0790 -0.1536
22884W        W39145  10.335   7.848  13.886 -0.2296 -0.1673 -0.1677
22885W        W39146   2.238   1.658  11.907  0.0913  0.0134  0.1137
22886W        W39147   1.026  15.626   1.935  0.1016  0.2022 -0.2836
22887W        W39148   5.159  12.537   4.368  0.0344  0.0147 -0.3409
22888W        W39149   4.312  12.502   2.209  0.0223 -0.2471 -0.2072
22889W        W39150   7.782  16.264  15.392 -0.2045  0.0456 -0.2126
22890W        W39151  13.980  13.728  14.412  0.2772 -0.1015  0.0513
22891W        W39152   8.533  10.200  14.887 -0.2676 -0.5813 -0.2101
22892W        W39153   2.152   0.586   1.282  0.2461  0.4219 -0.0587
22893W        W39154  10.703   9.613  12.759 -0.0816  0.3487 -0.1528
22894W        W39155   2.058  16.109  13.545 -0.3424 -0.1524 -0.0933
22895W        W39156  16.835  12.297  11.982  0.0039  0.1276 -0.1070
22896W        W39157  14.263   4.446  12.922 -0.4522  0.0859  0.0354
22897W        W39158  11.785  15.338  13.993  0.1316 -0.0796 -0.0757
22898W        W39159   1.760  15.793  11.275  0.0454  0.0014 -0.0539
22899W        W39160  12.738  13.365  11.290 -0.1623 -0.1975  0.3080
22900W        W39161   5.293  11.441   4.181 -0.0046 -0.1409 -0.6212
22901W        W39162  11.032   9.020  13.514  0.1165 -0.0111  0.0321
22902W        W39163   9.519   3.698   4.368 -0.0281 -0.0119 -0.4683
22903W        W39164   7.045   1.497  14.015  0.0094 -0.1552  0.3246
22904W        W39165   2.364  10.258   4.395 -0.1835  0.0009 -0.2644
22905W        W39166   4.733   5.464   2.080 -0.2889  0.1118 -0.2830
22906W        W39167   6.003  16.993  14.143 -0.0464  0.0623 -0.1600
22907W        W39168   8.697   0.466  14.680  0.1023 -0.2261 -0.1496
22908W        W39169   8.325   9.608   5.133 -0.0864  0.3407  0.4972
22909W        W39170   0.533   7.148   2.226  0.3495 -0.1847  0.1317
22910W        W39171   8.138   6.246   3.034 -0.1578  0.0227 -0.0578
22911W        W39172  15.509   3.283   3.005  0.1485 -0.0348  0.2905
22912W        W39173   6.867  18.193  12.984  0.0273 -0.1066 -0.3958
22913W        W39174  10.933   8.098  14.442  0.1777 -0.3828  0.5760
22914W        W39175   3.441   1.086  13.092 -0.1085 -0.1872  0.0804
22915W        W39176   0.557  15.576  11.949  0.2709  0.0853  0.1638
22916W        W39177   9.588   7.665   5.578 -0.0240 -0.4265  0.2801
22917W        W39178   2.622  13.564   3.423 -0.0168 -0.2220  0.2787
22918W        W39179  13.285  12.700   4.291  0.0440 -0.1510  0.2284
22919W        W39180   7.899   4.643   3.058  0.0934  0.0152  0.0653
22920W        W39181   4.880   0.469  13.769 -0.2088 -0.2424  0.0171
22921W        W39182  13.081  11.299  12.034  0.1222  0.2126 -0.0159
22922W        W39183  15.813   6.822  15.258 -0.0257 -0.0191 -0.0013
22923W        W39184   8.030   5.167  13.160  0.4421 -0.0795 -0.0229
22924W        W39185   8.944   3.719  15.183 -0.4847  0.4244  0.1448
22925W        W39186   1.232  13.714  13.401 -0.2371 -0.0546  0.1889
22926W        W39187   3.882   1.621  12.355  0.1075  0.2367  0.1205
22927W        W39188   8.739   0.409   1.300  0.1781 -0.0632  0.2004
22928W        W39189  10.830   4.597   4.214  0.0936 -0.1304  0.0272
22929W        W39190  15.909  13.016   3.512 -0.1309 -0.3374 -0.1747
22930W        W39191  12.048  11.756  13.728 -0.2097  0.1207 -0.2888
22931W        W39192  10.027   2.829  13.286 -0.1482  0.2548 -0.0355
22932W        W39193   2.780   4.051   0.792 -0.4369  0.0708  0.0047
22933W        W39194  13.722   7.299  14.747 -0.0123 -0.3196 -0.3081
22934W        W39195   8.364   2.512   0.469 -0.0620  0.2897 -0.0714
22935W        W39196   1.393  15.883  12.747 -0.2101 -0.0318  0.0526
22936W        W39197  12.071   4.053  13.708 -0.1571  0.0668  0.3053
22937W        W39198  13.227   7.131  15.383  0.6136  0.0635 -0.0041
22938W        W39199  15.674   9.204   2.524  0.1972  0.2069  0.1341
22939W        W39200  12.623   0.238   4.194 -0.2852 -0.3753 -0.1456
22940W        W39201  13.834  18.063   4.093  0.1614  0.2795 -0.0375
22941W        W39202   4.400   4.154   4.853  0.1749 -0.0533 -0.0773
22942W        W39203   5.682  13.178   3.386  0.2696 -0.0177 -0.2777
22943W        W39204  10.747  14.961  16.112 -0.3184 -0.0257  0.1676
22944W        W39205  18.322   5.926  11.717  0.0540 -0.1175 -0.0634
22945W        W39206  11.401   6.612  14.259  0.2160  0.0611  0.1039
22946W        W39207   8.705  10.777  12.678  0.0243 -0.3237 -0.0123
22947W        W39208  13.528  18.057  16.181  0.1215  0.1082 -0.0239
22948W        W39209   5.834   3.759   4.641 -0.0369 -0.0337 -0.0552
22949W        W39210  11.094   9.054  15.795 -0.3037 -0.2226  0.2802
22950W        W39211  12.267  14.391   3.680 -0.0011 -0.0575  0.1248
22951W        W39212  18.362   0.507   6.177  0.0225 -0.0801  0.4211
22952W        W39213   6.088  11.501  13.329  0.1739  0.0604  0.1034
22953W        W39214  15.986   7.892  13.670  0.2025 -0.2817 -0.2631
22954W        W39215  16.213   7.766  11.482  0.0988 -0.1411  0.2867
22955W        W39216   2.619  15.722   5.528  0.2037 -0.0647  0.4422
22956W        W39217  15.879  17.631  12.902  0.0884 -0.1530  0.0380
22957W        W39218  10.072  12.404   5.113 -0.0151  0.0521 -0.1455
22958W        W39219  14.586   2.715  12.453 -0.0509  0.0151  0.1022
22959W        W39220   8.420  17.233   2.836  0.1425 -0.1297  0.1652
22960W        W39221  13.014  14.679   0.474 -0.0743 -0.0888  0.0726
22961W        W39222  13.504   9.505   3.570 -0.0143 -0.0938 -0.3275
22962W        W39223   9.026  14.742  12.834  0.0937  0.3361 -0.2496
22963W        W39224   8.914  12.981   1.183  0.1002 -0.2784 -0.0692
22964W        W39225   1.632   6.989  13.581 -0.3087  0.0771  0.6026
22965W        W39226  12.731   5.127  13.821  0.1511  0.2245  0.0606
22966W        W39227  16.195  15.951   4.410 -0.3097 -0.2209  0.0140
22967W        W39228   7.271   4.152   0.880 -0.0245  0.1258  0.1148
22968W        W39229   3.095  14.169  12.878 -0.2735  0.1771 -0.5193
22969W        W39230  17.424   9.873  12.382  0.3264  0.2675 -0.3592
22970W        W39231   6.958   8.106   6.451  0.0460 -0.1451 -0.0832
22971W        W39232   4.730   1.328  12.895 -0.0076 -0.0977  0.3890
22972W        W39233  10.211   0.832   1.100  0.1178 -0.0606  0.2501
22973W        W39234   7.368  12.300   2.433 -0.0699  0.2660  0.3631
22974W        W39235   5.330   9.522  13.679 -0.0396  0.1405  0.0918
22975W        W39236  18.078  15.132  12.151  0.1957  0.2774 -0.1325
22976W        W39237   2.260   9.085   2.397 -0.1706  0.1165 -0.2274
22977W        W39238   7.327  11.844  12.557  0.0433 -0.2859  0.1953
22978W        W39239   1.457  14.243   1.426  0.0828 -0.1038 -0.0193
22979W        W39240   0.946   3.130   5.947  0.2325 -0.2077  0.1636
22980W        W39241  15.444   0.016   2.063  0.0332 -0.1301 -0.0624
22981W        W39242   1.177  11.672   1.085  0.0999  0.1981 -0.0899
22982W        W39243   6.543   0.674  16.053  0.1076 -0.0519 -0.0661
22983W        W39244   6.795   6.969  14.609  0.1154  0.0175  0.2410
22984W        W39245   3.595   8.411  15.048  0.1296 -0.3288  0.2264
22985W        W39246   9.564  13.192  12.018  0.2621  0.1460 -0.0385
22986W        W39247  15.460   1.668  13.288 -0.0610  0.3088 -0.0665
22987W        W39248  10.960   6.331   1.283  0.0469 -0.0459 -0.0194
22988W        W39249   5.094  17.144  12.284 -0.3225 -0.3537  0.0453
22989W        W39250   7.462   9.333   2.237  0.0440  0.3661  0.3635
22990W        W39251   3.743  13.465   2.018  0.0305  0.0588 -0.3395
22991W        W39252   0.605   9.258   4.707  0.0326 -0.0178  0.0777
22992W        W39253  14.660  15.083  10.296  0.0136  0.1512 -0.1264
22993W        W39254  18.434  10.587  13.546 -0.1081  0.3023 -0.4976
22994W        W39255  13.719  16.846  14.887 -0.0589 -0.0630 -0.1069
22995W        W39256   0.745  10.166   1.867  0.3647  0.2601 -0.1384
22996W        W39257  17.766   0.541   1.916  0.0832  0.2683 -0.0725
22997W        W39258   2.002   6.031  11.675 -0.4468  0.1260 -0.0504
22998W        W39259   1.125   9.103   4.362  0.1918 -0.0434 -0.2179
22999W        W39260  18.350  13.595   4.134 -0.0866  0.0018 -0.4054
23000W        W39261   5.334  14.428  16.114 -0.0354 -0.1673 -0.0652
23001W        W39262   4.478  14.003  13.362 -0.1265  0.0653  0.0212
23002W        W39263   9.407   7.536   4.704 -0.0395  0.0436  0.1437
23003W        W39264  18.298   7.500   4.604  0.2214 -0.1680  0.0786
23004W        W39265   9.112  17.046  10.648 -0.5081 -0.3249  0.1547
23005W        W39266  16.693   7.779  11.185  0.0695 -0.1816  0.1357
23006W        W39267   8.957  13.294  16.158  0.0399 -0.1974 -0.4734
23007W        W39268  16.076  13.922   9.988 -0.3055  0.1153 -0.1498
23008W        W39269   3.285  15.345  12.168 -0.0919 -0.2292 -0.1821
23009W        W39270   4.294   1.280   1.236  0.1343  0.2265 -0.0804
23010W        W39271   0.540   2.871   1.790  0.1246 -0.0176 -0.0548
23011W        W39272   4.372   8.649   1.730 -0.1342  0.2456 -0.0431
23012W        W39273  15.888  11.983   2.033  0.4340  0.2640 -0.2254
23013W        W39274  16.014   5.185   0.848 -0.0570  0.1695  0.3515
23014W        W39275   4.515  12.282  16.035 -0.5477 -0.2281  0.0012
23015W        W39276  18.258  14.551   0.366  0.1569  0.1983 -0.0779
23016W        W39277  14.888   7.350  11.190 -0.1600  0.4764  0.0735
23017W        W39278  10.453   3.578   3.292 -0.1140  0.1135  0.0797
23018W        W39279  15.317  10.678  12.690 -0.2495 -0.0306 -0.1241
23019W        W39280   4.113   7.614   5.583 -0.1234 -0.0024 -0.2752
23020W        W39281   4.489   5.800   5.436  0.0110  0.0024 -0.0017
23021W        W39282  18.222  11.215  16.182  0.0334  0.1636 -0.4809
23022W        W39283  16.841  16.916   4.712 -0.1907  0.1526  0.0286
23023W        W39284  11.822  14.456  14.757 -0.1215 -0.0371 -0.5152
23024W        W39285  13.380   2.279  16.078 -0.0030  0.1712  0.1173
23025W        W39286  12.182   1.998   1.180  0.1655 -0.0396  0.0986
23026W        W39287  12.152   9.680   1.097 -0.0939 -0.0153 -0.1663
23027W        W39288  10.186   3.203   3.733  0.3139 -0.1145  0.1115
23028W        W39289  13.684  12.351   0.304  0.0752  0.1161 -0.0904
23029W        W39290  13.255  10.841  11.719 -0.1329  0.0649  0.0772
23030W        W39291   8.984  17.235  13.867  0.1030 -0.0909 -0.0100
23031W        W39292  13.200  14.395   4.872  0.2926 -0.1344 -0.3907
23032W        W39293  12.744   4.602  11.263 -0.0416 -0.5100 -0.1534
23033W        W39294   1.546   2.945  13.085  0.0409 -0.1614  0.1329
23034W        W39295   8.577  11.532  14.953 -0.0652 -0.1886  0.3429
23035W        W39296  17.205   7.516  14.121  0.0484  0.1826  0.2501
23036W        W39297  18.256   7.614  12.404 -0.1928 -0.5206 -0.1224
23037W        W39298   1.776   0.689  12.621  0.3064 -0.1303 -0.1807
23038W        W39299  11.093   2.493   5.129 -0.0269  0.0774  0.2568
23039W        W39300   5.007   6.752  14.426 -0.3535 -0.3155  0.0595
23040W        W39301  16.006  17.954   1.600  0.0291  0.3884 -0.0026
23041W        W39302   9.971   4.472  13.469  0.1523 -0.0135 -0.1686
23042W        W39303   5.310   0.242   5.486  0.3380  0.0844 -0.0409
23043W        W39304   0.422   8.692  15.228 -0.1163  0.2707 -0.1584
23044W        W39305   9.327   6.265  14.688 -0.0304 -0.1013  0.1083
23045W        W39306  13.079   9.309   4.923 -0.2277  0.2222 -0.2234
23046W        W39307   2.243   2.878   5.733 -0.1316 -0.1489 -0.0293
23047W        W39308  10.481  14.566   0.265 -0.0873  0.3191 -0.1013
23048W        W39309  16.471   8.800   3.841  0.4383  0.0364  0.0000
23049W        W39310  10.595   7.744   1.525  0.0918 -0.1617  0.1589
23050W        W39311   6.390   6.783   5.283  0.2409 -0.0529  0.4284
23051W        W39312   1.333   6.325   3.031  0.3346 -0.1941 -0.1910
23052W        W39313  13.813  17.208  13.620 -0.1507 -0.0842 -0.2316
23053W        W39314   6.453  14.418   4.919 -0.1455  0.0609 -0.0005
23054W        W39315  14.685   6.833  11.232 -0.0675  0.0363  0.0632
23055W        W39316  15.723   1.693  12.866 -0.1811  0.2995  0.0563
23056W        W39317   2.237  16.029  15.757 -0.0082  0.0450  0.3818
23057W        W39318  11.721   8.275  11.922 -0.0153 -0.3648 -0.1706
23058W        W39319   8.114   6.625  16.001 -0.1025  0.1934 -0.0315
23059W        W39320  10.958  10.327  11.930 -0.1667  0.0312 -0.1642
23060W        W39321   3.998  16.469   1.581 -0.0173 -0.0587 -0.1042
23061W        W39322  12.611  15.995  15.452  0.1233 -0.1716 -0.2935
23062W        W39323   0.131   5.827   3.557 -0.0350 -0.2922 -0.3562
23063W        W39324  17.179  18.323  15.531 -0.2387 -0.1542 -0.1518
23064W        W39325  16.437   2.984   0.861 -0.0304  0.1934  0.1210
23065W        W39326   0.910   5.740   5.203  0.0996  0.0201  0.0177
23066W        W39327   3.217   2.429  12.985  0.1046  0.1869  0.2046
23067W        W39328  13.659  18.210   0.503  0.1111  0.0511 -0.2660
23068W        W39329   2.245  15.919   2.034 -0.1015  0.1360  0.3184
23069W        W39330  13.156  13.817  14.860  0.1321 -0.0592 -0.0285
23070W        W39331  14.064  17.394  13.040  0.0891  0.0301  0.2108
23071W        W39332   4.987   8.564   6.155 -0.1367  0.3069 -0.2598
23072W        W39333  10.473  11.488  14.682 -0.0844 -0.1722  0.0419
23073W        W39334   8.673  14.855   3.639 -0.0470 -0.3478  0.0737
23074W        W39335  15.254  11.216   5.312 -0.0469 -0.3145  0.0126
23075W        W39336  17.509   8.029  15.731 -0.0784  0.0181  0.2123
23076W        W39337   6.019  10.968   3.003  0.0264  0.2560 -0.3134
23077W        W39338  16.951   0.843   2.364  0.3652  0.0481  0.0776
23078W        W39339   9.639  11.930   3.617 -0.1482  0.0646 -0.0279
23079W        W39340   6.113  12.907   2.517  0.3220 -0.2795 -0.2992
23080W        W39341  12.757   2.149  15.016 -0.1634  0.1827  0.2122
23081W        W39342   7.784  13.321  11.745 -0.0028 -0.0177  0.0608
23082W        W39343  13.454  10.694  13.119 -0.1533  0.2746  0.3247
23083W        W39344   7.875   9.875  15.526  0.0981  0.0055 -0.0489
23084W        W39345   4.929   4.233   4.912  0.1166  0.1430 -0.0659
23085W        W39346  15.942   6.090   1.813  0.1486  0.2308  0.0941
23086W        W39347  15.727  15.764   0.886  0.2175  0.0269 -0.0124
23087W        W39348  10.376  11.347   4.157 -0.0458 -0.1433  0.0654
23088W        W39349  14.908   2.830  13.755 -0.0835 -0.3424 -0.2331
23089W        W39350   1.259   5.025   5.241  0.1969  0.0279  0.0552
23090W        W39351   7.105   0.146  13.016  0.0366  0.0048 -0.3101
23091W        W39352   5.410  10.611  12.185 -0.2395  0.1328  0.2717
23092W        W39353   2.881   5.018   0.568  0.0762  0.1399 -0.2564
23093W        W39354   3.230   1.002   5.561 -0.0455 -0.1598  0.2385
23094W        W39355  10.347   9.873   3.933 -0.1146 -0.1875 -0.1136
23095W        W39356  14.457   3.545  13.671 -0.0101 -0.1450  0.4238
23096W        W39357  12.212  16.324   1.907 -0.0660 -0.0108  0.0557
23097W        W39358   4.721   0.748   5.422  0.0230  0.1252  0.0402
23098W        W39359  13.011   7.543   4.714 -0.0780  0.0622  0.1514
23099W        W39360   5.646  16.372  12.699  0.0067  0.3216 -0.1674
23100W        W39361   1.470  15.310  13.632  0.0421  0.3267  0.2470
23101W        W39362   3.245   0.561   1.057  0.0163 -0.0183 -0.0943
23102W        W39363  14.733   2.991   2.083  0.2757 -0.1530  0.1050
23103W        W39364   5.003  10.104   0.693  0.1868 -0.5506 -0.1098
23104W        W39365   0.857  17.196  12.952 -0.4234  0.1186  0.1486
23105W        W39366  10.479  11.227  15.107  0.0786  0.2299  0.0930
23106W        W39367   1.902   9.351  12.587 -0.0652  0.0043 -0.0840
23107W        W39368   6.747   5.956  13.194 -0.2365 -0.0034 -0.0074
23108W        W39369   2.351   2.725  15.981  0.1965 -0.2800 -0.1600
23109W        W39370   9.155   8.814   3.582 -0.2936 -0.0324  0.0989
23110W        W39371   4.999  11.864   2.012  0.2450  0.1269 -0.0684
23111W        W39372  18.195   6.244  15.575  0.1298  0.0312 -0.0950
23112W        W39373  13.654   2.198  15.654 -0.0519 -0.2017 -0.1183
23113W        W39374   6.870   3.641  11.756  0.1038  0.2370  0.0533
23114W        W39375  18.233   2.107   3.657 -0.0720  0.1890 -0.0388
23115W        W39376  12.928   0.856  13.076 -0.0440 -0.1756  0.3013
23116W        W39377  17.346  12.254   3.603  0.2222  0.0087  0.1875
23117W        W39378  10.476  17.231  12.522 -0.1297  0.2477  0.0516
23118W        W39379  12.322   1.038  12.213  0.1674  0.1451  0.1138
23119W        W39380   6.286  11.328   4.815 -0.0563  0.2011 -0.0198
23120W        W39381  17.494   0.744  11.475  0.0729 -0.0643  0.0086
23121W        W39382  18.052  11.977   1.398  0.0565 -0.2575 -0.1547
23122W        W39383   8.768   2.884  12.619  0.1305 -0.3030  0.1400
23123W        W39384   1.233  10.990   1.837 -0.0903  0.1582  0.2637
23124W        W39385  10.934  15.910  12.308  0.1231  0.3561 -0.4614
23125W        W39386   1.375   0.692  11.809  0.0621  0.3423 -0.2939
23126W        W39387   7.023   2.225  13.211  0.0108 -0.3081 -0.3121
23127W        W39388   8.237  16.470  14.264 -0.3123 -0.1921 -0.2285
23128W        W39389   7.520   5.919  13.427 -0.0254  0.0070 -0.2019
23129W        W39390  15.204  10.220  12.589 -0.1563  0.2730 -0.0208
23130W        W39391  17.289   6.953   2.934 -0.1507  0.3561 -0.0608
23131W        W39392  14.679  17.413  10.675 -0.0084 -0.1485 -0.1154
23132W        W39393  12.410   5.903  16.103 -0.5549  0.2423  0.0907
23133W        W39394   4.969   4.016   6.368  0.3685  0.0743 -0.1783
23134W        W39395   7.473   4.367   0.401  0.3052 -0.1566 -0.0429
23135W        W39396  18.148  17.315   2.747 -0.1690 -0.2755 -0.1056
23136W        W39397  13.235  17.759  13.844 -0.0604 -0.1239 -0.3868
23137W        W39398  11.755  13.078  11.412 -0.1703 -0.3355 -0.1241
23138W        W39399   6.299  16.811   3.782  0.0529 -0.0969  0.2484
23139W        W39400   0.348   0.565   5.476 -0.0502 -0.0419 -0.3613
23140W        W39401  17.806   7.868   5.377 -0.0386 -0.1612  0.0685
23141W        W39402   8.681   5.363  13.692  0.0839  0.1830  0.3399
23142W        W39403  10.070  15.279   4.659 -0.0701  0.0848 -0.1742
23143W        W39404   4.969   2.935  15.421  0.2484 -0.0834 -0.4035
23144W        W39405  15.026  14.590   4.240 -0.2654  0.0338  0.1044
23145W        W39406  18.483  13.905  12.028 -0.0522 -0.1249  0.0051
23146W        W39407   2.034  16.369   1.646 -0.1574  0.0602  0.0154
23147W        W39408   3.789  11.579   0.647 -0.1575  0.0460  0.1235
23148W        W39409   0.815   7.119   1.551 -0.2032  0.0849  0.1584
23149W        W39410  16.394  15.741  13.350  0.0648 -0.1738  0.0418
23150W        W39411   3.302  11.198   5.383  0.2662  0.1358  0.0769
23151W        W39412   2.144   0.454   0.702 -0.1856 -0.0896  0.0676
23152W        W39413  14.739   9.043   2.930 -0.1462 -0.3108  0.2943
23153W        W39414  13.859   7.751  12.086 -0.0138  0.2625 -0.0993
23154W        W39415  16.743  11.956   2.921 -0.0981  0.0308  0.0575
23155W        W39416   3.702   6.427   1.434  0.2242  0.0503 -0.4058
23156W        W39417  17.670   5.661  16.184 -0.1466  0.0458 -0.0846
23157W        W39418   5.665   6.442  15.690 -0.2615  0.0441  0.2397
23158W        W39419   5.172   4.795  12.978 -0.2287  0.0560  0.0381
23159W        W39420   2.443   8.819  15.653 -0.1192 -0.1831  0.0268
23160W        W39421   9.755   7.418   2.954 -0.3814  0.3687  0.2616
23161W        W39422  16.930   1.266  13.609 -0.1022 -0.0118 -0.4634
23162W        W39423  17.977  16.499   1.243  0.0078 -0.0138  0.2774
23163W        W39424   4.584   8.980   2.131  0.1002  0.0674  0.1520
23164W        W39425  14.723  16.601  15.809 -0.3646  0.1912 -0.1971
23165W        W39426  14.950  14.139  12.994 -0.0755  0.1967  0.1930
23166W        W39427  11.864   7.552  15.930 -0.1484  0.1442  0.3993
23167W        W39428  11.847  15.819  10.730  0.5443  0.1224 -0.1207
23168W        W39429  11.477  16.602  15.348  0.1701 -0.0365 -0.3913
23169W        W39430  17.015  15.794  14.969 -0.0809 -0.1328 -0.5194
23170W        W39431   4.714   3.644   3.090  0.0240  0.0290  0.1185
23171W        W39432   3.309   2.193   4.247 -0.0329  0.1099 -0.1129
23172W        W39433   2.301  14.203  12.268 -0.3254  0.0540 -0.4022
23173W        W39434  11.770  17.104   1.735 -0.2595 -0.0373  0.0157
23174W        W39435  16.836   3.752  12.550  0.0852  0.2365 -0.1037
23175W        W39436   9.463   8.537  13.339 -0.1138  0.1201 -0.1160
23176W        W39437  17.142   9.873  13.302 -0.0192 -0.0540 -0.1773
23177W        W39438   1.694  11.144  13.635 -0.0605 -0.0190  0.0147
23178W        W39439  11.553   5.521  11.167 -0.0866  0.2982  0.0649
23179W        W39440  10.912   9.857   5.275 -0.1101  0.2728  0.2307
23180W        W39441  10.850  17.275  10.650 -0.2300  0.0817  0.0456
23181W        W39442   3.344   6.903  14.829 -0.1136  0.3095  0.4838
23182W        W39443  16.402   4.849   0.573  0.0128 -0.0498 -0.0623
23183W        W39444   2.847  17.099  14.204  0.2637  0.1266  0.1946
23184W        W39445  15.466  10.718  16.096 -0.3732  0.0140 -0.3817
23185W        W39446   1.960   3.367  11.723  0.1140 -0.0176  0.0483
23186W        W39447  11.038   6.920   1.457 -0.2144 -0.0649 -0.1072
23187W        W39448  17.588   7.283  13.812  0.0830  0.0020 -0.0493
23188W        W39449   2.671   1.069  15.517 -0.0382  0.2349 -0.1753
23189W        W39450   3.281  12.635   2.435 -0.0300  0.1084 -0.2523
23190W        W39451   0.340   1.114  15.807 -0.2260 -0.1482  0.1034
23191W        W39452   7.784  11.506   4.730  0.1118 -0.1086 -0.0411
23192W        W39453   8.939   4.765   0.484  0.1023  0.2920 -0.1266
23193W        W39454   0.227  15.545  13.328 -0.2900 -0.1402  0.3149
23194W        W39455   2.449  14.994   2.708 -0.1060  0.1043 -0.0631
23195W        W39456  15.654  17.963  11.562 -0.1692 -0.3879  0.2368
23196W        W39457  11.969   1.535  11.671 -0.1154  0.3561 -0.4206
23197W        W39458  16.361  15.518   1.378 -0.3041  0.1765  0.0448
23198W        W39459   1.586   3.287  12.073 -0.0485  0.0885 -0.4716
23199W        W39460  13.225   0.542   1.258 -0.1617  0.0332 -0.1920
23200W        W39461   6.079  17.654   3.352 -0.0475  0.3178  0.1544
23201W        W39462  10.224   3.602  13.694 -0.1136  0.0205 -0.1413
23202W        W39463  17.317   9.370  11.060  0.0917  0.1029  0.0895
23203W        W39464  16.367   3.143   3.261  0.1829 -0.0641  0.1430
23204W        W39465  13.900  17.706  16.078 -0.1106  0.2875  0.1819
23205W        W39466  14.847   7.791   1.620 -0.0428  0.0891  0.1357
23206W        W39467   9.982  15.161   3.213 -0.1068 -0.0494  0.2409
23207W        W39468   8.446  15.232   4.011  0.1525 -0.0402  0.0816
23208W        W39469  15.054  16.199  11.809  0.2727 -0.3610  0.1211
23209W        W39470  17.684   5.716  12.815 -0.2459  0.0847 -0.0404
23210W        W39471   2.055  14.813  11.584 -0.3595 -0.0857 -0.0434
23211W        W39472  11.421  17.918   4.044  0.0217  0.2895  0.1390
23212W        W39473  14.191   6.252  15.782 -0.0226  0.2521  0.0411
23213W        W39474   7.476  14.716   2.519  0.0347  0.3748  0.1505
23214W        W39475  17.911   3.680   5.113 -0.1283  0.2144  0.0505
23215W        W39476  14.453   7.761  14.684 -0.0019 -0.0319 -0.1884
23216W        W39477   8.065  12.207   4.190 -0.0709  0.0082  0.0671
23217W        W39478  16.479   7.035  15.995 -0.4007 -0.4336 -0.2732
23218W        W39479   2.877   6.020   1.601  0.2131  0.1992 -0.0200
23219W        W39480   9.856   8.213  11.696 -0.3772 -0.1777 -0.0537
23220W        W39481   7.131   7.783   0.301 -0.1224 -0.1809 -0.0371
23221W        W39482   7.203  14.504  11.506 -0.2804  0.1929  0.1597
23222W        W39483   5.313  15.452   4.470  0.0257  0.1638  0.4238
23223W        W39484   2.072   4.473  13.708  0.4660 -0.0605 -0.0846
23224W        W39485  10.171   2.964   2.635 -0.3089 -0.3384  0.1099
23225W        W39486   3.969  11.906  13.314  0.2165  0.0959 -0.5367
23226W        W39487  11.837   6.551  14.881 -0.0345  0.0100 -0.0450
23227W        W39488  16.706  14.192   0.970 -0.1171 -0.2342  0.0364
23228W        W39489   7.699  17.966   1.673  0.1102 -0.1407 -0.1043
23229W        W39490   1.545   9.280  15.613 -0.1832  0.3429  0.0429
23230W        W39491  17.039  11.897   1.088 -0.0886 -0.1277  0.2559
23231W        W39492  17.232   3.314  13.284  0.0617  0.1598 -0.2408
23232W        W39493  14.366   2.857  11.974 -0.0879 -0.2961  0.1135
23233W        W39494  14.216   0.563   3.585  0.2321 -0.1450  0.3661
23234W        W39495  15.665  11.897  10.482 -0.1084 -0.5327 -0.1962
23235W        W39496   2.564   2.170  11.851  0.0507 -0.0664 -0.1282
23236W        W39497   2.574   4.624  12.227  0.0830 -0.0697 -0.2857
23237W        W39498  12.049   7.365   2.672 -0.0350  0.3921 -0.0072
23238W        W39499  12.996  10.742   3.635 -0.4589 -0.4280  0.3592
23239W        W39500   7.868   7.918   4.432 -0.1924 -0.0342  0.1843
23240W        W39501   9.053  14.795   1.303 -0.0550  0.0845 -0.1556
23241W        W39502  14.174   5.959   2.235 -0.1225  0.1906  0.0380
23242W        W39503   1.886   6.347   3.185 -0.1361  0.1221 -0.1288
23243W        W39504   9.442   6.520   3.503  0.1274 -0.2120  0.0247
23244W        W39505  18.173  10.209   3.387  0.4681 -0.1078  0.1980
23245W        W39506   9.147  10.275  11.234 -0.0667 -0.0304  0.1646
23246W        W39507  17.255   7.871  16.150  0.0511  0.0052  0.1310
23247W        W39508   4.989  10.343   1.690 -0.3413  0.3412  0.0690
23248W        W39509   8.072   2.320  11.838  0.0951 -0.0454  0.1912
23249W        W39510  11.037  11.198   1.358 -0.1013 -0.0005 -0.0081
23250W        W39511   2.725  14.204  15.912 -0.1998  0.1601  0.2645
23251W        W39512   4.254   7.582   4.584 -0.1957 -0.2793  0.4671
23252W        W39513  17.987   7.256   2.445 -0.0400 -0.2183  0.0921
23253W        W39514  15.649  13.965   1.240 -0.1006 -0.1340  0.0312
23254W        W39515  17.578   4.384  14.747 -0.1234  0.1520 -0.2516
23255W        W39516   2.892   9.820  15.716  0.1113  0.2541  0.1248
23256W        W39517  17.580  11.171   1.427 -0.3314 -0.0299 -0.2539
23257W        W39518  11.297   2.282  11.551 -0.0190 -0.1293 -0.1202
23258W        W39519   2.176   8.262  11.254 -0.0448  0.2379  0.0911
23259W        W39520   4.987   7.913   3.327 -0.2019 -0.1638 -0.0675
23260W        W39521   9.006  17.573  12.181  0.1189  0.2122  0.0143
23261W        W39522   4.685   6.696   0.741 -0.1493 -0.1489 -0.0996
23262W        W39523  11.855   9.587   3.026 -0.0691 -0.0003 -0.1437
23263W        W39524  11.384   7.213  12.978  0.1146  0.1442 -0.1329
23264W        W39525  10.152  14.767  13.963 -0.0115 -0.0260  0.2867
23265W        W39526   8.043   5.718   2.979 -0.1723 -0.1722  0.2048
23266W        W39527  11.839   1.337  13.840 -0.0292 -0.1778 -0.1474
23267W        W39528  16.267   1.917   4.626  0.1832 -0.0452  0.0298
23268W        W39529   9.167  12.306  11.741 -0.0237 -0.0467  0.4440
23269W        W39530   3.076  13.781   2.145 -0.3612 -0.3836 -0.4413
23270W        W39531  13.578   8.551   0.899  0.0800 -0.0508 -0.1522
23271W        W39532  10.085  11.487   2.569 -0.0710  0.3745 -0.0940
23272W        W39533   4.926   9.977   5.596  0.3841  0.1488 -0.1525
23273W        W39534  10.220   4.515   3.845 -0.2284  0.3504  0.0010
23274W        W39535   6.144  14.059   5.101 -0.2336  0.1618 -0.1115
23275W        W39536   1.202  10.972  13.529 -0.1570  0.3391 -0.0699
23276W        W39537  14.443  11.465  11.615  0.1227  0.1142 -0.0234
23277W        W39538   5.878  15.071   3.318 -0.1211 -0.0165  0.1681
23278W        W39539  10.832  11.640  15.090 -0.0077 -0.1817  0.0158
23279W        W39540  11.746   3.073  11.717 -0.3442 -0.0401  0.1931
23280W        W39541   4.692  15.994   0.962  0.0029  0.1068  0.0643
23281W        W39542   7.258   3.736  12.081  0.1901  0.0991 -0.0325
23282W        W39543   6.119   7.443  11.641 -0.1778 -0.0457 -0.3992
23283W        W39544   6.960   8.696   1.611  0.2205  0.1915  0.2238
23284W        W39545   9.381   6.474   5.461 -0.1286  0.1030  0.0083
23285W        W39546  11.633   6.718  13.696 -0.1718 -0.1932 -0.0041
23286W        W39547  13.217   4.466   4.726  0.1514 -0.0091 -0.0062
23287W        W39548   0.781   5.556  12.915  0.0652 -0.0243  0.0622
23288W        W39549   8.020   1.624  13.899  0.1114  0.3155  0.2434
23289W        W39550  10.407  14.670   0.989 -0.0391  0.1916 -0.3163
23290W        W39551  13.098   3.763   0.011  0.1436 -0.2149 -0.0906
23291W        W39552  11.560  11.109   1.200  0.2092 -0.0029 -0.0093
23292W        W39553  11.725   8.697   4.037 -0.0708  0.0257  0.1475
23293W        W39554  16.646  16.059  12.196  0.3628  0.1219 -0.1558
23294W        W39555  10.332   3.121   3.191 -0.0740  0.0343  0.0738
23295W        W39556  15.137  11.519   0.540 -0.3033 -0.1134  0.0927
23296W        W39557   5.170   7.716   1.320 -0.0973 -0.1598 -0.0638
23297W        W39558  10.211  10.128  11.271 -0.0062  0.1028  0.0897
23298W        W39559   8.287  15.274   1.148  0.3813 -0.1617 -0.1017
23299W        W39560   1.508   5.659   4.612  0.0928  0.1255 -0.1419
23300W        W39561  13.299   3.126   4.404 -0.0455  0.0071  0.0033
23301W        W39562   3.770  16.080  13.358  0.1628 -0.1328  0.1572
23302W        W39563  17.161   1.702  11.366  0.0853  0.0177  0.2598
23303W        W39564   2.629  18.272   1.615  0.1880 -0.2099  0.0230
23304W        W39565   2.250  16.194   3.441  0.2250  0.0755 -0.0582
23305W        W39566  10.621  15.099   2.222  0.0003 -0.0371  0.1165
23306W        W39567  17.096   4.352  15.689  0.0510 -0.0450  0.3459
23307W        W39568  16.725  16.387  13.005 -0.1192 -0.0708 -0.1230
23308W        W39569   5.945  15.143   2.396  0.1940 -0.0863  0.1670
23309W        W39570  13.056  15.743   0.523 -0.0560  0.1612  0.1681
23310W        W39571   4.372  11.676  13.368 -0.0939 -0.0803 -0.0151
23311W        W39572   5.390  10.022  12.039  0.3605 -0.1757 -0.0295
23312W        W39573  15.910   6.761   0.888 -0.0833 -0.3749 -0.1725
23313W        W39574   6.475  12.204   4.145  0.0171  0.0039 -0.0797
23314W        W39575  14.656   2.071   1.942  0.1656 -0.1154  0.2867
23315W        W39576  10.296   7.513  13.290  0.0365 -0.1193 -0.0079
23316W        W39577   7.375   2.570  13.757 -0.0793 -0.0726 -0.0606
23317W        W39578  16.286  14.612   3.734 -0.0533 -0.0246  0.0454
23318W        W39579   5.948   9.878  15.474  0.0714  0.0142  0.1850
23319W        W39580   7.756  14.381  13.183  0.0412  0.2566 -0.3656
23320W        W39581   7.987  14.391   3.900  0.0131 -0.0784 -0.2504
23321W        W39582  16.100   1.722   1.599 -0.0580 -0.2271 -0.2586
23322W        W39583   1.041   8.511   0.715 -0.0717  0.0364 -0.1662
23323W        W39584   7.363   8.088   4.452  0.1092  0.0341 -0.1491
23324W        W39585   1.879   5.600  14.509  0.0351  0.1375  0.2194
23325W        W39586   3.738  16.637   2.094 -0.0851 -0.2392  0.1413
23326W        W39587   6.118   9.221   5.477  0.0161  0.0926  0.0836
23327W        W39588   7.732  17.824   0.710  0.0291 -0.2696  0.0879
23328W        W39589   8.312  15.196  14.684  0.0857  0.3094  0.1081
23329W        W39590  12.622   9.907   4.548  0.1283 -0.0144  0.0180
23330W        W39591   3.428  10.934  15.897 -0.0890 -0.0360 -0.0389
23331W        W39592   5.874   0.304   5.732  0.1942  0.1024  0.0254
23332W        W39593   3.871   9.815   5.628 -0.1045 -0.3380 -0.3616
23333W        W39594   8.484   3.763  11.964  0.1023  0.1497  0.1088
23334W        W39595  10.967   1.024   4.527  0.1131 -0.1775 -0.0527
23335W        W39596   3.247   5.896   0.605 -0.3203 -0.1021 -0.0774
23336W        W39597  13.612   9.122  11.753  0.1354 -0.1241  0.1553
23337W        W39598   8.475  12.742   5.336 -0.1687  0.0601  0.0074
23338W        W39599  12.403  13.734  11.258  0.1612 -0.0037 -0.1038
23339W        W39600  12.985  15.739   5.072  0.0277  0.1733  0.1479
23340W        W39601   6.866   3.592   1.897  0.3169  0.2431  0.0124
23341W        W39602  15.888  13.359   4.083 -0.1963  0.1788  0.0197
23342W        W39603  11.337   7.434   3.866  0.3271 -0.0733 -0.0039
23343W        W39604   6.997  15.060  14.996  0.0434  0.1661 -0.2435
23344W        W39605   0.373   6.356  12.356 -0.0052 -0.1418 -0.3978
23345W        W39606  15.259   1.025   4.412 -0.0094  0.2347  0.0981
23346W        W39607   2.364  14.656   2.369 -0.1518 -0.1507 -0.1962
23347W        W39608  17.028  16.998   5.412 -0.1215  0.0526  0.1279
23348W        W39609  12.128  10.774   4.465 -0.0497 -0.0024  0.1211
23349W        W39610   1.993   7.748  12.430 -0.0346 -0.0938 -0.1295
23350W        W39611   3.378  11.209  14.890  0.2116 -0.0196  0.0169
23351W        W39612   1.508  17.989   3.102 -0.3505  0.1778  0.0111
23352W        W39613  16.951  10.550   1.051  0.0784  0.0023 -0.3166
23353W        W39614   3.060  18.009  12.645 -0.0402 -0.1505  0.2780
23354W        W39615  11.901   9.986  13.521 -0.1247  0.0236  0.3081
23355W        W39616  18.180   6.030   3.363  0.0062  0.0113 -0.0447
23356W        W39617   2.177  16.054   0.158 -0.3105  0.2724 -0.0530
23357W        W39618   2.346  16.530   0.699 -0.2582 -0.0618  0.0485
23358W        W39619   5.162  13.695  13.928  0.4577  0.3868  0.1300
23359W        W39620  12.281  15.672  10.607 -0.2392 -0.3053  0.1025
23360W        W39621  16.876   7.140  13.230 -0.0142  0.1338 -0.0885
23361W        W39622   1.127   6.613   6.317 -0.0589 -0.1151  0.1376
23362W        W39623   9.989  12.007   3.288 -0.0544 -0.2006  0.0944
23363W        W39624  10.795   0.054   4.612 -0.2404 -0.1906 -0.1014
23364W        W39625  10.068   9.146   1.615  0.2286  0.1351  0.2539
23365W        W39626   7.402   9.092   4.537 -0.2703 -0.0440  0.1766
23366W        W39627  12.425   4.020  11.818  0.1074  0.2986  0.0036
23367W        W39628   4.188  14.910   0.732 -0.0798 -0.3280  0.0362
23368W        W39629  14.062  16.765  12.369 -0.3091 -0.2889  0.0109
23369W        W39630  16.926   9.494  11.383  0.0078 -0.0486  0.3051
23370W        W39631   7.586   7.371   3.103 -0.1785 -0.0098 -0.0863
23371W        W39632   0.917  18.384  15.374  0.1782  0.0671 -0.2246
23372W        W39633  16.125   9.013   0.335  0.1802 -0.1069 -0.1036
23373W        W39634   6.881   8.391  15.256  0.0203  0.3037 -0.1296
23374W        W39635   8.727  10.180  14.390 -0.1506 -0.2247  0.2461
23375W        W39636  11.665  11.392  11.642  0.3159  0.0314 -0.2164
23376W        W39637   6.419  17.348   3.930  0.0479 -0.2200  0.0369
23377W        W39638   5.896   3.196  13.218  0.1047  0.2261  0.2061
23378W        W39639   8.792  10.186   1.213  0.1348 -0.1269 -0.2554
23379W        W39640  12.049  17.163   3.418 -0.1586  0.1893 -0.2322
23380W        W39641  10.643  18.354   3.745  0.0403 -0.0198  0.2061
23381W        W39642   1.160   4.248   4.745 -0.0727  0.2709 -0.2050
23382W        W39643  12.581  13.645  12.560  0.2637 -0.1151  0.0838
23383W        W39644   6.421   7.529   4.075 -0.1425 -0.2047 -0.0350
23384W        W39645   7.286  13.581   2.726  0.0893  0.0961  0.0103
23385W        W39646  12.483   0.665  13.152  0.1309  0.1104 -0.0303
23386W        W39647  14.025   4.674  13.682 -0.2861  0.0878  0.1341
23387W        W39648  12.085  18.470   2.882  0.5968 -0.0004 -0.0887
23388W        W39649  12.289  12.180   0.528  0.0400  0.2075 -0.2308
23389W        W39650  12.930  16.383   0.769 -0.0273 -0.1781 -0.1032
23390W        W39651  15.244   3.644   2.721 -0.1999  0.3174 -0.1543
23391W        W39652   9.084   6.224  11.988 -0.0682 -0.0378  0.3427
23392W        W39653  12.230  15.783   3.501  0.0956 -0.1511 -0.0970
23393W        W39654  12.331  16.142   0.225 -0.3127  0.5256  0.3608
23394W        W39655  13.153   1.831   4.246 -0.1637  0.0022 -0.1689
23395W        W39656   0.665   9.054   3.059 -0.0076  0.0885 -0.1815
23396W        W39657   5.388   7.223  14.425 -0.1423 -0.0342  0.0639
23397W        W39658  14.387   3.582   0.918  0.2544  0.2027  0.0543
23398W        W39659   0.207  15.815  14.939  0.0446  0.1003 -0.2165
23399W        W39660   7.346   3.653  15.250 -0.1599 -0.0814 -0.3386
23400W        W39661   0.846  11.903   1.415  0.0484 -0.4418 -0.2677
23401W        W39662  17.043  11.179  11.674 -0.3999 -0.0510 -0.1977
23402W        W39663   5.262  11.701   0.644  0.0666  0.1331 -0.2055
23403W        W39664  14.466   9.632   1.638  0.0086  0.1632 -0.0024
23404W        W39665   5.339  12.580  11.760 -0.0652  0.0199  0.1003
23405W        W39666   3.209   0.987   2.891  0.3502  0.0802 -0.0223
23406W        W39667  12.601   9.942  11.560  0.2097 -0.1274  0.3028
23407W        W39668  12.290   6.904   0.667 -0.0324  0.1314  0.0229
23408W        W39669   5.547   9.717  12.844 -0.1480 -0.3251 -0.1375
23409W        W39670   4.838   9.022  12.772 -0.2340  0.2320  0.3654
23410W        W39671  10.677  11.891   0.368  0.3439 -0.0148  0.1974
23411W        W39672   1.229  11.215   0.458 -0.0746 -0.2209 -0.1887
23412W        W39673  11.734   6.732  12.198 -0.1891 -0.0603 -0.0416
23413W        W39674  16.757  10.239  13.374 -0.0360  0.0626 -0.1246
23414W        W39675   2.250   8.030   1.003  0.0743  0.3630  0.1439
23415W        W39676   0.296   2.073   3.598  0.1352  0.0668 -0.1796
23416W        W39677  10.534  15.184   1.388  0.1776  0.0080  0.2484
23417W        W39678  15.609  16.556   3.525  0.1361  0.0395 -0.1050
23418W        W39679  17.564  17.172  15.779 -0.0042 -0.0668  0.5484
23419W        W39680  14.917   6.127  13.253  0.0484 -0.1220  0.2441
23420W        W39681   9.807  16.974   2.786  0.2588  0.1332 -0.0926
23421W        W39682   6.856   0.561  15.378 -0.0005 -0.3193 -0.2327
23422W        W39683   9.071   9.075   1.985  0.0425 -0.1037 -0.1553
23423W        W39684  16.734  12.347   1.920 -0.0277  0.0314 -0.2298
23424W        W39685   2.464   1.828  16.056 -0.1215 -0.2351 -0.3805
23425W        W39686  17.801   8.377   2.031 -0.2424 -0.2107 -0.0103
23426W        W39687   1.952  11.563   2.301  0.1137  0.0447 -0.0998
23427W        W39688  10.801  13.917   1.598 -0.2978  0.1218  0.0969
23428W        W39689  11.155  15.084   0.135 -0.4057 -0.4678 -0.2321
23429W        W39690  11.814  17.508   3.871  0.2664  0.5290  0.0910
23430W        W39691   5.166   0.544  14.373  0.0830  0.0362 -0.1103
23431W        W39692  12.108   2.066  15.780  0.0540 -0.1223 -0.2897
23432W        W39693   9.634  16.375   2.603 -0.0748 -0.3494  0.0834
23433W        W39694   6.709   9.243   3.336  0.1409  0.0012 -0.4621
23434W        W39695   2.112  11.570  15.178  0.1681  0.2665 -0.2611
23435W        W39696  13.552   2.073  12.882  0.0840  0.0627  0.0818
23436W        W39697  11.611   4.169  12.357  0.0107 -0.0943  0.1934
23437W        W39698  10.477   8.950   0.272  0.0810  0.1556  0.0179
23438W        W39699   1.632   2.637  15.483  0.1638 -0.1753  0.1415
23439W        W39700  14.955  11.391   2.367  0.2584 -0.1589 -0.3597
23440W        W39701   2.500  14.640   3.111 -0.0149  0.0611  0.2363
23441W        W39702   9.111  12.981  13.245 -0.0762 -0.0119  0.1106
23442W        W39703   6.622   4.892   3.969  0.3313  0.0824  0.0108
23443W        W39704   3.270  10.616   4.324  0.3831  0.2590 -0.3834
23444W        W39705   1.149   8.197  14.075 -0.1342  0.2384  0.0924
23445W        W39706  16.094   4.389  14.409  0.2123 -0.2418  0.2320
23446W        W39707   3.091  14.949  12.374  0.1904  0.0431  0.1092
23447W        W39708   9.121   4.686  13.015 -0.1106  0.3668  0.0838
23448W        W39709  16.159   4.672   3.263  0.0693  0.3038  0.2362
23449W        W39710  10.808  18.201  12.618  0.1642 -0.1079 -0.3966
23450W        W39711   0.168   5.877   2.368 -0.1564 -0.1954 -0.0986
23451W        W39712   1.484  14.154  11.957  0.1537 -0.0039 -0.0116
23452W        W39713  13.135   9.624  14.673 -0.1803  0.0676 -0.2289
23453W        W39714  12.530  10.336   5.826 -0.4716  0.2977  0.2575
23454W        W39715   9.836   7.488   1.447  0.2107 -0.1421 -0.3071
23455W        W39716   6.150   7.309  13.837  0.2783 -0.0874  0.2147
23456W        W39717  14.433  13.436   3.877  0.3213  0.3217  0.1557
23457W        W39718   5.375  18.039   0.598 -0.2822 -0.3940 -0.4329
23458W        W39719  17.073  12.163  12.874 -0.0900  0.2688  0.0807
23459W        W39720  16.875   5.884  11.835  0.0270 -0.0822 -0.0499
23460W        W39721  16.452   8.873  13.731  0.0510  0.0660  0.2575
23461W        W39722   4.058   7.761   3.192  0.2031  0.0924 -0.2257
23462W        W39723   2.193   0.146  11.789 -0.1607  0.2420  0.1259
23463W        W39724  10.466  17.847   4.428  0.0032 -0.1249 -0.2419
23464W        W39725   0.857   7.921  13.122 -0.0373 -0.1321 -0.0311
23465W        W39726   7.577  13.876   4.705 -0.0885 -0.2772 -0.3948
23466W        W39727   0.170   8.837   1.234  0.2202 -0.0365  0.1213
23467W        W39728   5.168   5.045  11.874 -0.0719 -0.0884 -0.2714
23468W        W39729  14.260   3.363   0.029  0.2954 -0.0726 -0.0565
23469W        W39730   5.453  10.226  13.414  0.2263  0.3194 -0.0330
23470W        W39731  10.426   5.639   0.624  0.4004  0.1954  0.1138
23471W        W39732  12.185  12.735   0.720 -0.1474 -0.0850  0.1468
23472W        W39733   5.254  11.720  11.985  0.2112  0.1729 -0.2490
23473W        W39734   4.241  11.094   6.186 -0.2224  0.0882  0.2255
23474W        W39735  10.328   0.808  15.381 -0.1303 -0.1197  0.0795
23475W        W39736   3.796  13.127  11.705 -0.0181 -0.2698 -0.3777
23476W        W39737   7.328   8.720  13.896  0.1819  0.4127 -0.4343
23477W        W39738   1.230  16.233   1.266 -0.2632 -0.0559  0.0700
23478W        W39739   2.540   5.033  15.197  0.1648  0.0792 -0.0643
23479W        W39740   7.999  18.467  12.991  0.1235  0.1669  0.3008
23480W        W39741   5.763   7.620  13.568  0.1764 -0.1414 -0.4545
23481W        W39742   6.551   5.752  15.194  0.1518 -0.1410 -0.0652
23482W        W39743   7.393  10.061  13.176 -0.0015  0.1446  0.1149
23483W        W39744  15.846  17.882  16.094 -0.1360  0.0515  0.1250
23484W        W39745  15.581   5.766   3.691  0.0087  0.1571  0.1495
23485W        W39746  16.090  10.615   2.824  0.3203 -0.2464  0.1767
23486W        W39747  10.838  13.113   3.114  0.0879 -0.0500 -0.1850
23487W        W39748   4.960   1.947   3.758 -0.0384 -0.1046  0.3335
23488W        W39749   6.541   4.058   2.290 -0.1191  0.0340  0.2838
23489W        W39750  11.524  11.713  13.852  0.0894  0.0232 -0.0610
23490W        W39751   0.131  12.179   2.514 -0.0709 -0.2381 -0.1651
23491W        W39752   5.640   0.860  14.806 -0.3025  0.0703 -0.2830
23492W        W39753  15.440  17.829  14.673 -0.2145 -0.0161  0.5685
23493W        W39754  15.104  10.626   0.241 -0.3385 -0.1679 -0.0857
23494W        W39755  12.819   0.821  16.177 -0.0362  0.1336 -0.2812
23495W        W39756  12.101  14.339  13.531 -0.3731  0.4050 -0.2122
23496W        W39757  16.975   3.329  12.335 -0.3158  0.2076  0.2798
23497W        W39758  14.733  18.023  13.999 -0.1049 -0.1235  0.1559
23498W        W39759  17.756   2.231   0.428 -0.1106 -0.1032 -0.0127
23499W        W39760  15.257   8.406   3.700 -0.3662  0.0281  0.1836
23500W        W39761   4.111   7.089   6.754 -0.0656 -0.3638 -0.4662
23501W        W39762   3.780  12.287   0.385 -0.2403 -0.1403 -0.0063
23502W        W39763  17.549   7.187   1.504  0.1786  0.1242  0.0971
23503W        W39764   1.167  13.792  12.254  0.2224 -0.0043  0.3159
23504W        W39765  10.263  13.509  13.489  0.0583  0.1838 -0.1865
23505W        W39766  13.594  13.820  15.200 -0.2041 -0.0132  0.0404
23506W        W39767  16.598   0.400  11.838 -0.1696 -0.2781 -0.1912
23507W        W39768   1.623  11.786  13.151  0.0021  0.0555  0.0996
23508W        W39769   2.589  12.054  12.961 -0.1500 -0.2036 -0.0191
23509W        W39770  18.419  14.274  16.097 -0.0370  0.5977  0.2022
23510W        W39771  16.804   0.429   2.638 -0.3221  0.0797  0.0768
23511W        W39772  10.831  12.544   2.058  0.3490  0.1916 -0.0017
23512W        W39773   0.104  11.369  13.558 -0.1637 -0.3561  0.0692
23513W        W39774   4.196   3.307   1.943 -0.3000  0.1797  0.3459
23514W        W39775   7.979   3.490   5.888 -0.0849 -0.0889  0.4222
23515W        W39776   5.631  15.839  14.605  0.0367  0.3686 -0.2149
23516W        W39777   0.462   8.787   1.622  0.4578 -0.1770 -0.0565
23517W        W39778   1.560   0.963  14.138  0.0178 -0.0194  0.1072
23518W        W39779  16.535   4.050  12.255 -0.3139  0.3717  0.2421
23519W        W39780   8.154   8.663   3.823 -0.2981 -0.2418  0.3442
23520W        W39781   1.171  10.901   0.082  0.0546  0.2538  0.2578
23521W        W39782  14.167  14.169  16.152 -0.1495  0.1802 -0.0091
23522W        W39783   8.058  10.231  15.883  0.2103 -0.1040 -0.0603
23523W        W39784   0.380  15.339   0.455  0.1201 -0.0392 -0.2595
23524W        W39785   9.659   5.712   5.870  0.0550  0.0896  0.2046
23525W        W39786  11.589   0.858   5.049  0.0448  0.2898 -0.3510
23526W        W39787   9.589  10.574  14.174  0.0486 -0.2326  0.0769
23527W        W39788   6.445   0.219  14.250 -0.2433 -0.0806  0.1635
23528W        W39789   6.068  16.634   5.451 -0.1433  0.0860  0.2315
23529W        W39790   6.187  13.454   5.695  0.0163 -0.2065  0.0752
23530W        W39791   4.685  13.410  14.632  0.0644  0.1728  0.1090
23531W        W39792  12.680   1.871  15.484  0.2487  0.1256 -0.4353
23532W        W39793  16.439   1.249  13.210 -0.0500 -0.1408 -0.2781
23533W        W39794  17.297   2.160  14.567  0.1333 -0.3761 -0.1378
23534W        W39795  13.402   6.373   5.375  0.1192  0.0067  0.1398
23535W        W39796   1.496   0.440  12.906 -0.1432 -0.0850 -0.1766
23536W        W39797  16.595   7.780  15.710 -0.1886 -0.1566  0.1974
23537W        W39798  14.387   9.157  12.772 -0.1747 -0.1363  0.0820
23538W        W39799  18.145   7.306   0.474 -0.1759 -0.0089 -0.0180
23539W        W39800   8.291  13.561  14.302 -0.4091  0.0354 -0.0037
23540W        W39801   4.578  17.515   2.088 -0.2820 -0.1421  0.2424
23541W        W39802   9.616   7.361   0.005 -0.0704  0.1639 -0.0821
23542W        W39803   1.565   6.720  13.193  0.0643 -0.6005 -0.0376
23543W        W39804   2.227   7.619  11.962 -0.4111 -0.0816 -0.1732
23544W        W39805  17.023   1.565   3.070 -0.1834 -0.1034  0.4135
23545W        W39806   2.906   1.650   3.353 -0.1718 -0.0276  0.1326
23546W        W39807   0.277   1.374   0.233 -0.0338 -0.1294  0.0327
23547W        W39808   6.025  10.132   3.226 -0.1499 -0.0702  0.0515
23548W        W39809  18.281   1.596   2.018 -0.1798 -0.1975  0.0238
23549W        W39810   0.171  10.414  12.426 -0.0085 -0.4114  0.0161
23550W        W39811   0.647   3.609   0.192 -0.1665  0.2373  0.0665
23551W        W39812  16.387   6.700   2.897  0.3193  0.2404 -0.0355
23552W        W39813  13.564  13.896  12.659 -0.0698  0.1714  0.1247
23553W        W39814  10.179   7.872  15.844 -0.1043 -0.2056  0.3284
23554W        W39815   5.318  17.146  13.353  0.0021 -0.0931 -0.2157
23555W        W39816  10.358   6.967  14.772 -0.0134 -0.3043  0.0250
23556W        W39817   3.449   1.635  13.259  0.1824  0.1462  0.1468
23557W        W39818  11.606  13.389  11.764  0.5097  0.2053  0.0498
23558W        W39819   3.994   8.051  14.803  0.1839  0.0017 -0.1929
23559W        W39820   2.712   5.965  15.971  0.1420 -0.2316  0.2486
23560W        W39821  12.093   1.142  13.444  0.0003 -0.0366 -0.0483
23561W        W39822   0.513  13.037  15.444  0.1294  0.0520 -0.0468
23562W        W39823   1.502   7.200  14.134  0.1223  0.0118  0.1476
23563W        W39824   1.861  10.388  13.247 -0.1565 -0.2296  0.3278
23564W        W39825   1.315  12.378   5.538  0.1351 -0.3097 -0.2327
23565W        W39826  12.932  12.624   2.593 -0.0802 -0.0212 -0.0455
23566W        W39827   8.537   4.594  13.145  0.2080 -0.1387  0.1464
23567W        W39828   8.135  10.972   0.741  0.0821  0.0476  0.1872
23568W        W39829  15.540  17.322   1.140  0.1871 -0.0588 -0.1709
23569W        W39830   9.879  11.387   4.240  0.2389  0.0998  0.1961
23570W        W39831  15.933   7.687  12.307  0.1474  0.1119 -0.0039
23571W        W39832  13.079   9.669   3.866  0.0945  0.1487  0.0905
23572W        W39833  16.072   8.039   4.023 -0.1094 -0.0678 -0.1609
23573W        W39834  13.855   9.401  13.453 -0.0608  0.1154 -0.2478
23574W        W39835  16.987   6.721   3.990  0.3460  0.0369  0.0169
23575W        W39836  13.987  18.290   4.642  0.1650  0.0516  0.0688
23576W        W39837   3.861   8.767   5.221 -0.1906 -0.3257 -0.0603
23577W        W39838  13.329  16.579  15.061  0.2178 -0.4643  0.1050
23578W        W39839  13.822   4.848   0.521 -0.3103 -0.0770 -0.1871
23579W        W39840  11.539  17.285   3.374 -0.1182 -0.0572  0.3147
23580W        W39841  17.627   5.800   0.994  0.2403 -0.1983 -0.0214
23581W        W39842  13.746   7.480  13.400  0.1617  0.0664  0.0309
23582W        W39843   5.498  16.306   2.450 -0.1282 -0.0975  0.0488
23583W        W39844   8.727  15.880   4.777  0.0011 -0.2425  0.0822
23584W        W39845  17.698  10.243   1.677 -0.1763 -0.0390 -0.0562
23585W        W39846   3.343   5.593  14.823 -0.2495  0.2083  0.3513
23586W        W39847  13.056  11.720  11.018 -0.0445 -0.2186 -0.0034
23587W        W39848   3.283   6.853  11.541  0.1897  0.2553 -0.1409
23588W        W39849  13.518   1.174  15.546 -0.1204 -0.1092  0.0388
23589W        W39850  13.702  17.573  13.924 -0.0053  0.1217  0.0847
23590W        W39851  12.556   0.678  12.481 -0.0950 -0.0155  0.2663
23591W        W39852  17.059  14.618   2.997 -0.1336  0.1924  0.3327
23592W        W39853   1.382  17.914  15.141 -0.0753  0.0278  0.1597
23593W        W39854   6.598  13.121   3.196 -0.2327  0.4387  0.0298
23594W        W39855   0.653   0.291   4.478 -0.2675  0.3018  0.3199
23595W        W39856  13.003  10.853   4.121  0.2399  0.2466  0.2037
23596W        W39857  18.300  11.923   0.937  0.1133 -0.3003 -0.0472
23597W        W39858   4.384   5.984   0.338 -0.1330 -0.1253 -0.3088
23598W        W39859  17.593  13.669  10.557  0.2209  0.0045  0.2044
23599W        W39860  17.257  12.795  11.949  0.0165 -0.4381  0.0167
23600W        W39861   2.284   3.689  13.555 -0.1739 -0.2897 -0.1256
23601W        W39862   7.028  11.338   2.272 -0.0693 -0.1973  0.1834
23602W        W39863   6.397  10.645   2.340  0.1901  0.1726 -0.0730
23603W        W39864   1.673   4.540   3.987  0.0821  0.3305  0.0700
23604W        W39865   9.319   4.373   3.481 -0.1036  0.2168 -0.0470
23605W        W39866  17.288  12.149  13.712 -0.1085  0.2922 -0.4876
23606W        W39867  15.974  12.903   2.054  0.0517 -0.3030 -0.2192
23607W        W39868  15.416  11.100  12.429 -0.1258  0.2031 -0.0666
23608W        W39869   3.107  13.861   1.582 -0.1790 -0.2570  0.3903
23609W        W39870   3.566  12.689  11.618  0.2188  0.1074 -0.0475
23610W        W39871  16.906   8.744   4.113 -0.5120 -0.0572 -0.0378
23611W        W39872  15.536  11.045  15.161  0.1451  0.0267 -0.2381
23612W        W39873  17.907  18.353  14.148 -0.1721  0.1133  0.0467
23613W        W39874  17.785  15.853   4.898 -0.3419 -0.1068  0.0546
23614W        W39875  15.793   4.094   5.851 -0.1825 -0.0649 -0.2078
23615W        W39876  13.751  14.710  16.135  0.0986  0.1125 -0.0240
23616W        W39877  16.263  10.990   4.678  0.0296 -0.3370 -0.0312
23617W        W39878  18.127   4.773   3.039  0.1195  0.2472 -0.0496
23618W        W39879   6.324  10.888   6.528 -0.0022  0.2064 -0.0923
23619W        W39880   1.128   0.377  16.108 -0.1230 -0.0825 -0.1720
23620W        W39881   6.952  14.393  15.422  0.0327 -0.0370  0.1717
23621W        W39882   5.111  14.357   1.368 -0.4299 -0.1680 -0.2343
23622W        W39883  17.517   2.186  15.674 -0.2019  0.2047  0.0695
23623W        W39884   6.121   5.529   2.211 -0.2144  0.1197 -0.0369
23624W        W39885   6.613   5.164  13.844  0.0175 -0.1804 -0.1668
23625W        W39886  12.114   5.342  15.682  0.1013 -0.3641  0.0579
23626W        W39887  11.877  15.734  11.674  0.2034 -0.1499 -0.2168
23627W        W39888   4.311   8.011   0.254  0.1038 -0.3401 -0.1308
23628W        W39889  16.763  11.509   2.617 -0.0060  0.3291  0.3378
23629W        W39890   4.602  16.743   5.197  0.0415  0.1615 -0.1330
23630W        W39891  16.284  17.480   4.312  0.0482 -0.0413  0.1482
23631W        W39892  13.270   9.318  13.446  0.4362  0.3134  0.3292
23632W        W39893   8.437  12.404   3.561 -0.2544 -0.0728  0.3045
23633W        W39894  12.010   4.367  12.108 -0.2678 -0.2756  0.0290
23634W        W39895   6.572  16.903   1.309 -0.1513  0.0664  0.1357
23635W        W39896   1.679   9.705  14.156 -0.1701 -0.0060 -0.1169
23636W        W39897  16.497   6.455  15.903 -0.2617 -0.2584 -0.3548
23637W        W39898   6.788  13.553  12.610 -0.3825  0.3060  0.0556
23638W        W39899   7.916  13.755   3.335 -0.2408 -0.0107  0.1783
23639W        W39900  15.491  14.135   0.236  0.2627  0.0665  0.0450
23640W        W39901  12.671   3.432   0.067  0.2165 -0.0304  0.1742
23641W        W39902   1.706  15.791  14.647 -0.1596 -0.1980 -0.1895
23642W        W39903  12.715  17.897  13.755  0.1047 -0.0904  0.0591
23643W        W39904  16.400   1.051  14.578  0.3103 -0.1470 -0.2557
23644W        W39905   0.803  16.542  12.367 -0.0241 -0.0040 -0.0097
23645W        W39906   6.579  12.930  14.337 -0.2957  0.0114  0.1430
23646W        W39907  10.341   7.325  14.236  0.0564 -0.3003  0.0616
23647W        W39908   4.869  14.993   0.352 -0.0138 -0.3121  0.3061
23648W        W39909  14.236  12.427   2.806 -0.1603 -0.1408 -0.1859
23649W        W39910   7.401   4.860  14.959  0.0479 -0.0381 -0.2073
23650W        W39911   7.644   0.589   5.129 -0.1181  0.0276 -0.0260
23651W        W39912   0.609  14.682   2.523 -0.0506  0.0305  0.0566
23652W        W39913  16.112  18.440   0.011  0.0698  0.2367  0.1158
23653W        W39914   1.543   3.397   4.305  0.2152 -0.1158  0.1887
23654W        W39915   9.087  16.649   3.134  0.0841 -0.0500 -0.1122
23655W        W39916   6.006   0.965   2.465 -0.1595 -0.3971  0.2193
23656W        W39917   2.234   0.164  14.635  0.0610 -0.1292  0.0234
23657W        W39918  12.343   8.560  14.931  0.0758  0.1709  0.3950
23658W        W39919  10.064   1.678  11.246  0.0125 -0.1020  0.0266
23659W        W39920  15.043   3.120   1.130  0.0972 -0.2745  0.0701
23660W        W39921  10.714   0.368   3.752  0.2548 -0.1245 -0.1615
23661W        W39922   2.509   3.511   2.859 -0.3892 -0.3983 -0.5356
23662W        W39923  11.447  10.775   1.618  0.0841  0.0605 -0.3157
23663W        W39924   5.144  16.451  14.204 -0.1710  0.0215  0.0598
23664W        W39925  15.987  11.081   2.562  0.0254  0.0097  0.0404
23665W        W39926  10.575   1.180   0.162 -0.1378  0.0573  0.1469
23666W        W39927   6.933  13.138   2.836 -0.0942 -0.1837  0.1140
23667W        W39928   4.932  10.414   0.303  0.2442 -0.2048 -0.0032
23668W        W39929   8.443  11.642  11.868  0.0635 -0.0150  0.0599
23669W        W39930   2.158  17.376   2.998 -0.0811  0.1470  0.1666
23670W        W39931   1.059  12.808  12.992 -0.0787  0.2300 -0.2302
23671W        W39932   2.155   0.124   4.994  0.2223  0.1103  0.2051
23672W        W39933   5.117  15.838  11.975 -0.0480 -0.0047  0.1689
23673W        W39934  13.918   0.738   4.855  0.0174 -0.2552 -0.0716
23674W        W39935  15.448   0.053  11.104  0.2129 -0.0531  0.1300
23675W        W39936   8.021   5.998   2.109  0.0233 -0.1306 -0.0701
23676W        W39937   1.410   9.258   1.416  0.0972 -0.1982  0.1262
23677W        W39938   0.677   5.923  11.834  0.3142 -0.0003  0.1086
23678W        W39939  17.237   4.008  16.007 -0.2335 -0.0720  0.1333
23679W        W39940   3.380   1.655  12.425 -0.0986 -0.0867 -0.2328
23680W        W39941  11.921   2.458  15.561 -0.2454  0.1711  0.2689
23681W        W39942   0.898   6.478   5.410 -0.0914  0.2653  0.2248
23682W        W39943   6.336   5.399  14.609 -0.0724 -0.5942  0.3495
23683W        W39944  11.699   2.028  12.575  0.0466 -0.0474 -0.0451
23684W        W39945   7.585   9.903   4.734 -0.2924  0.3154 -0.0284
23685W        W39946  12.431   3.117   5.032  0.0651 -0.0149 -0.2987
23686W        W39947  12.563   3.242  13.621 -0.2562 -0.1075 -0.0588
23687W        W39948  11.236   6.155   1.796 -0.1751 -0.0752  0.1341
23688W        W39949   7.746   8.272   4.772 -0.1570 -0.0531 -0.0591
23689W        W39950   6.167  17.305  11.853  0.0027  0.2105  0.1306
23690W        W39951   6.490   2.206   0.903  0.0681 -0.0411  0.0169
23691W        W39952   0.140  12.813  14.970 -0.2619  0.0118 -0.2223
23692W        W39953  13.717  10.196   4.354 -0.0953 -0.1914 -0.2773
23693W        W39954   1.510   1.442   4.999 -0.2513  0.0416  0.2036
23694W        W39955   7.457  14.583   4.222  0.0571  0.0105  0.1974
23695W        W39956   7.240   8.973   1.961 -0.0045  0.0439  0.1002
23696W        W39957   2.940   9.001  11.615 -0.0280  0.1573  0.3036
23697W        W39958  10.089   2.459   2.613 -0.1579 -0.2252 -0.0142
23698W        W39959  13.538  12.590   6.087 -0.0920 -0.0312 -0.0645
23699W        W39960   6.940  18.097   1.379  0.1284 -0.1656 -0.0499
23700W        W39961   8.467  16.021   1.831 -0.2899 -0.2419  0.0489
23701W        W39962   5.327   5.845  16.179 -0.2415 -0.0205 -0.3584
23702W        W39963  17.167   3.182   0.525 -0.0140 -0.1190 -0.1796
23703W        W39964  14.961  11.122  12.109 -0.0080 -0.1926 -0.2040
23704W        W39965  15.828  18.473  12.493 -0.2069 -0.1367 -0.0221
23705W        W39966  14.074   4.156  11.648 -0.1714 -0.0972 -0.0700
23706W        W39967  16.735  16.354  11.804  0.0714  0.0092 -0.0109
23707W        W39968   3.896  10.307   1.098  0.1931 -0.0550 -0.1290
23708W        W39969   3.798  16.374   4.644  0.0234 -0.1098  0.1623
23709W        W39970   7.256   7.181   2.456 -0.2149  0.2055 -0.0591
23710W        W39971   5.542  16.233   4.863 -0.2012 -0.1836 -0.1151
23711W        W39972   0.810   4.627   3.476  0.0436  0.1466 -0.0378
23712W        W39973   4.135   2.868  13.621 -0.2947 -0.2364  0.1239
23713W        W39974  17.776   6.704   1.246  0.2384 -0.0004 -0.1757
23714W        W39975  13.783   4.897  15.494 -0.0191 -0.0937 -0.0673
23715W        W39976  10.002  13.139   0.823  0.0434 -0.1286  0.3557
23716W        W39977  11.060   0.143   3.322  0.0305  0.0831  0.1956
23717W        W39978  17.074  12.154  11.507  0.0340  0.0178 -0.0308
23718W        W39979  17.374   2.101   1.484 -0.3182  0.0110 -0.2419
23719W        W39980  14.099  16.946   4.889  0.4009  0.0265 -0.0008
23720W        W39981  14.179   4.363   2.743  0.1814 -0.0910  0.1284
23721W        W39982   5.886  13.745  13.424  0.0579 -0.2495  0.1223
23722W        W39983   6.643  14.074  14.023 -0.0919 -0.1549 -0.1236
23723W        W39984  18.464   4.884   2.653 -0.1336  0.3457  0.4551
23724W        W39985  16.246  16.238  15.403 -0.0519  0.0661  0.3851
23725W        W39986  10.158   7.910  14.792 -0.0714  0.0051 -0.0579
23726W        W39987   1.112   0.223  13.416 -0.1212 -0.2202  0.1325
23727W        W39988   2.311  18.188  15.504  0.1145  0.0791  0.1917
23728W        W39989  10.880   1.266   5.268  0.2535 -0.0863 -0.0853
23729W        W39990  14.163  18.371  14.838 -0.0064  0.0069 -0.1948
23730W        W39991  11.306   7.113  14.332 -0.1155  0.1904 -0.1267
23731W        W39992  13.437  15.304   1.323 -0.4070 -0.0827  0.0977
23732W        W39993  12.128  16.514  11.097  0.0437  0.2588 -0.2077
23733W        W39994   8.720  16.022   3.022  0.0886  0.1550 -0.0055
23734W        W39995  12.556  14.023  15.888 -0.1326  0.2706 -0.1395
23735W        W39996   6.348  14.246   3.804  0.1237 -0.3338 -0.0357
23736W        W39997   1.825   1.959  14.282 -0.1362  0.1209  0.0340
23737W        W39998  12.452   3.573  13.978 -0.0625  0.0390 -0.2177
23738W        W39999   8.620   7.090  11.941 -0.1365  0.3690  0.2354
23739W        W40000   6.011  11.402   0.261  0.0042  0.1219 -0.1447
23740W        W40001  17.675  14.342   3.575 -0.0143 -0.0202  0.0877
23741W        W40002  16.579   6.585   2.398 -0.0251 -0.2244 -0.1839
23742W        W40003  11.499   4.787   0.446  0.2855  0.2059 -0.0217
23743W        W40004  11.314   4.391  15.041  0.0597 -0.1345 -0.2663
23744W        W40005   7.792  17.395   0.405 -0.0663 -0.0598 -0.0451
23745W        W40006   1.188   4.412   4.111  0.2317  0.1571  0.1568
23746W        W40007   0.194  15.699   2.465 -0.2604 -0.1553  0.2380
23747W        W40008   5.384   6.434  15.212  0.2114  0.2102  0.3203
23748W        W40009   4.613  10.543  14.989  0.0359 -0.0664  0.0772
23749W        W40010  16.990  13.457  10.458 -0.0339  0.1844 -0.1376
23750W        W40011  18.320   4.075   0.206 -0.2794  0.0881 -0.1920
23751W        W40012   6.006   5.791   0.516  0.1752  0.4419 -0.2599
23752W        W40013  17.787  13.211   1.238  0.1832  0.1203  0.5239
23753W        W40014   7.031   9.731  13.047 -0.4140 -0.3285 -0.0883
23754W        W40015  16.504   7.130  11.242 -0.1383 -0.1215  0.3768
23755W        W40016  11.375   5.243  13.301  0.1580  0.1348  0.1127
23756W        W40017   3.975  15.674  13.937 -0.2780 -0.2445  0.1296
23757W        W40018   0.456   1.970  13.200 -0.0130  0.1941 -0.3551
23758W        W40019  15.371  15.816   4.086 -0.0031  0.0361 -0.1417
23759W        W40020   6.339   8.034   0.823 -0.2420 -0.3580 -0.1894
23760W        W40021   6.885   8.194   5.334 -0.0458 -0.1230  0.1240
23761W        W40022   9.768  10.787   0.033 -0.0957  0.0397 -0.2078
23762W        W40023   8.623  12.280  15.966 -0.1317 -0.0266 -0.3675
23763W        W40024   7.962   2.114  13.705 -0.3103 -0.1518  0.0427
23764W        W40025   2.308  12.504  11.737 -0.2069  0.2523  0.0696
23765W        W40026   9.838  18.479   4.838  0.0922 -0.0898 -0.1934
23766W        W40027   2.622  13.977   1.965  0.1118 -0.0089 -0.2183
23767W        W40028   2.697   2.048   1.199 -0.0353  0.1526  0.2945
23768W        W40029   6.727   1.358   0.143 -0.0334 -0.1695  0.0075
23769W        W40030  12.341   9.735   2.321  0.1913  0.2241 -0.2607
23770W        W40031   1.462   7.221   2.744  0.0723  0.3324  0.3662
23771W        W40032   0.301   5.797   0.123 -0.0773 -0.0170  0.0932
23772W        W40033   0.620  18.359   0.870 -0.0694 -0.2247 -0.1870
23773W        W40034   4.374  16.128  13.822 -0.0825 -0.0382  0.1699
23774W        W40035  15.571   2.655  13.695  0.1933  0.2816 -0.2586
23775W        W40036  14.390   2.389  11.742 -0.0660  0.1043  0.1251
23776W        W40037  18.449  13.449  11.156  0.0853  0.2009  0.1214
23777W        W40038   3.962   2.446   2.517 -0.1307 -0.0037 -0.0663
23778W        W40039  10.652  18.106   5.184  0.0288 -0.2384  0.0066
23779W        W40040  14.940  16.738  11.743 -0.1222 -0.1732  0.1102
23780W        W40041   4.179   4.738   2.990  0.0844 -0.0416 -0.1370
23781W        W40042  16.933   8.986   1.684 -0.1559  0.1142 -0.1083
23782W        W40043   0.569   5.297   4.253 -0.1386  0.2328  0.0681
23783W        W40044  16.308   6.120  15.513 -0.2310 -0.0262 -0.1874
23784W        W40045   1.770  11.153  15.440 -0.3143 -0.2017  0.0402
23785W        W40046   0.518  11.321  11.585  0.1884 -0.0155  0.0231
23786W        W40047   3.709   7.461  14.214  0.1925 -0.1244  0.1101
23787W        W40048   4.942   1.527   5.390  0.0585  0.1899 -0.0549
23788W        W40049   8.683  10.976  15.299 -0.1540  0.2253 -0.2313
23789W        W40050  12.711  18.066  12.016  0.5471 -0.3162  0.0105
23790W        W40051   9.097   1.551   6.076 -0.3205  0.0101 -0.2439
23791W        W40052  15.450   0.950   3.524 -0.4814  0.1733 -0.1333
23792W        W40053  12.923   5.432   4.605 -0.0367  0.0495  0.0318
23793W        W40054  13.753  14.147  14.153 -0.1205 -0.2489  0.1491
23794W        W40055   5.493  12.458   2.590 -0.1684  0.2384 -0.1067
23795W        W40056   1.325  16.723   1.166  0.0328  0.0555  0.0888
23796W        W40057   3.314  18.226   4.118  0.0981  0.0901  0.0014
23797W        W40058  13.620  18.264  10.539 -0.0329  0.2209  0.0910
23798W        W40059  12.120   9.991  14.559 -0.1843  0.2810  0.3195
23799W        W40060   3.240   3.908   0.534  0.0534 -0.4790 -0.2196
23800W        W40061  12.824  11.720  11.788 -0.1009 -0.0770 -0.2046
23801W        W40062   8.852  12.952   4.958  0.2277  0.0820  0.0198
23802W        W40063   5.903  11.047   5.600  0.0681 -0.1701 -0.0536
23803W        W40064   9.874   1.993   2.628  0.1161  0.0506  0.1506
23804W        W40065   5.993   9.460   4.495  0.0583  0.0528 -0.2351
23805W        W40066  15.226   3.625   4.638  0.0636 -0.1166 -0.0784
23806W        W40067  14.548   1.005  12.456 -0.0550 -0.2824 -0.1903
23807W        W40068  17.308   5.044   4.968  0.0973 -0.3049  0.1516
23808W        W40069  13.648   1.484  11.961 -0.0654  0.0736 -0.1996
23809W        W40070  16.260   4.986   3.833 -0.0653  0.0819 -0.0884
23810W        W40071   6.903  16.214  14.307 -0.0009  0.0077 -0.0963
23811W        W40072  12.134   6.491  12.082  0.1342  0.1642 -0.1884
23812W        W40073   7.837   3.174  12.120 -0.1664 -0.1458  0.0874
23813W        W40074   2.270  10.302  11.706 -0.2555 -0.3204 -0.1888
23814W        W40075   6.457  12.679  12.050  0.2697  0.2951 -0.0206
23815W        W40076   6.590   8.577  13.020 -0.0381  0.1379 -0.1720
23816W        W40077  10.402   0.404   0.686 -0.1239  0.0532  0.0966
23817W        W40078  17.914  16.904   9.614  0.0089 -0.3220  0.0582
23818W        W40079  15.048   8.065  12.494 -0.1415 -0.0730  0.1668
23819W        W40080   5.137  17.748   5.458  0.1797  0.0388  0.2248
23820W        W40081  16.247   4.496  15.081  0.2282 -0.1350 -0.0309
23821W        W40082  17.542  15.775   2.485  0.1008  0.3585  0.0183
23822W        W40083  16.354  11.447  14.074  0.0951  0.0688 -0.1293
23823W        W40084   2.972   4.811   1.097 -0.0308  0.3748  0.0274
23824W        W40085  16.922   0.315  16.095  0.1183  0.1954 -0.1896
23825W        W40086  12.338  12.386  11.298  0.0707  0.3734  0.1873
23826W        W40087  14.269   5.118  13.803  0.0176 -0.0093  0.1754
23827W        W40088  15.248  16.714  10.834 -0.0921  0.2794  0.2474
23828W        W40089  16.676   0.427   3.438 -0.2054  0.3706  0.1245
23829W        W40090  10.443   8.166   2.819 -0.1002 -0.0144 -0.1338
23830W        W40091  16.130   1.638   1.117  0.0880  0.2014  0.1859
23831W        W40092   4.256   6.146  14.029  0.0489 -0.1404 -0.1243
23832W        W40093   0.652   6.684   0.370 -0.1457  0.2616  0.1044
23833W        W40094  14.384   1.059   4.933  0.4899 -0.0305 -0.2181
23834W        W40095  14.091  16.429   1.009  0.1185 -0.1767  0.0880
23835W        W40096  13.966   5.371  12.458  0.0933 -0.1153 -0.1518
23836W        W40097  11.654  13.402   4.119 -0.0397 -0.1504  0.0345
23837W        W40098   4.019   1.009   1.664 -0.1685 -0.0406 -0.0643
23838W        W40099  12.841   3.642   2.003 -0.0942 -0.5471 -0.0646
23839W        W40100   0.704   7.472   2.751 -0.0348 -0.1999  0.1378
23840W        W40101   6.337  10.125   2.225  0.1544  0.0509 -0.1227
23841W        W40102  18.474  18.413   4.319 -0.0977 -0.0346 -0.1422
23842W        W40103  14.434   9.361   3.900  0.2238 -0.0476 -0.1822
23843W        W40104  12.249  16.501  10.341 -0.0514 -0.0825 -0.0645
23844W        W40105  18.210  13.418   2.296 -0.0951  0.1095  0.4835
23845W        W40106   3.774   8.476  11.690  0.1319  0.1287  0.4918
23846W        W40107  18.036  15.803   3.935 -0.2210  0.0488 -0.1563
23847W        W40108   1.300   3.097  13.988  0.1635  0.1265 -0.0178
23848W        W40109   0.811   5.854   0.293 -0.0629  0.1912 -0.0302
23849W        W40110  11.765   8.281  14.445  0.0032 -0.0134 -0.0337
23850W        W40111   1.023  15.426  15.267 -0.2224 -0.1645 -0.4202
23851W        W40112  12.930  10.276  14.211  0.0802 -0.1032  0.0012
23852W        W40113  15.353  16.465  14.129 -0.1783 -0.1354 -0.1414
23853W        W40114   3.470   0.911  15.129  0.3859  0.0443  0.1364
23854W        W40115   0.974  17.680   1.028  0.1171 -0.2648 -0.0101
23855W        W40116   1.366  14.986  12.361  0.2030 -0.1385  0.0728
23856W        W40117  18.313  18.457  12.680  0.2660 -0.0440  0.0485
23857W        W40118  12.101   7.029  11.869  0.0703 -0.0017  0.0394
23858W        W40119   2.618   2.281  14.735 -0.2844 -0.1322  0.0571
23859W        W40120   9.100  18.123  14.519  0.1682  0.1040  0.0696
23860W        W40121   8.823   9.133   4.570  0.0398  0.0318  0.1501
23861W        W40122  16.186   6.819   3.412  0.2861 -0.4252  0.0536
23862W        W40123   5.136  17.524  13.788 -0.1137 -0.2254  0.0814
23863W        W40124  17.840  16.221  16.085  0.0393  0.1638 -0.3069
23864W        W40125  12.963   1.715   1.943 -0.0829 -0.0644  0.0947
23865W        W40126   8.318   2.334   5.254  0.0218  0.0548  0.0113
23866W        W40127  15.882   3.576   2.006 -0.1065  0.0903  0.0705
23867W        W40128  15.276   4.832   4.081  0.1575 -0.0010 -0.0664
23868W        W40129   2.489   3.510  14.106 -0.1433 -0.1365 -0.1250
23869W        W40130  16.774   1.610  13.952  0.3624 -0.2290  0.1625
23870W        W40131   2.747  12.212   4.848 -0.0665  0.0079  0.0098
23871W        W40132   2.082  12.850  15.206  0.1548 -0.2379  0.3856
23872W        W40133   8.873   0.541   3.809 -0.0273  0.0963 -0.1154
23873W        W40134   0.519   4.741   0.749 -0.0349  0.0194  0.1389
23874W        W40135  10.721  12.822  12.797  0.2109  0.0882  0.0967
23875W        W40136   6.518   8.588  14.343  0.2661 -0.0151  0.0767
23876W        W40137  15.636  18.128  12.881  0.2043 -0.0120  0.2373
23877W        W40138  15.410   9.702  15.220 -0.0393  0.0025  0.1422
23878W        W40139  16.948   1.262   1.417 -0.2491  0.0070  0.0523
23879W        W40140   1.365  10.560  14.364 -0.1333  0.1380  0.3044
23880W        W40141  11.635   2.287  11.135  0.1889 -0.0497  0.1499
23881W        W40142   5.328   1.526   5.025 -0.0395  0.1535  0.0976
23882W        W40143   1.060  12.348  12.646  0.2668 -0.0908 -0.0609
23883W        W40144   1.273   1.831  12.676 -0.2720  0.1914  0.1946
23884W        W40145  13.589  16.012  13.762 -0.4694 -0.0303 -0.2511
23885W        W40146  11.860   5.479   2.080 -0.1509  0.0456 -0.2986
23886W        W40147   5.936   5.921  11.199  0.0021 -0.1574 -0.0057
23887W        W40148  16.143   4.925   1.832 -0.0134  0.1496 -0.2656
23888W        W40149  15.920  16.901   3.356 -0.0779  0.1545  0.0880
23889W        W40150   8.047   1.560   0.716  0.1552  0.0245 -0.1084
23890W        W40151   4.819  13.845  14.254  0.2329 -0.1234 -0.0353
23891W        W40152  17.899  12.480  12.471 -0.1501  0.1172 -0.1393
23892W        W40153  16.305   3.996  15.999 -0.0540  0.4094  0.1063
23893W        W40154   2.393  12.750   5.431  0.0968 -0.2879 -0.2036
23894W        W40155  16.050   3.711  11.946  0.0176  0.1121 -0.0858
23895W        W40156   1.391   5.874   1.592  0.0877 -0.0723 -0.1224
23896W        W40157   7.456  10.226   3.897 -0.2161  0.0670  0.2365
23897W        W40158  14.456   0.067   2.941 -0.1602  0.2072 -0.0986
23898W        W40159   8.140   8.779   2.374  0.0743  0.1629 -0.1492
23899W        W40160   0.074   9.697   5.236  0.1381 -0.0423 -0.4912
23900W        W40161   6.738  13.933  14.548  0.2051  0.0506 -0.0258
23901W        W40162  14.437   4.800   5.016  0.1801 -0.1064  0.1628
23902W        W40163  14.004   1.857   0.894 -0.2250 -0.0802  0.0637
23903W        W40164   5.531   2.466   1.068  0.3372  0.0415  0.0312
23904W        W40165   2.274  12.006   4.546 -0.1379 -0.1003  0.1594
23905W        W40166   5.992  16.027   2.341 -0.3357 -0.1909  0.0091
23906W        W40167   4.220  14.480   2.584 -0.0201  0.0708 -0.4047
23907W        W40168  15.954  14.137  12.598 -0.0554  0.2077  0.0220
23908W        W40169  15.898   9.442   3.622  0.0749  0.0407  0.2073
23909W        W40170  15.984   7.902   4.737 -0.2864  0.0827  0.1274
23910W        W40171   6.328  11.944   1.664  0.1301  0.2416  0.1147
23911W        W40172  17.859  11.753  14.957  0.1911  0.1407  0.2629
23912W        W40173   4.373   7.384  12.515  0.1090  0.2104 -0.1095
23913W        W40174   3.674   8.280  11.024 -0.1802 -0.1190  0.1483
23914W        W40175  14.030  13.828   1.521 -0.1523 -0.0132  0.1983
23915W        W40176  16.102   9.501   3.135 -0.1030  0.1655  0.2017
23916W        W40177  15.899   0.041  13.429  0.0188 -0.2495 -0.0839
23917W        W40178  14.255   0.370  14.739 -0.1038 -0.0702  0.0509
23918W        W40179  13.075  16.075  12.563  0.0672  0.0592  0.0275
23919W        W40180   6.182   0.709   1.417 -0.0311 -0.0365 -0.0637
23920W        W40181  16.247   3.682   4.664  0.1114 -0.1035  0.0517
23921W        W40182   7.382  15.543   3.321 -0.2458 -0.1684 -0.0987
23922W        W40183  11.821   8.832  13.725 -0.1444  0.0283 -0.2776
23923W        W40184   2.732  11.841  15.911  0.1059  0.0550  0.2414
23924W        W40185   8.281   4.032   2.063  0.4422 -0.1817  0.0913
23925W        W40186   8.920  13.276   0.576  0.2791  0.3993  0.1576
23926W        W40187   3.253  10.224   3.963  0.1508 -0.1646  0.3112
23927W        W40188   7.272   2.049   5.046  0.1555  0.2579 -0.1619
23928W        W40189   6.522  10.913  15.056 -0.0935  0.1532  0.4238
23929W        W40190   5.761  16.513   3.104  0.4332 -0.1693  0.2026
23930W        W40191   6.538   0.263   1.421 -0.2408  0.1873 -0.0646
23931W        W40192   5.538   8.407  13.410 -0.1391 -0.2089 -0.1835
23932W        W40193  11.675   5.305  15.455  0.1976  0.1629  0.1277
23933W        W40194   4.156   4.592   1.955  0.0648 -0.0205 -0.3427
23934W        W40195  13.035   7.874   3.793 -0.1033 -0.1632 -0.3206
23935W        W40196   2.147   8.313   0.590  0.2139  0.2171 -0.2270
23936W        W40197  11.692   8.677  14.176  0.0643 -0.0241  0.1925
23937W        W40198   5.918  17.814   4.375  0.1432  0.0055 -0.1550
23938W        W40199   5.599   8.593   3.782  0.1363 -0.1858  0.1373
23939W        W40200   9.313   0.011   2.159  0.1096  0.2054 -0.1271
23940W        W40201   2.170   4.024  11.127 -0.0426 -0.2146 -0.2346
23941W        W40202   7.715  16.268   1.080  0.0371  0.3118  0.0650
23942W        W40203  13.658   5.953   1.665  0.2769 -0.0037 -0.1159
23943W        W40204  16.405   0.534   4.753 -0.2041  0.2633 -0.1159
23944W        W40205   0.261  17.587  10.614 -0.1949 -0.0837  0.3547
23945W        W40206   1.135   0.301   2.502 -0.1691  0.2250 -0.0780
23946W        W40207   0.995  10.847   0.699 -0.1012  0.2852  0.1614
23947W        W40208   1.999   2.198  12.015 -0.1660  0.2136 -0.1445
23948W        W40209   6.765   4.682   5.433  0.0756 -0.0942 -0.2398
23949W        W40210  10.121   6.629  14.168 -0.1628  0.3720  0.0863
23950W        W40211   5.853  16.662   0.741  0.0270  0.0478 -0.1398
23951W        W40212  17.067  16.462  13.417  0.0687  0.0797  0.1815
23952W        W40213   9.162   9.742  15.264  0.0063 -0.1126  0.1466
23953W        W40214  16.848   1.044  14.924  0.4169 -0.0250  0.3766
23954W        W40215   0.867   1.144  13.008  0.1054 -0.4119 -0.0440
23955W        W40216   7.915   8.189   0.808 -0.0049 -0.1350 -0.0086
23956W        W40217   2.268  12.251  13.278  0.3645  0.2992  0.2889
23957W        W40218  10.131   6.360  10.431 -0.1461 -0.0489 -0.2445
23958W        W40219  11.861  14.663  10.730  0.1137 -0.3367 -0.0365
23959W        W40220   7.645   3.378   6.265  0.3707  0.0576 -0.0827
23960W        W40221   2.668   1.379   2.657  0.0224 -0.1516 -0.0878
23961W        W40222  15.230  15.356  10.433 -0.1278  0.4814  0.0233
23962W        W40223  14.506   1.877  11.836  0.0116 -0.0958 -0.4654
23963W        W40224  17.105  18.443   4.980 -0.2305 -0.3415  0.0027
23964W        W40225  14.181   6.803  15.889  0.0241 -0.0735 -0.2836
23965W        W40226  11.620   0.753   2.794 -0.0954 -0.1133  0.1953
23966W        W40227  14.906  13.651   3.727 -0.0002  0.1110 -0.3169
23967W        W40228   2.748   5.500   4.649 -0.0351  0.0886 -0.1830
23968W        W40229   0.808   6.548  12.533 -0.2112 -0.0663  0.3082
23969W        W40230   5.781  17.798   2.584 -0.0564 -0.1982 -0.0265
23970W        W40231  14.749  10.301   2.577  0.0717  0.0682  0.0182
23971W        W40232   7.604   1.294   0.820  0.0846 -0.0141  0.0528
23972W        W40233  10.730   3.394   5.455 -0.0616 -0.3675 -0.0737
23973W        W40234   5.544  11.702  12.642 -0.3467 -0.2283 -0.0751
23974W        W40235  12.542  16.741   4.600  0.0590 -0.1494 -0.0178
23975W        W40236  18.077   6.952  11.593 -0.3360  0.3040 -0.2082
23976W        W40237   5.614  10.237  12.922  0.1485  0.2525  0.1318
23977W        W40238  17.204  15.086   2.849 -0.0870 -0.0419 -0.0227
23978W        W40239  10.911   5.531  15.966 -0.4128 -0.1536  0.1115
23979W        W40240  12.846   2.698  11.464  0.1160  0.0269 -0.1218
23980W        W40241   3.132  13.465   1.263 -0.2189  0.0723  0.0345
23981W        W40242  17.694  14.612  13.955 -0.1289  0.0262  0.1909
23982W        W40243  10.369  13.135  11.055 -0.1475 -0.0283  0.0922
23983W        W40244  18.478  14.016   0.809  0.4903 -0.0056 -0.0755
23984W        W40245   7.561  16.615  12.034  0.3863 -0.0405  0.1923
23985W        W40246   3.831   7.226   0.366 -0.3782  0.1879  0.1119
23986W        W40247  15.942   0.524  13.287 -0.1368  0.3334  0.2366
23987W        W40248   5.446   4.715   1.409  0.3925 -0.1783 -0.0865
23988W        W40249  13.770  18.198  12.082 -0.0163 -0.0982  0.0763
23989W        W40250  15.788   5.102   2.669  0.0369  0.2932 -0.1282
23990W        W40251  13.582   6.506  11.495  0.1426  0.0773 -0.1881
23991W        W40252   9.942   5.925  15.927  0.0832  0.1460  0.0899
23992W        W40253   1.105  13.065  13.941 -0.1136 -0.0212 -0.4105
23993W        W40254   1.995   9.495   4.745 -0.1052 -0.1378 -0.3531
23994W        W40255   9.627  12.155  11.997 -0.0131  0.2974 -0.2873
23995W        W40256  18.438   2.471  15.467  0.4593  0.1204  0.1923
23996W        W40257   5.549  13.846   4.560 -0.0241 -0.2061 -0.0041
23997W        W40258  15.785  16.503  11.522  0.3046  0.0900  0.1272
23998W        W40259   6.343   2.653  15.110 -0.0481  0.0425  0.1228
23999W        W40260   0.461  12.079   0.074 -0.1718  0.0805 -0.1523
24000W        W40261   4.765  11.592  13.715  0.0937  0.1008  0.0003
24001W        W40262  15.361   5.324   5.893 -0.0107 -0.2481 -0.0291
24002W        W40263  11.337   5.982   3.036 -0.3229  0.0102 -0.0921
24003W        W40264   0.687  15.023  14.963 -0.1604  0.1491 -0.2170
24004W        W40265   5.816   1.447  15.314 -0.0282  0.0009 -0.1034
24005W        W40266   5.023   3.357  11.856 -0.0138  0.2321 -0.2733
24006W        W40267  14.264  11.067  10.871 -0.0651  0.0795  0.1328
24007W        W40268  11.403   9.362  15.488 -0.1435  0.1627 -0.1223
24008W        W40269   7.885   6.463  10.859 -0.0971  0.3347 -0.0224
24009W        W40270  15.133  10.450  14.527  0.3404  0.0502  0.4239
24010W        W40271   7.781  13.808   2.887  0.0192  0.0827  0.3918
24011W        W40272  12.133  15.264   0.027 -0.2656  0.1061  0.0428
24012W        W40273   3.650  10.280  13.780 -0.0679 -0.1718 -0.0604
24013W        W40274  12.041   8.686  11.847 -0.1745 -0.2977 -0.2600
24014W        W40275   6.674  13.891  15.383 -0.3751 -0.1030  0.0565
24015W        W40276   0.373   4.091  12.201 -0.0608 -0.2553 -0.2449
24016W        W40277  16.122  15.262  15.104  0.2022  0.1362 -0.0285
24017W        W40278  12.949  13.059   2.964  0.1434 -0.4084 -0.0163
24018W        W40279   8.334   9.097   0.533  0.1967  0.0902 -0.0281
24019W        W40280  14.527   3.421   1.630  0.1187 -0.0236 -0.1381
24020W        W40281   6.644  10.679   0.412  0.1477 -0.0441  0.1006
24021W        W40282   5.522  16.936  12.493  0.2511 -0.0531 -0.2599
24022W        W40283   8.245  17.594   5.900 -0.0182 -0.1668 -0.1884
24023W        W40284   9.337   8.768  15.300 -0.0131 -0.0705 -0.0607
24024W        W40285   8.820  14.651   0.897  0.0530  0.1895  0.0383
24025W        W40286  13.809   8.551  13.762  0.0214  0.0207 -0.3515
24026W        W40287  11.278  13.022  13.137  0.0236 -0.1903  0.0595
24027W        W40288   9.052  13.558   5.492  0.1756  0.1627 -0.1586
24028W        W40289  13.365   5.931  14.717 -0.0165  0.2209 -0.0709
24029W        W40290  15.809  11.135   9.730 -0.0631 -0.0207  0.0887
24030W        W40291   5.443  13.293   2.090  0.5107 -0.1634 -0.0682
24031W        W40292   7.559   7.094  13.880 -0.1520 -0.0688  0.1372
24032W        W40293   4.276   5.939  11.680  0.2481  0.0573 -0.0638
24033W        W40294   8.428   0.416   0.913  0.0277  0.2322 -0.3475
24034W        W40295  12.780  14.280  13.525  0.0050 -0.2714  0.1924
24035W        W40296  17.053  10.757   1.981 -0.1844  0.2776  0.0799
24036W        W40297  11.763  15.602  14.367  0.1256 -0.3848  0.1714
24037W        W40298  12.655   2.377  11.868  0.1562  0.0799 -0.0439
24038W        W40299   2.928   6.080  11.815 -0.1305  0.0844 -0.1989
24039W        W40300  13.732  14.780  10.627 -0.1329  0.1037 -0.1393
24040W        W40301   0.921  11.237  14.794  0.1982 -0.0595 -0.3828
24041W        W40302   0.107  15.307  11.985  0.0407  0.0089  0.1127
24042W        W40303  14.820  12.497  16.047  0.0798  0.1231 -0.3233
24043W        W40304   0.619  15.782   4.713  0.2288  0.1545  0.1263
24044W        W40305   4.116  17.617  12.074  0.0745  0.3424  0.2442
24045W        W40306   1.185   1.036   4.964 -0.0336 -0.3097 -0.1015
24046W        W40307  10.156   8.226   3.572  0.1387 -0.4679 -0.2067
24047W        W40308   7.034   8.251   0.738  0.1625 -0.0540 -0.2662
24048W        W40309  11.363  17.375  14.819 -0.1070 -0.3295 -0.3073
24049W        W40310  11.570   2.181  15.826 -0.3252 -0.2731  0.1334
24050W        W40311   4.340  18.128  14.151  0.1056 -0.2094  0.1254
24051W        W40312   8.586   6.854  12.772 -0.0545  0.3075 -0.1147
24052W        W40313   0.127   3.831  14.107 -0.1360  0.3678 -0.2302
24053W        W40314   7.229  14.073   2.021  0.1364 -0.1574  0.0404
24054W        W40315   5.315  13.096   3.707 -0.0208 -0.2430 -0.1037
24055W        W40316  14.712   8.332   4.475 -0.4477  0.1977  0.0214
24056W        W40317   8.941   2.565  13.086 -0.0427  0.0685  0.0908
24057W        W40318   1.411   2.417   3.357 -0.1149 -0.0751  0.2563
24058W        W40319   0.333  10.042   0.742 -0.0553 -0.1939 -0.0925
24059W        W40320   0.205  10.824  14.450  0.1616 -0.1798 -0.2008
24060W        W40321  10.588   7.553  16.000 -0.0533  0.1838 -0.3428
24061W        W40322  16.847  13.240   3.685 -0.1827  0.2041  0.0707
24062W        W40323  13.507  11.332   1.927  0.2337 -0.2573  0.2204
24063W        W40324  16.526   4.595   2.746  0.2531 -0.1522 -0.0511
24064W        W40325  15.476   5.246  11.364  0.0447  0.2552 -0.1647
24065W        W40326   7.521  10.601  11.888 -0.0317  0.3185  0.1695
24066W        W40327   8.687  11.434  11.348 -0.1134 -0.2828 -0.1493
24067W        W40328  15.628   8.913  13.940  0.5859  0.0925 -0.2687
24068W        W40329  12.049   2.234  13.382 -0.0515  0.1349  0.3826
24069W        W40330  17.176  12.419   0.974 -0.1277 -0.0151  0.0906
24070W        W40331   3.572   3.559  13.945 -0.1290  0.3226  0.1805
24071W        W40332   2.560  15.581  15.833  0.2585 -0.0124  0.0053
24072W        W40333   2.447   3.167   2.059  0.1872  0.1729  0.1140
24073W        W40334  13.685   4.122   2.617 -0.0224  0.0160 -0.2919
24074W        W40335   7.306   1.553  14.496 -0.2936  0.2116 -0.2518
24075W        W40336   6.554   6.952   4.877  0.0051  0.1048 -0.0240
24076W        W40337   5.143   7.050   0.248 -0.1712  0.0862  0.2576
24077W        W40338   8.011  13.584  15.238  0.2409  0.1534  0.3531
24078W        W40339  17.569   9.348   0.500  0.2613 -0.0049 -0.1564
24079W        W40340   7.795   0.832  14.073 -0.0217 -0.2050 -0.3013
24080W        W40341   4.908  13.209   5.709 -0.0390 -0.1839  0.0396
24081W        W40342  10.010   4.630   2.005 -0.0205 -0.0507 -0.0262
24082W        W40343  17.949   0.863  11.800 -0.2778 -0.0266 -0.3675
24083W        W40344   4.009  14.178   1.751  0.1510 -0.0577  0.1512
24084W        W40345   5.433   6.147  13.771 -0.0273 -0.0554  0.2241
24085W        W40346   2.897   9.320   3.818  0.2210  0.2144 -0.3535
24086W        W40347   8.561   9.887   3.056 -0.0440  0.0212  0.2018
24087W        W40348  14.112  16.282   4.348  0.0166 -0.2744 -0.2924
24088W        W40349  11.946  12.938  15.085 -0.1770  0.0778 -0.0444
24089W        W40350   3.934  10.835  14.877  0.2785 -0.0174  0.2591
24090W        W40351   4.221  12.257   5.206 -0.0024 -0.0573 -0.1991
24091W        W40352   4.872   6.848  11.779  0.1976  0.2816  0.2268
24092W        W40353  12.289  10.782   3.694 -0.3627 -0.2191 -0.1053
24093W        W40354   7.351   2.717   4.393  0.2314  0.1553 -0.2464
24094W        W40355   8.946   3.036   0.043  0.2883  0.3264  0.2466
24095W        W40356   6.126   2.810   2.192  0.0408  0.1649  0.0259
24096W        W40357   3.477  12.777  12.514 -0.1612  0.2382 -0.1883
24097W        W40358   5.125   0.059  13.802 -0.0090 -0.0534 -0.2785
24098W        W40359   4.997   1.914   1.113  0.1205  0.0579 -0.1725
24099W        W40360   7.520   1.454   5.797  0.0480  0.2192  0.3914
24100W        W40361   1.988   3.760  12.071 -0.2735 -0.3537 -0.3034
24101W        W40362   0.523   8.564   2.933  0.3156 -0.1322 -0.0440
24102W        W40363   4.559   6.595   3.171 -0.1373  0.0767  0.1304
24103W        W40364  18.210  13.120   1.518  0.1287  0.0602  0.3629
24104W        W40365  11.158  12.095   4.449  0.0509  0.0149 -0.0030
24105W        W40366   9.073  15.614   5.102 -0.1149 -0.1586 -0.0585
24106W        W40367   9.950   5.714  15.409  0.3789  0.0313 -0.0781
24107W        W40368   4.485   5.430   6.095 -0.4723  0.2709 -0.1029
24108W        W40369   9.020   9.544   1.000 -0.1625  0.0844  0.0005
24109W        W40370  14.218  13.191   0.759  0.1379 -0.2600  0.1094
24110W        W40371  15.517   5.699  13.026 -0.3788  0.1244 -0.1681
24111W        W40372  13.854  14.289   1.934 -0.1099  0.4405 -0.4724
24112W        W40373   4.319   0.750   2.057  0.1741  0.1801  0.3433
24113W        W40374  17.051  11.983   4.446  0.1984 -0.0194 -0.1499
24114W        W40375   0.599   1.812  14.649  0.0416  0.0836 -0.0474
24115W        W40376  10.674  15.106  10.131 -0.0468 -0.0296  0.1071
24116W        W40377  17.097   6.201   0.965 -0.3724 -0.0476  0.2580
24117W        W40378   6.116   3.342   3.276 -0.1516 -0.2238  0.0911
24118W        W40379  12.916   5.403   2.070 -0.2032  0.1211  0.1518
24119W        W40380   0.618  14.047   3.692  0.1610  0.0857  0.0805
24120W        W40381  15.889   4.242  14.816  0.1119  0.3626 -0.3024
24121W        W40382   1.079   0.145  12.504  0.2053 -0.1680  0.1291
24122W        W40383  18.161   1.448  12.717  0.0173 -0.0171 -0.0738
24123W        W40384  11.772   7.517   2.187  0.0002 -0.1253  0.2456
24124W        W40385  11.873   7.835  12.148  0.0282  0.0581 -0.1928
24125W        W40386  15.775  12.444   1.917 -0.0255 -0.0700  0.1914
24126W        W40387   0.909  15.839  13.035 -0.0462  0.1682 -0.2332
24127W        W40388  16.827   7.667   1.534 -0.0835 -0.1705  0.0760
24128W        W40389  17.656   2.987   0.749 -0.1131  0.0010  0.1396
24129W        W40390  12.665  10.470   3.860  0.2162 -0.1701 -0.0482
24130W        W40391   9.720  15.566   0.524 -0.1631  0.0028 -0.0592
24131W        W40392   1.683   3.944  15.509 -0.0703 -0.0762  0.2020
24132W        W40393   4.372   5.052   2.217 -0.1842 -0.1417 -0.0440
24133W        W40394   8.023  13.131   2.973  0.0853  0.0485  0.2212
24134W        W40395  15.131   1.734  11.371  0.3730 -0.0309 -0.2713
24135W        W40396  10.176  12.827   6.209  0.2373  0.2024  0.0579
24136W        W40397   7.982  11.950   2.787  0.0531 -0.1835 -0.0514
24137W        W40398  13.352   1.718  13.288  0.1506  0.1112 -0.1263
24138W        W40399   4.303  16.239  14.521  0.1413  0.3093 -0.1371
24139W        W40400  15.074   7.547  11.642 -0.1612 -0.1513  0.1196
24140W        W40401   3.413   5.060  12.308  0.1394 -0.3044 -0.2593
24141W        W40402  12.931   8.879   3.046  0.1467  0.0987  0.0483
24142W        W40403   4.841  12.613   5.620 -0.1575 -0.3485  0.1036
24143W        W40404  14.234  17.239  10.868  0.2636  0.2777 -0.1453
24144W        W40405   1.907  12.087   0.360  0.1758  0.1403 -0.1345
24145W        W40406  15.548   8.537   3.000  0.1988  0.1175 -0.3702
24146W        W40407   7.420  13.414   4.561 -0.0235 -0.2335  0.1614
24147W        W40408  17.238   9.747  11.776  0.2049 -0.0309  0.0639
24148W        W40409  12.540   7.800   4.648 -0.1812  0.0983  0.0225
24149W        W40410  11.547  14.476  15.191 -0.2070 -0.2693  0.0880
24150W        W40411  13.593   2.458  12.334 -0.4431 -0.2466 -0.2309
24151W        W40412   4.709  15.645  12.301  0.2239 -0.3102  0.0094
24152W        W40413   0.066  11.617   3.188 -0.2901  0.0720  0.2787
24153W        W40414   1.915   4.557  14.799 -0.1118 -0.0135 -0.0598
24154W        W40415   6.383   3.570  15.177 -0.0455  0.0026 -0.1825
24155W        W40416   7.478  13.559   5.070 -0.0980  0.0143  0.1236
24156W        W40417  13.208   9.698  14.137 -0.1253  0.1452 -0.0057
24157W        W40418   9.000   3.955   3.563 -0.2484  0.1118  0.0030
24158W        W40419  16.842  17.525  13.031  0.2470 -0.1267 -0.1057
24159W        W40420   6.982   8.307   4.080  0.1241  0.2564 -0.0323
24160W        W40421  10.078   8.748   3.492  0.3429 -0.1759 -0.0130
24161W        W40422  11.452   4.538   3.523  0.0455  0.1950  0.1693
24162W        W40423   5.786  14.328  15.736  0.0544 -0.0565 -0.2074
24163W        W40424   7.222  15.808  11.829 -0.0500  0.1765  0.0226
24164W        W40425   8.973   0.980   4.746  0.1429  0.0817 -0.1663
24165W        W40426  16.419   0.196   3.028  0.2221 -0.0570 -0.3529
24166W        W40427  10.461  11.631   1.965 -0.2128  0.0496 -0.1283
24167W        W40428   7.162  15.119   1.751 -0.3698 -0.0336  0.1790
24168W        W40429   5.897  10.545  14.517  0.3164  0.0862 -0.0561
24169W        W40430  16.628  16.161  11.282 -0.2021  0.0137 -0.0915
24170W        W40431   1.653  16.480   5.763 -0.2487 -0.0676 -0.2106
24171W        W40432   5.367   5.697  15.721 -0.0627  0.1450  0.2582
24172W        W40433  14.009   7.670  14.445  0.0034  0.0230 -0.0800
24173W        W40434   2.260   2.203   1.961 -0.1621  0.1710  0.1790
24174W        W40435   1.703   0.691   0.600  0.0176 -0.2193  0.1238
24175W        W40436   8.745  14.751   5.448 -0.0452  0.0258 -0.3779
24176W        W40437  13.003   1.098   1.972 -0.0658 -0.5094  0.0008
24177W        W40438  11.978   8.241   3.159 -0.3202  0.0214  0.1238
24178W        W40439  10.014   2.931   1.106  0.1457 -0.0237  0.4116
24179W        W40440  11.287   5.872   1.363  0.4123 -0.0679  0.0343
24180W        W40441  14.412   2.613   1.073  0.2762 -0.3991 -0.3316
24181W        W40442  16.528   1.963  11.918  0.1650 -0.0417  0.1648
24182W        W40443  12.612   2.818   1.464  0.0398  0.3249 -0.0138
24183W        W40444   0.221  13.810  13.409  0.0458 -0.3858  0.0764
24184W        W40445   2.620   9.116  11.211  0.2176 -0.0849 -0.0610
24185W        W40446  16.776  15.274   0.641  0.3098 -0.0434  0.1187
24186W        W40447   7.610   3.804   1.947 -0.0452  0.1131 -0.0752
24187W        W40448  11.502   2.948   3.918 -0.3479 -0.3740 -0.2087
24188W        W40449  13.900   7.880   2.730  0.2520  0.0920 -0.4843
24189W        W40450  10.525  15.368  12.952  0.0921  0.0951 -0.1115
24190W        W40451   6.563  15.654  14.015  0.1295  0.0456  0.0624
24191W        W40452   0.721   3.855  15.026  0.0947 -0.3062  0.2845
24192W        W40453  16.618   2.716  13.701  0.3049 -0.0928 -0.2411
24193W        W40454  17.558   5.375   5.154 -0.0624 -0.2106  0.0917
24194W        W40455   4.039  16.670   4.200 -0.1525 -0.1073 -0.1044
24195W        W40456   7.763   4.902  12.818 -0.0920 -0.1260 -0.3800
24196W        W40457  12.715   8.270  15.743 -0.0949  0.0985 -0.1586
24197W        W40458   1.843   8.859   0.603  0.1514 -0.1853 -0.0555
24198W        W40459   8.973   7.963   1.820 -0.0027  0.1111 -0.0675
24199W        W40460   4.482  11.597   2.353 -0.1938 -0.0902 -0.0409
24200W        W40461  10.298  17.134  15.736  0.1326  0.0683  0.0990
24201W        W40462  11.509  12.310  14.042 -0.0826 -0.2000 -0.1052
24202W        W40463   8.863   5.306  11.546 -0.1175  0.1102  0.2351
24203W        W40464  13.053   3.942  15.763 -0.1903 -0.0544 -0.0136
24204W        W40465  15.403   4.806   2.441 -0.1699 -0.0777 -0.1285
24205W        W40466  14.977   9.629   3.898 -0.1218  0.0895 -0.2265
24206W        W40467   5.902   1.137   3.014  0.1462  0.0038 -0.0576
24207W        W40468  11.770   9.587   4.902  0.3131  0.1136  0.1755
24208W        W40469  12.682   9.090  12.102  0.0507  0.1045 -0.1974
24209W        W40470   7.304   3.292   1.222 -0.1697 -0.0343  0.0571
24210W        W40471   3.150  16.117   1.043 -0.2053  0.1929 -0.3892
24211W        W40472   3.361   2.219  15.898 -0.1002  0.0850 -0.1184
24212W        W40473   2.375   6.515  13.823  0.1299 -0.3362  0.0349
24213W        W40474  13.049  11.136  14.965  0.0112 -0.2750  0.1746
24214W        W40475  15.883  12.365  14.409  0.1659  0.0404  0.0878
24215W        W40476  16.835   2.980  15.883 -0.2718  0.0059 -0.0208
24216W        W40477  10.270  15.493   3.591  0.0219  0.3859 -0.1098
24217W        W40478   7.163   6.765   3.991  0.2007 -0.1693  0.2717
24218W        W40479   6.305   2.607   2.683  0.1182  0.2650  0.1675
24219W        W40480   7.218  16.228  12.211 -0.1848 -0.2131 -0.2675
24220W        W40481   1.040   9.773   5.118  0.2600  0.2128  0.2519
24221W        W40482   2.245  13.617   2.287  0.1340 -0.1597 -0.1013
24222W        W40483  17.993  12.659   1.411 -0.0824 -0.0594 -0.1296
24223W        W40484  14.464  10.083   2.182 -0.1865  0.2783 -0.1897
24224W        W40485  16.221  14.472  14.408 -0.0747 -0.4144 -0.0156
24225W        W40486   6.912  13.175  11.642  0.1251 -0.3533 -0.0159
24226W        W40487  10.016   7.829  12.592  0.1522 -0.0975 -0.1016
24227W        W40488  12.731   6.529  14.970 -0.2259  0.4110 -0.1870
24228W        W40489  17.690   2.848   2.179 -0.1012 -0.0585 -0.0514
24229W        W40490  12.881  11.582   2.171 -0.0700 -0.1344 -0.0835
24230W        W40491  17.753   8.156  15.000  0.1125  0.1253 -0.0222
24231W        W40492  11.900  15.283  14.768 -0.0838  0.1607 -0.5379
24232W        W40493   2.519   0.848   1.499  0.1254  0.0347  0.0434
24233W        W40494   3.268  15.400   4.668 -0.0365  0.1990  0.1620
24234W        W40495   3.071   7.408   4.305 -0.1494 -0.2046  0.2508
24235W        W40496   2.338  14.993  11.233 -0.2796  0.2243 -0.3277
24236W        W40497  11.470   7.997  15.688 -0.0974 -0.1249 -0.0898
24237W        W40498   1.333   0.159   0.856  0.1392 -0.2221  0.1035
24238W        W40499   8.248  11.558   2.874  0.0397  0.0999  0.1777
24239W        W40500  16.036   7.452  13.470 -0.1948 -0.1562  0.1391
24240W        W40501  14.206   6.938  15.070  0.0868 -0.1854 -0.0271
24241W        W40502   6.021  10.598  12.698 -0.0634  0.1640  0.3515
24242W        W40503  10.684   4.032   2.101  0.4530 -0.0628 -0.2504
24243W        W40504  14.249  12.405  10.851  0.0428  0.1703  0.1150
24244W        W40505  16.799   7.026   2.632 -0.2749  0.1504 -0.2273
24245W        W40506   5.133  17.253   0.482  0.0723  0.0985  0.1062
24246W        W40507  11.936  16.358  14.019 -0.0060 -0.0275  0.1856
24247W        W40508   5.341   9.827   0.847 -0.2188  0.4805 -0.1419
24248W        W40509   5.449  15.823  12.605 -0.1275  0.2554  0.0344
24249W        W40510   9.481   1.751   2.969 -0.0051 -0.1360  0.0309
24250W        W40511   2.576   9.695  16.083 -0.0760 -0.1694  0.0502
24251W        W40512   1.445   4.599   4.993 -0.1786 -0.0192 -0.4100
24252W        W40513  13.586  13.162   4.506 -0.0036 -0.0091  0.1487
24253W        W40514   9.003   2.681  15.794  0.1084  0.0266  0.2969
24254W        W40515   9.743  11.068  15.796 -0.1055  0.2584  0.3244
24255W        W40516  17.539  10.993   4.900 -0.1517  0.0402 -0.3039
24256W        W40517  12.540  13.839   4.921 -0.1650 -0.1904  0.0373
24257W        W40518  14.877   4.077   1.000 -0.2204  0.0490  0.1138
24258W        W40519   0.409  12.249   3.019 -0.2897  0.0057  0.0240
24259W        W40520   8.492   3.890   4.417 -0.0156  0.1145  0.1497
24260W        W40521  10.254   3.025  11.696 -0.0040  0.0727  0.0949
24261W        W40522   7.304  11.856  13.941 -0.2525  0.1006  0.1386
24262W        W40523  16.891   2.523   2.065 -0.2987  0.0696 -0.0636
24263W        W40524  13.492  17.120  11.400  0.1164  0.0318 -0.0332
24264W        W40525   3.453   6.089  13.251 -0.4565 -0.0944 -0.0867
24265W        W40526   3.661  17.716   4.943  0.6919 -0.2620 -0.2602
24266W        W40527   3.304   0.364  12.854  0.0648 -0.0942 -0.1710
24267W        W40528   4.327  10.349  12.916 -0.3220  0.2323 -0.0077
24268W        W40529  16.582   4.590   5.717  0.1366  0.0455 -0.1778
24269W        W40530  17.835  13.527  15.790 -0.1985  0.2623 -0.2084
24270W        W40531   3.565   3.941   1.377  0.1369 -0.0246 -0.0958
24271W        W40532   4.271  13.357  15.251 -0.1724  0.0265  0.2230
24272W        W40533   6.543   8.053  15.192  0.0012  0.0214  0.2200
24273W        W40534   6.893  11.230  14.916 -0.0275 -0.1565 -0.1464
24274W        W40535   8.894  13.299  14.960 -0.1449  0.3246 -0.0297
24275W        W40536   8.861   0.581  13.619 -0.1997  0.1105 -0.0231
24276W        W40537  10.462   8.739   1.676 -0.2809  0.0769 -0.0188
24277W        W40538  15.765   5.717  12.544 -0.2459 -0.2384  0.0038
24278W        W40539   3.379   1.410   2.531 -0.2127 -0.3237  0.1114
24279W        W40540   2.354   4.048   2.762  0.2307  0.1270  0.1012
24280W        W40541   5.521   0.910  15.998  0.0115  0.0971 -0.0134
24281W        W40542  10.257   7.502   4.894  0.1029 -0.0167 -0.1609
24282W        W40543   5.571   5.422  12.312 -0.1287  0.1650  0.3503
24283W        W40544  12.908  14.485  12.291  0.0752 -0.0059  0.1105
24284W        W40545  12.687   6.783   4.896  0.1622  0.2385  0.0277
24285W        W40546   9.164  11.842   1.454 -0.0247  0.1064 -0.1049
24286W        W40547  17.557  18.467   1.908  0.1588  0.2203  0.0855
24287W        W40548  10.890  17.355   3.696  0.3161  0.0570 -0.0076
24288W        W40549  12.571   3.506   4.746 -0.2264  0.1543  0.1172
24289W        W40550   6.754   8.398   3.082  0.1154  0.1130  0.1306
24290W        W40551   1.085   4.915  11.407  0.3245 -0.1247  0.3122
24291W        W40552   0.985   5.957   2.749  0.0596 -0.0546 -0.1367
24292W        W40553   5.496   1.825  13.290  0.2016  0.0146  0.0431
24293W        W40554  15.296   0.456   1.897 -0.1187 -0.3409 -0.3281
24294W        W40555  12.033   9.201   2.650 -0.1703  0.1171  0.1173
24295W        W40556   0.060   5.722  12.944 -0.1781 -0.1946 -0.3194
24296W        W40557   1.330   6.279  14.367  0.0904 -0.0893  0.3039
24297W        W40558   0.203   5.984  11.000  0.0721 -0.2107 -0.0735
24298W        W40559  14.773   2.132  12.219  0.1466  0.2776 -0.1439
24299W        W40560   9.118  10.765  15.157  0.1822  0.1661  0.0231
24300W        W40561   3.533   9.045   0.622  0.1143  0.2189  0.0404
24301W        W40562   2.597  10.497  13.867  0.2446 -0.0586  0.0862
24302W        W40563  10.843   9.885  13.858 -0.0609 -0.1314 -0.2056
24303W        W40564  16.307   4.783  12.963 -0.0497 -0.0000  0.2275
24304W        W40565   1.956   8.319   2.681  0.2151  0.2268 -0.1662
24305W        W40566  17.101   3.440   0.120 -0.0943 -0.5059  0.1914
24306W        W40567  11.171  12.416   1.163  0.2334 -0.1428  0.0026
24307W        W40568  11.712   2.653   3.304  0.2462  0.1001 -0.1371
24308W        W40569  11.427  10.525   2.612 -0.1658 -0.1695  0.0988
24309W        W40570   1.939  13.699  11.446  0.0796 -0.1790  0.4780
24310W        W40571   5.949   6.598  15.311 -0.2098 -0.1703  0.3056
24311W        W40572   6.174   2.975   4.198 -0.1684 -0.2432  0.0530
24312W        W40573  10.927   5.291   0.597  0.2290 -0.0776 -0.0675
24313W        W40574  11.027  17.399  12.939 -0.0980  0.0765 -0.3155
24314W        W40575  13.243   7.265   2.683  0.0390 -0.0271 -0.0431
24315W        W40576   7.596   6.145   1.604  0.2559 -0.0356 -0.3038
24316W        W40577  16.416  16.371   0.490  0.1003  0.0754  0.3897
24317W        W40578  18.190  18.423   3.504 -0.0638 -0.1430  0.0851
24318W        W40579  15.159   0.647   5.173  0.1320 -0.1438  0.3046
24319W        W40580  13.704  16.464   4.059 -0.2238 -0.0861  0.0151
24320W        W40581   5.840  17.217  13.361 -0.0470 -0.1585  0.0772
24321W        W40582  11.877  11.548   0.502 -0.1654 -0.3201  0.2833
24322W        W40583  12.575   2.966  13.242  0.0363  0.0710 -0.2732
24323W        W40584   4.852   2.667   1.526 -0.0141 -0.0041  0.3988
24324W        W40585   4.252   0.113  14.248 -0.1892 -0.1226 -0.0328
24325W        W40586   3.397  13.795   1.060  0.3129  0.1064 -0.2396
24326W        W40587   3.832  15.209  13.424 -0.1124  0.1381 -0.1103
24327W        W40588  12.286   0.100  13.229 -0.2243  0.2631 -0.1409
24328W        W40589  13.384   0.853  12.961  0.0051  0.1870 -0.1766
24329W        W40590  13.719   6.768   2.869 -0.1654 -0.2950 -0.0277
24330W        W40591   5.815  14.847  14.833  0.1940 -0.1232  0.1117
24331W        W40592  16.227   3.535   1.594  0.1694  0.2910  0.1990
24332W        W40593  13.104   4.939   5.473  0.1451  0.1414  0.1924
24333W        W40594   8.645  11.862  11.164 -0.1810  0.1185  0.2184
24334W        W40595  15.396  13.433   9.783  0.0709 -0.2347 -0.2402
24335W        W40596  16.857   2.022  14.310  0.2661 -0.1560 -0.0888
24336W        W40597  10.836  14.805   1.111 -0.0937 -0.0814  0.2716
24337W        W40598   6.399  17.044   5.245 -0.0987  0.2573 -0.1934
24338W        W40599   0.894  16.448  12.802 -0.3956  0.3828 -0.3322
24339W        W40600  15.673   4.053  14.258 -0.0135  0.0538 -0.1087
24340W        W40601   8.977  12.040   1.901 -0.0569 -0.0511  0.0466
24341W        W40602  11.203  11.794   3.286 -0.1305  0.2191 -0.0818
24342W        W40603   5.226   9.385  12.688 -0.0731  0.0753  0.3556
24343W        W40604   2.159  16.370   2.166  0.0671  0.1637  0.0242
24344W        W40605  10.609  12.362  15.828  0.1089 -0.1930 -0.4450
24345W        W40606   5.958  16.552   2.523 -0.3655  0.0735 -0.3036
24346W        W40607   0.637  14.049  10.932 -0.2120  0.1686 -0.0690
24347W        W40608  10.128   0.893  15.838  0.2579 -0.1798 -0.1716
24348W        W40609  10.431  11.473   5.483 -0.0240  0.0485 -0.0146
24349W        W40610  11.933   0.248   0.802 -0.0893  0.1539 -0.1053
24350W        W40611   5.040   8.372   5.209 -0.2411  0.2554  0.1639
24351W        W40612  18.138  13.570   0.033  0.0324  0.1934 -0.4034
24352W        W40613   4.758   5.553   3.362  0.0704  0.2596 -0.0391
24353W        W40614   4.490   8.081  13.012  0.1075  0.0511 -0.1722
24354W        W40615  13.235  10.018   4.380 -0.1251  0.0435  0.0025
24355W        W40616  12.451   2.906   3.948  0.0492 -0.3305 -0.3544
24356W        W40617  14.136  13.958  13.843  0.2037 -0.0240  0.0420
24357W        W40618  18.137   5.242  14.053  0.0447  0.0566  0.1815
24358W        W40619  16.559  10.471  11.580 -0.0326  0.1089  0.4460
24359W        W40620   4.687  10.815   3.045 -0.0000 -0.1549  0.0008
24360W        W40621   8.166  12.656   2.826  0.1996  0.1647  0.2068
24361W        W40622   0.341   6.823  12.605  0.3264 -0.2262  0.4448
24362W        W40623  13.267  15.040  14.700 -0.1478 -0.1301 -0.0010
24363W        W40624   5.404  17.238  14.856  0.2351  0.1705  0.1196
24364W        W40625  14.644   8.969  15.027 -0.0116  0.1698  0.2068
24365W        W40626   5.789   5.252  15.559  0.2021 -0.0631  0.0750
24366W        W40627  17.277   7.056  14.279  0.0973 -0.0066 -0.3092
24367W        W40628  14.672   4.629   0.991  0.1610  0.1753  0.1831
24368W        W40629  14.617   6.836   1.583  0.0434  0.1730  0.1661
24369W        W40630   0.178  12.507  12.249  0.0965 -0.1752 -0.1087
24370W        W40631  12.978   8.588  13.314 -0.1127 -0.2968  0.1180
24371W        W40632   0.345  16.142   2.272 -0.3086  0.1056 -0.1164
24372W        W40633  18.321  12.816  12.567  0.3170 -0.4858 -0.3001
24373W        W40634  16.110   6.066   4.478 -0.2829  0.1181  0.0459
24374W        W40635   4.516  14.075  14.606 -0.2042 -0.1900  0.2214
24375W        W40636   2.907  18.290  14.635  0.1701  0.0259 -0.2852
24376W        W40637   7.781  15.858   4.071  0.2178 -0.0219 -0.0099
24377W        W40638  12.894   0.601  11.050  0.0274 -0.4324  0.1764
24378W        W40639  17.715  14.954  10.926 -0.0433  0.3365 -0.0614
24379W        W40640   0.287   5.272   5.699  0.1397 -0.1533  0.0617
24380W        W40641   0.729   4.241   3.888  0.0736 -0.1911  0.2347
24381W        W40642   2.067  10.221  15.526 -0.0139  0.0049  0.0049
24382W        W40643  15.778  13.810   5.047  0.2143  0.0812 -0.3856
24383W        W40644   9.502   8.211   1.821 -0.0217  0.0799 -0.0926
24384W        W40645   3.199   7.343  15.014  0.0486  0.1785  0.2141
24385W        W40646  15.936  17.378   5.475  0.1408  0.2098  0.1332
24386W        W40647  17.399   1.548   1.787  0.0431  0.0133  0.0119
24387W        W40648  18.169   5.696   0.254  0.1956 -0.0988  0.1125
24388W        W40649  18.290  15.131   4.615 -0.3147  0.3433  0.2599
24389W        W40650  14.496   5.995  12.337  0.1132 -0.1281 -0.0280
24390W        W40651  13.291   9.023   2.624  0.0741 -0.1738 -0.3329
24391W        W40652  16.266   0.846  14.139 -0.1942 -0.1311 -0.1677
24392W        W40653  16.594   5.920  12.264  0.1394  0.0445  0.1657
24393W        W40654  12.484  14.551  16.058  0.4355 -0.0663 -0.2906
24394W        W40655  11.141  14.872   0.686 -0.4298  0.2804 -0.2823
24395W        W40656  15.822  16.894  12.214  0.2994  0.1471  0.0200
24396W        W40657   7.373  17.737  12.927  0.2966 -0.1660  0.2521
24397W        W40658  10.948  13.690   3.115 -0.0530  0.2721 -0.0454
24398W        W40659   2.787   0.591  15.729 -0.3131 -0.1057  0.2674
24399W        W40660   9.402  11.812   2.667 -0.2579 -0.1739 -0.0483
24400W        W40661  16.254   4.918   0.098 -0.1308 -0.0731  0.4558
24401W        W40662   6.942   3.300  15.118  0.0541  0.0130 -0.1807
24402W        W40663  18.485  10.913   2.468 -0.1465  0.0806  0.1471
24403W        W40664   4.408  15.148  16.176  0.5029  0.2199  0.1689
24404W        W40665   7.839  15.881   3.348  0.0092  0.0527  0.0425
24405W        W40666   2.754  16.742  12.435  0.0649  0.0097  0.0822
24406W        W40667  15.080   2.849   4.276  0.0540 -0.0205  0.1156
24407W        W40668  11.291   0.613   0.856  0.0168  0.0436 -0.3265
24408W        W40669  12.459   2.171   4.677 -0.1545  0.1089  0.5042
24409W        W40670   7.459   6.171   0.667 -0.2411 -0.1721 -0.4174
24410W        W40671  12.776  10.484  16.119 -0.0102  0.1141  0.0357
24411W        W40672   4.160  14.164   4.146  0.0774  0.0669  0.0207
24412W        W40673   8.965  11.383  11.847  0.1609 -0.1368 -0.2073
24413W        W40674   6.788  14.261   3.578  0.0778 -0.0026 -0.0861
24414W        W40675   2.283  16.480  12.033 -0.1412 -0.1117 -0.2670
24415W        W40676  15.692   6.074   4.775  0.0578  0.0397  0.0741
24416W        W40677   9.110  17.187   0.158 -0.1348 -0.1912 -0.0047
24417W        W40678   1.934   7.877   3.412 -0.1772 -0.0369  0.0025
24418W        W40679  14.063   7.823  11.610 -0.1982 -0.0031 -0.0602
24419W        W40680   8.153  17.598   2.979 -0.2019 -0.1545 -0.3145
24420W        W40681  11.215   9.632   2.404  0.1325 -0.3054 -0.0674
24421W        W40682  14.424  15.509  15.452  0.1992 -0.0569 -0.1571
24422W        W40683   9.188  11.705  14.203  0.2229  0.0367 -0.0579
24423W        W40684  14.586  12.660   1.146  0.1467 -0.2874 -0.0267
24424W        W40685  16.342  18.086   0.361  0.2486 -0.2582 -0.0653
24425W        W40686  16.538   0.589  12.291  0.1728  0.0137  0.0143
24426W        W40687   1.940  11.992  13.549  0.1217 -0.1532  0.0326
24427W        W40688  14.332  15.842  11.406 -0.1300  0.0583 -0.0545
24428W        W40689   0.428  11.779   3.558  0.1826 -0.0779 -0.0113
24429W        W40690   6.554   6.592  11.890  0.1177  0.3864  0.1413
24430W        W40691  12.589   1.592  14.168  0.1431 -0.2224  0.0821
24431W        W40692   9.702   1.844   3.898 -0.0195  0.0367 -0.2652
24432W        W40693  15.729  12.156  13.911 -0.3134  0.4071  0.3063
24433W        W40694  12.427   4.908  15.782 -0.1848  0.0477  0.3585
24434W        W40695  16.569  10.623   2.699  0.0551  0.0479  0.1094
24435W        W40696   9.852   3.310   3.132 -0.1664 -0.2243 -0.3213
24436W        W40697   2.607  18.101  14.265  0.1049 -0.0129 -0.2236
24437W        W40698  11.024   4.812   0.484  0.2045 -0.2366  0.0904
24438W        W40699  12.480   8.286  10.932  0.2627 -0.0924 -0.0775
24439W        W40700  15.831  14.325   9.851  0.4701 -0.2296  0.2870
24440W        W40701   1.744   0.195   0.052  0.0958  0.1029 -0.0952
24441W        W40702  17.527   0.360   1.544  0.1121 -0.2987 -0.1632
24442W        W40703  10.751   6.876   0.492 -0.0743  0.2772 -0.0739
24443W        W40704  13.237  13.286   0.205 -0.2419  0.2222  0.2112
24444W        W40705  14.871   3.537  12.993 -0.1681 -0.2302 -0.0418
24445W        W40706   2.754  12.826   5.087 -0.3657 -0.0516 -0.0782
24446W        W40707   2.361   7.809  14.344  0.0586 -0.3669 -0.1203
24447W        W40708   2.740   9.990   4.680  0.1814 -0.0846 -0.0046
24448W        W40709   9.204   9.421   5.382 -0.0486  0.3010  0.0902
24449W        W40710   0.615   6.083   3.638 -0.1189  0.0928  0.0055
24450W        W40711   8.199   2.307   2.421  0.1160 -0.1719  0.3735
24451W        W40712  12.576   8.886  13.971  0.0833  0.1928 -0.2122
24452W        W40713  10.320  11.435  12.517  0.1586 -0.2892  0.4233
24453W        W40714   0.644   8.165  12.320  0.1752 -0.1068 -0.3710
24454W        W40715   0.295  18.119  15.933 -0.0564 -0.1298  0.0168
24455W        W40716  15.691  11.369   3.350  0.1425 -0.3679  0.1327
24456W        W40717  14.214   8.966   2.587  0.5282  0.2997 -0.2778
24457W        W40718  13.182  18.082  10.509 -0.2012  0.0586 -0.2010
24458W        W40719  16.283   4.110   3.422  0.0178  0.1200 -0.1010
24459W        W40720  11.199   2.684  14.104 -0.2373  0.1850 -0.3206
24460W        W40721  13.735  17.055  12.217  0.3568  0.0417  0.1090
24461W        W40722   8.714   8.521  12.216  0.1508 -0.3397 -0.1936
24462W        W40723  15.229  12.501   1.773  0.1165 -0.2048  0.1476
24463W        W40724  13.035   7.453  12.108 -0.1346  0.1796  0.1216
24464W        W40725   1.136   1.757   0.483 -0.1827 -0.0665 -0.0477
24465W        W40726  12.873   9.796  13.319 -0.0336 -0.0563  0.0669
24466W        W40727  10.736   0.898  11.597 -0.0478 -0.0220 -0.1422
24467W        W40728   2.659  15.980  14.617  0.1142  0.0896 -0.0776
24468W        W40729  13.740  13.658   4.034 -0.2253 -0.2292  0.1742
24469W        W40730  11.679  14.434  11.155  0.5013 -0.0461  0.2691
24470W        W40731  15.885  13.748  12.131 -0.0245  0.0457 -0.0105
24471W        W40732  13.018   6.456  11.677 -0.0659 -0.0547 -0.1534
24472W        W40733   7.591   1.257  15.299 -0.3440  0.3702  0.0938
24473W        W40734  12.292  17.148   5.356  0.3018  0.0475  0.1611
24474W        W40735  12.695   7.453  13.149  0.1056  0.3995  0.2642
24475W        W40736   5.006   8.098  11.561  0.3561 -0.0967 -0.0344
24476W        W40737   0.082  15.808  11.839 -0.0707  0.2033  0.0174
24477W        W40738  18.299   6.289   4.196  0.3812 -0.0176  0.1323
24478W        W40739   7.029   8.617  12.847 -0.2116  0.2525 -0.0797
24479W        W40740  16.327   9.942   0.268 -0.0374 -0.0422  0.2787
24480W        W40741   3.226  10.419   1.645  0.0349  0.2340  0.0481
24481W        W40742  15.071   3.611   0.862  0.2169 -0.0493 -0.2888
24482W        W40743   0.552   4.768  12.266  0.2248 -0.4014  0.1113
24483W        W40744   0.949   6.207   5.971  0.0134 -0.1634 -0.1353
24484W        W40745  12.258   1.541   1.531  0.1808  0.0273  0.0171
24485W        W40746   1.687  16.798   0.396  0.7274 -0.1924 -0.0402
24486W        W40747  14.002   1.652   0.466 -0.2454  0.3348  0.1076
24487W        W40748   0.850  12.648  15.577  0.2041  0.2672  0.0455
24488W        W40749  13.439  12.314  11.553  0.1853  0.0803  0.1326
24489W        W40750   3.453   6.070  15.523 -0.0785  0.0635 -0.0903
24490W        W40751   6.316  18.032   3.664  0.0412  0.0650 -0.1370
24491W        W40752   4.979   9.321  11.620  0.1323  0.0343  0.2289
24492W        W40753  15.662  10.847  14.703  0.3509 -0.2953 -0.1830
24493W        W40754   9.794  13.979   1.328 -0.0094 -0.1077 -0.0031
24494W        W40755  15.585   6.815  11.555  0.1436 -0.0706 -0.1067
24495W        W40756   9.276   6.819  11.381 -0.2010 -0.0119  0.0306
24496W        W40757  14.636  15.333   1.854  0.0713 -0.1368  0.1728
24497W        W40758  14.851   9.883   5.850 -0.2731  0.1518 -0.1005
24498W        W40759  16.466   9.559   5.361  0.2228  0.0546 -0.1068
24499W        W40760   1.789  12.512   0.526  0.3128 -0.2022  0.0027
24500W        W40761   9.282  13.093  10.631 -0.3479 -0.5056  0.2677
24501W        W40762  12.493   8.788  13.129  0.1724 -0.3541  0.1723
24502W        W40763  13.054  13.111   4.494  0.1309 -0.0977 -0.1493
24503W        W40764  16.456   7.673  12.009 -0.0897 -0.0183 -0.1865
24504W        W40765  15.381   4.414  12.175 -0.2882 -0.4514 -0.0292
24505W        W40766   4.800   1.154   2.888 -0.3201 -0.4639 -0.1131
24506W        W40767   7.722   6.598   3.903 -0.1199 -0.0644  0.1350
24507W        W40768   3.328   1.548  15.006 -0.2526 -0.0347  0.1902
24508W        W40769  15.034  13.772   2.607  0.0476  0.4769 -0.0037
24509W        W40770   1.353  16.314  13.069 -0.2739 -0.0792 -0.1124
24510W        W40771  16.920  10.072   0.886 -0.0630  0.0107  0.2213
24511W        W40772  17.263   7.490  12.432  0.0867  0.0047 -0.0330
24512W        W40773  18.269  10.775  14.698  0.3620  0.2006 -0.3519
24513W        W40774  15.380   8.058   2.832  0.1996  0.3726 -0.2683
24514W        W40775  17.212  17.660   0.286 -0.0053  0.0632  0.0793
24515W        W40776  11.033   9.121  15.270 -0.1847  0.2588  0.0903
24516W        W40777  16.449  12.249   3.758 -0.0315 -0.1384 -0.0850
24517W        W40778  13.615   4.485   3.391 -0.0765 -0.2309 -0.0117
24518W        W40779   1.573  11.371  14.077  0.1897 -0.0784  0.0320
24519W        W40780   7.794   1.676   1.142 -0.1333 -0.1172 -0.2637
24520W        W40781   4.045   9.698   0.526  0.2704 -0.3453  0.1980
24521W        W40782  11.349  13.593  12.638  0.0596 -0.1540  0.0765
24522W        W40783  12.268   7.159   3.640  0.0224  0.2278 -0.2149
24523W        W40784   1.363  10.092   5.449  0.2930 -0.1091  0.0828
24524W        W40785   9.297   1.634   1.087 -0.1482 -0.0015 -0.1719
24525W        W40786   6.573  15.185   0.847  0.1422 -0.0428  0.3830
24526W        W40787  12.943   6.293   2.027 -0.1550 -0.1126 -0.1819
24527W        W40788   1.271   4.390   2.224  0.2332  0.1343 -0.2696
24528W        W40789  14.879   7.418   3.579  0.0647 -0.2796  0.1657
24529W        W40790  13.006  12.824   0.276  0.2546  0.1095  0.0882
24530W        W40791   8.764   5.964  11.668  0.0013 -0.3484 -0.1810
24531W        W40792   0.914  14.422  15.961 -0.2198  0.2147 -0.1420
24532W        W40793  13.523   0.432   4.833 -0.2640 -0.0086  0.1535
24533W        W40794   5.559  17.427   0.741  0.0523 -0.1655  0.3910
24534W        W40795   6.087   4.815   4.007 -0.2468  0.0887 -0.1123
24535W        W40796  15.169   2.341  13.836 -0.0372 -0.2421 -0.1035
24536W        W40797   6.557   4.420   2.587  0.1023  0.1594  0.0107
24537W        W40798   9.758  13.935  14.109  0.2407  0.0535  0.2115
24538W        W40799  11.670   3.287   4.583 -0.1821 -0.1739  0.2983
24539W        W40800  12.435   0.534  11.279 -0.3972 -0.0284 -0.0142
24540W        W40801   5.910  10.615   5.269  0.0778  0.0884  0.0078
24541W        W40802   6.280  15.530   5.632  0.1324 -0.1115  0.0930
24542W        W40803  15.692   2.854  13.174 -0.0712  0.3860  0.4373
24543W        W40804   8.276  11.816   0.802  0.2249  0.0953  0.2654
24544W        W40805  14.417   0.513   3.045 -0.1218 -0.4012  0.1383
24545W        W40806   4.963  10.307  13.502  0.1857  0.0881  0.0798
24546W        W40807   2.482  14.430   4.895 -0.1201  0.2930 -0.0448
24547W        W40808   8.487   1.152  10.968 -0.1472 -0.1420  0.1250
24548W        W40809   9.696   5.118   2.926  0.4164 -0.1104  0.2109
24549W        W40810   7.010   7.678   5.452 -0.0157 -0.2288 -0.1298
24550W        W40811   5.509  16.044   2.035 -0.0340  0.1403  0.1559
24551W        W40812   4.730  14.826  12.208 -0.1664  0.0884 -0.0001
24552W        W40813   0.478  10.329   0.287 -0.0080 -0.1046  0.0612
24553W        W40814  12.743   5.468  12.542 -0.1632  0.0719 -0.0004
24554W        W40815   3.807   6.819  16.147 -0.0157 -0.1172  0.2645
24555W        W40816  14.838  11.113   4.464 -0.0248 -0.3175  0.1136
24556W        W40817   6.653  14.457  11.905 -0.2163 -0.0114  0.4265
24557W        W40818  14.434  10.403   5.674 -0.1390 -0.2187 -0.1384
24558W        W40819   7.844   7.221  15.114  0.1510 -0.2582 -0.1400
24559W        W40820   9.305   1.100   0.684  0.1822  0.0081  0.2357
24560W        W40821   1.926  17.867   5.490 -0.0800  0.1878  0.0863
24561W        W40822   4.840   4.066  12.968  0.2901  0.2920  0.0846
24562W        W40823  15.366   6.692   3.752  0.2350  0.0460  0.1119
24563W        W40824  10.039  17.096  14.769 -0.0037 -0.0137  0.1236
24564W        W40825  17.511   4.868   2.084 -0.1105  0.0970  0.1034
24565W        W40826  15.997  16.278   0.217 -0.0682 -0.0679  0.0782
24566W        W40827  14.275   3.882  13.396 -0.0001  0.4177  0.0761
24567W        W40828  14.674  16.205  16.106  0.5157 -0.1006  0.2542
24568W        W40829   9.076  10.891   0.466 -0.0011 -0.0729  0.2658
24569W        W40830  14.061   1.301   4.531 -0.0269 -0.2917 -0.0253
24570W        W40831   9.310   0.802   3.906  0.0438 -0.4316  0.4686
24571W        W40832   3.478   7.632  15.587  0.4246 -0.0203 -0.1679
24572W        W40833   4.515  16.921   3.394  0.0908  0.0248  0.1914
24573W        W40834   2.588  16.563   4.880 -0.0924  0.0761  0.0297
24574W        W40835  14.938   0.970   0.979 -0.1068 -0.1255  0.1446
24575W        W40836   9.248  10.171   3.850 -0.1711 -0.0356  0.0549
24576W        W40837   1.736  13.859  12.281  0.0065 -0.1109 -0.0943
24577W        W40838   1.282   0.597  12.330  0.0116 -0.3475 -0.0142
24578W        W40839  15.535   3.874   4.100 -0.0575 -0.0479 -0.2451
24579W        W40840   2.969   3.490  12.938 -0.1977 -0.2813  0.4104
24580W        W40841   8.573   9.527  15.981  0.1688  0.2782  0.0617
24581W        W40842   0.702  15.194  13.084 -0.1673  0.1411  0.2221
24582W        W40843  10.616  13.701   1.112 -0.3304  0.4803  0.2393
24583W        W40844  16.239  10.799   5.494 -0.2564  0.0665 -0.0074
24584W        W40845   8.508   3.352   3.182 -0.1794 -0.0343  0.0776
24585W        W40846  16.750   7.224  12.237  0.3311  0.1502 -0.0137
24586W        W40847  12.944   4.621   1.919 -0.1772 -0.1978  0.0214
24587W        W40848   4.771  16.540  13.693 -0.0241 -0.0790 -0.0012
24588W        W40849   9.690   2.579   1.377  0.3451 -0.0360  0.0103
24589W        W40850  10.871  13.673   4.814  0.2548  0.1173 -0.2208
24590W        W40851  15.410  16.278   2.915  0.1624  0.0621 -0.1628
24591W        W40852  16.416   6.276  11.642 -0.1004  0.1128 -0.4632
24592W        W40853   0.381   8.969  14.303  0.2593  0.1930  0.1365
24593W        W40854   4.022  14.841  11.698  0.0121 -0.2436  0.0107
24594W        W40855   1.461   3.264  14.823 -0.0451 -0.3174  0.3041
24595W        W40856   1.208   0.610   1.806  0.1058  0.2631  0.1908
24596W        W40857   5.810  11.898  13.079  0.1342 -0.0073 -0.0283
24597W        W40858  14.247  14.804  15.977 -0.3243 -0.0657 -0.1042
24598W        W40859  12.574   6.766   2.075 -0.0516 -0.1459 -0.1664
24599W        W40860   8.035   9.024   1.283  0.1990  0.0613  0.0881
24600W        W40861   9.374   7.801   1.547 -0.1390 -0.0471  0.2195
24601W        W40862  14.789   8.273  13.192  0.1045  0.2251  0.1193
24602W        W40863   1.403  14.792   2.887  0.2383  0.0715 -0.1272
24603W        W40864   6.438  15.506   1.219  0.1294 -0.1409  0.3389
24604W        W40865  16.250  16.080   5.601 -0.1729 -0.2336  0.1857
24605W        W40866   1.875  16.358  11.249 -0.0481  0.2794 -0.2311
24606W        W40867  12.467  17.253  15.447  0.1333  0.0552  0.2684
24607W        W40868  15.084   2.119  15.083 -0.0399  0.1780  0.0010
24608W        W40869   1.625   1.912   3.546  0.1040  0.0006 -0.2448
24609W        W40870   7.842   0.846   4.739  0.1731  0.3728 -0.0977
24610W        W40871  10.055  15.038   1.316  0.0603 -0.1041  0.1261
24611W        W40872  13.312   3.487   0.907 -0.0837 -0.0481 -0.2154
24612W        W40873  12.602  16.371   3.516  0.3145  0.0922 -0.1103
24613W        W40874   4.095   5.332  12.949 -0.1362  0.1276 -0.0950
24614W        W40875   1.968  13.290  14.931  0.0548  0.1638  0.0082
24615W        W40876   6.151  14.194   4.586 -0.4256  0.1023  0.1232
24616W        W40877  16.085   6.070   1.055  0.1446  0.1604 -0.3251
24617W        W40878  13.196   9.224  15.772 -0.0385  0.1326  0.0399
24618W        W40879  13.672  15.571  12.712  0.0238  0.1425 -0.1711
24619W        W40880   6.425   1.594  12.623 -0.2205  0.3691  0.0715
24620W        W40881   1.598  11.637  13.622  0.1782  0.1353 -0.2495
24621W        W40882   0.729  16.275   5.725  0.0738 -0.0819  0.2282
24622W        W40883   2.696  10.342  12.049 -0.2606  0.1732  0.1031
24623W        W40884   1.887   9.612   3.617  0.3369 -0.1138  0.0081
24624W        W40885   1.629  12.561   1.071 -0.0593  0.0689 -0.0851
24625W        W40886   2.503  12.710   2.899 -0.0309  0.3804  0.0351
24626W        W40887  16.679  13.790  12.778  0.1259 -0.2424  0.3239
24627W        W40888   0.430   6.495   5.228  0.0738 -0.0058 -0.2867
24628W        W40889   3.591  15.856  14.311  0.2107  0.1368  0.0088
24629W        W40890   2.111  11.518  10.923 -0.0794  0.2629  0.1846
24630W        W40891  12.998  12.081  15.902 -0.0529 -0.2145 -0.1791
24631W        W40892   8.212  17.895   6.527  0.0223 -0.0460 -0.2484
24632W        W40893   7.915   1.766   5.765 -0.3000 -0.0007 -0.1823
24633W        W40894   6.864   6.410   1.837 -0.1839 -0.0296  0.1370
24634W        W40895   4.949   8.401   3.465  0.0063  0.2431  0.1376
24635W        W40896   7.994  14.570  13.970 -0.3501  0.1714 -0.1413
24636W        W40897  17.385   2.597   4.119  0.0212 -0.1601  0.1682
24637W        W40898   5.467   7.303  15.520 -0.0439 -0.0398 -0.3079
24638W        W40899   1.184  13.457   1.543 -0.0238  0.0384  0.0315
24639W        W40900   1.332  13.267  13.008 -0.0903 -0.2212 -0.1663
24640W        W40901  15.701  15.180  15.947  0.2651  0.1343 -0.2163
24641W        W40902   5.279   7.722  11.779 -0.0635 -0.0150 -0.3567
24642W        W40903  13.907   3.145   1.934  0.1465  0.0503 -0.2633
24643W        W40904  11.326   8.898   0.043 -0.0889 -0.3272 -0.4620
24644W        W40905   4.115  17.876   1.897  0.0030 -0.4927 -0.3023
24645W        W40906  12.827  16.134   0.251 -0.3471  0.1621 -0.0418
24646W        W40907  15.226   4.912   1.848 -0.0723  0.0426  0.0009
24647W        W40908  11.026   0.199   1.467  0.0160  0.0015  0.0025
24648W        W40909   6.533   0.386   1.867  0.1430  0.0891  0.3061
24649W        W40910  12.350   4.802   2.131 -0.0123 -0.2357 -0.0083
24650W        W40911   7.820  18.155   3.840  0.0517  0.1549  0.2565
24651W        W40912  15.916  17.046  10.912 -0.4202  0.0987 -0.0844
24652W        W40913  14.749   1.123   2.595  0.0680 -0.2438  0.0799
24653W        W40914   2.864   8.742  14.377 -0.0535 -0.1219 -0.3890
24654W        W40915  12.737  10.355  15.320  0.2340  0.5010 -0.1840
24655W        W40916  10.318   0.548   3.009  0.2611  0.0900 -0.2331
24656W        W40917  11.344   4.225   2.688  0.2193 -0.2496 -0.0112
24657W        W40918  18.113  14.058  14.189  0.3048  0.0457  0.1851
24658W        W40919  10.374  15.431  15.800  0.0322  0.1366 -0.1022
24659W        W40920   0.247  11.183  11.961  0.0927  0.0671 -0.2740
24660W        W40921   6.505  13.119  11.841  0.1319 -0.0694  0.0961
24661W        W40922   8.354  10.893  13.711  0.1812 -0.1187 -0.1218
24662W        W40923  14.769  10.687   1.641  0.4630  0.2054  0.1277
24663W        W40924  17.254  15.312   5.376  0.1794  0.0548  0.0040
24664W        W40925   3.887   5.336  13.414 -0.0539 -0.1983 -0.0572
24665W        W40926   9.511  14.954   5.398 -0.1356  0.1146 -0.0948
24666W        W40927  11.320  17.241   2.609  0.2108 -0.0357  0.0189
24667W        W40928  17.282  13.088   1.611 -0.0204  0.0772  0.0421
24668W        W40929   1.222   9.815  15.428 -0.0327 -0.1245 -0.0278
24669W        W40930  10.862   3.133   1.637 -0.1793  0.1514  0.2896
24670W        W40931   4.015   7.776  16.094  0.2203  0.0020 -0.1276
24671W        W40932   5.628  14.605  13.034  0.1371  0.0984 -0.0399
24672W        W40933  13.541   8.773   3.837 -0.1874  0.0588  0.1964
24673W        W40934   6.915  13.334   0.083  0.0879  0.1137 -0.0666
24674W        W40935   5.935  16.274  13.464  0.1619  0.1064 -0.0801
24675W        W40936   9.240   3.890   1.132  0.2406 -0.3256 -0.2736
24676W        W40937  13.906  13.499  13.979  0.0099  0.0877 -0.0726
24677W        W40938  17.850   5.412   2.253 -0.3078 -0.1571  0.2835
24678W        W40939  10.399  12.801  10.650 -0.0977  0.1469  0.0351
24679W        W40940  10.593  17.587   2.302 -0.1263  0.1195 -0.0056
24680W        W40941  13.322  13.521   4.255 -0.4510  0.1547 -0.0582
24681W        W40942   6.360  10.313   5.065 -0.3338 -0.1195  0.1826
24682W        W40943   8.594  13.735  14.775 -0.0591 -0.1115  0.0609
24683W        W40944   4.483   5.418  14.695  0.0856  0.1361 -0.1800
24684W        W40945  18.260   0.442  10.601 -0.1428 -0.0990 -0.0405
24685W        W40946   8.289  10.667   6.530  0.0365 -0.1160  0.0546
24686W        W40947   4.477  15.585   1.187 -0.1735  0.0784 -0.1327
24687W        W40948  14.138   6.432   2.970 -0.2279 -0.1220 -0.0623
24688W        W40949  14.018   9.719   3.943 -0.2091  0.0989 -0.1204
24689W        W40950  11.761   5.691   4.917  0.2008  0.0128  0.3618
24690W        W40951  15.737   9.911  15.607 -0.0562  0.0320  0.1188
24691W        W40952   0.948  16.883  15.232  0.0110 -0.0309 -0.3446
24692W        W40953   5.022   3.735  15.408  0.1676 -0.3765 -0.2534
24693W        W40954  16.924  15.407   3.242  0.0471  0.4261 -0.2433
24694W        W40955   3.569   2.166   4.677 -0.2785 -0.1253 -0.0939
24695W        W40956  12.939   9.983   0.035 -0.1121 -0.4722 -0.1210
24696W        W40957   6.088  15.555  11.783 -0.1777 -0.0272 -0.0987
24697W        W40958  13.294   6.782   4.167 -0.1173  0.1409 -0.1272
24698W        W40959   4.210   0.454  14.602 -0.2026 -0.2457  0.3570
24699W        W40960  17.162  18.223  13.751  0.1950  0.0296 -0.0062
24700W        W40961  16.453   2.685   0.116  0.0087  0.2520 -0.5106
24701W        W40962   1.133   8.306  14.530 -0.0375 -0.2842 -0.0252
24702W        W40963   1.959  10.005  14.596 -0.1321  0.1199 -0.1160
24703W        W40964   4.175   5.236  16.011 -0.0742 -0.0748  0.3154
24704W        W40965  11.831  15.424   3.480  0.1357 -0.0598 -0.1292
24705W        W40966  10.108  15.694   5.470 -0.0792 -0.3488 -0.0720
24706W        W40967   8.896   2.974  13.386 -0.0230  0.1180 -0.4042
24707W        W40968   3.215  18.243  11.722  0.2792 -0.0237 -0.4912
24708W        W40969   2.501   6.567   4.416  0.2235 -0.0389 -0.4561
24709W        W40970  15.829  11.801   4.390 -0.1465  0.0236 -0.4968
24710W        W40971  11.599   4.727  12.051  0.0793 -0.2198  0.0394
24711W        W40972  14.432  15.399  14.025 -0.1402  0.3144 -0.0766
24712W        W40973  11.074  17.365   3.145 -0.2372 -0.2158 -0.1861
24713W        W40974   3.428   7.162   1.188 -0.1642 -0.0072  0.0642
24714W        W40975  11.862  12.913   4.083 -0.1061 -0.3206  0.2123
24715W        W40976  16.099  13.865   0.109  0.2319 -0.2152  0.4949
24716W        W40977  10.894   1.329  13.605 -0.0315  0.1141  0.0594
24717W        W40978  13.799  12.454  13.747 -0.0359  0.0196 -0.1437
24718W        W40979   6.200  14.577   5.368  0.0654  0.0414 -0.4180
24719W        W40980  15.710   1.440  11.410 -0.0593  0.1956  0.0988
24720W        W40981  12.858  16.463  11.724  0.0451 -0.0666  0.0445
24721W        W40982  11.130   0.697   2.651 -0.1958 -0.2502  0.0218
24722W        W40983   6.820   6.310  15.291 -0.2769  0.2196  0.2819
24723W        W40984   4.192   2.353  15.578  0.3389 -0.0176  0.1329
24724W        W40985  11.446  10.496  11.927  0.0320 -0.0171  0.3043
24725W        W40986   3.699   7.601  12.823  0.1005 -0.2989 -0.1513
24726W        W40987   9.696   9.640  15.114  0.0426  0.0853  0.2341
24727W        W40988   5.560  16.930  10.633  0.3025  0.0887  0.0649
24728W        W40989   2.064  12.108  15.750 -0.0208  0.2182  0.1558
24729W        W40990   7.022   1.594  11.472  0.1627  0.1740 -0.1506
24730W        W40991   1.702  10.069   5.079 -0.0265  0.0873  0.1181
24731W        W40992   8.652   5.403   0.873 -0.1463 -0.3279  0.0310
24732W        W40993  16.237  12.820   3.117 -0.0490  0.2336 -0.3222
24733W        W40994   8.282   7.871  12.990 -0.0195 -0.1831  0.1345
24734W        W40995  13.148  17.453  10.941 -0.0301  0.5412 -0.0415
24735W        W40996   7.568  12.152   4.062 -0.2322 -0.0726  0.0384
24736W        W40997   4.282  13.978   5.273  0.0560  0.1454 -0.4017
24737W        W40998  14.929  18.404  13.530  0.2190 -0.1777  0.0086
24738W        W40999  14.052  15.121  10.739  0.2620 -0.1850 -0.1467
24739W        W41000   4.075  14.298   4.826  0.1708 -0.0872  0.2972
24740W        W41001   5.992  17.255  12.352  0.1773  0.0338 -0.1497
24741W        W41002  14.741   2.048  14.315  0.1950  0.0850  0.0659
24742W        W41003   6.068   1.978  16.023 -0.2050  0.0379  0.0419
24743W        W41004   0.159  14.606  10.204 -0.2509  0.0272 -0.0682
24744W        W41005   6.482   2.483  12.281  0.1757 -0.0797  0.0115
24745W        W41006   0.160   5.187  12.278  0.1732 -0.3142  0.2033
24746W        W41007   9.776   6.187  12.492  0.2168  0.2542 -0.1238
24747W        W41008   8.491  16.391  13.692  0.0600  0.0545  0.0210
24748W        W41009   5.578  13.192  12.297  0.2999  0.1290 -0.0998
24749W        W41010   7.569  10.520  13.481  0.2478 -0.0006 -0.0637
24750W        W41011   7.169  11.608  14.862 -0.1076 -0.2013 -0.0572
24751W        W41012   9.292   0.540   2.077  0.1952  0.0180  0.1284
24752W        W41013  10.472  12.171   5.792 -0.0744  0.3140  0.1132
24753W        W41014   8.082  15.515  13.117 -0.0383  0.1983  0.0804
24754W        W41015  13.056   9.124  14.757 -0.0457 -0.1061 -0.0684
24755W        W41016   6.353   5.751  12.787  0.1465 -0.0021 -0.2560
24756W        W41017   9.276  17.596  13.587  0.3318  0.4540  0.1475
24757W        W41018  18.020   9.802   5.521 -0.1115  0.3218  0.0588
24758W        W41019  13.069   9.980   5.293  0.0584 -0.0463  0.2309
24759W        W41020  15.781   6.000  13.387 -0.1185 -0.0405  0.0484
24760W        W41021  15.942   6.483  12.238  0.1574 -0.1130  0.1313
24761W        W41022  13.654   5.891   2.181 -0.0809  0.0458  0.0993
24762W        W41023  18.013  14.686   9.478  0.0837  0.0036  0.3332
24763W        W41024  11.735   0.454  15.909  0.2620 -0.3139 -0.1909
24764W        W41025  15.473  16.349   0.914 -0.4959  0.3798  0.3181
24765W        W41026   4.172  11.150   2.297 -0.2048 -0.3289  0.1588
24766W        W41027  17.844  12.232  12.060 -0.1431 -0.4879 -0.0205
24767W        W41028   8.958   6.259  13.961  0.0303  0.0001 -0.2720
24768W        W41029   3.849   1.929   0.621  0.0502  0.1916 -0.0423
24769W        W41030  18.199   2.143  14.483 -0.2920  0.4425 -0.2829
24770W        W41031   5.627   3.240   1.434  0.2245 -0.4714  0.0620
24771W        W41032   3.974  17.347  15.125 -0.1039  0.1548 -0.0348
24772W        W41033  10.531   3.972   0.873  0.1102  0.4191  0.0757
24773W        W41034   5.650  17.470   5.331  0.1965 -0.0992  0.4519
24774W        W41035  13.622   1.391  14.207 -0.0024  0.1792 -0.1755
24775W        W41036  17.987  12.193  15.205  0.0113  0.2177  0.2309
24776W        W41037   3.346   4.042   6.232  0.1064  0.0161 -0.0981
24777W        W41038   4.438   2.796  10.839  0.0921 -0.2883 -0.1207
24778W        W41039  17.966   0.842  10.445 -0.1174 -0.0694 -0.1658
24779W        W41040   1.968  12.605   3.216 -0.1083 -0.2690 -0.1722
24780W        W41041  13.921  10.396  14.156 -0.1037  0.0513  0.1108
24781W        W41042   4.610   4.751   2.598 -0.2117  0.3211 -0.3156
24782W        W41043  15.120   4.699  11.847  0.1304  0.1075 -0.2353
24783W        W41044  15.664   7.858   2.439 -0.0095  0.0885 -0.0262
24784W        W41045   1.206   8.068  14.989  0.0636 -0.1132  0.1541
24785W        W41046  14.522  11.452   3.700  0.0621 -0.4052  0.1105
24786W        W41047  13.300  14.331   1.888  0.0199 -0.1892  0.0030
24787W        W41048   8.448  18.165  15.872  0.1705  0.0744 -0.0534
24788W        W41049   1.862   4.927   2.526  0.1032 -0.0034 -0.1415
24789W        W41050   6.549  14.013   2.648 -0.4834 -0.2276 -0.2044
24790W        W41051  11.293  12.753   1.951 -0.2423  0.4909  0.2835
24791W        W41052  13.916   4.653  13.157 -0.2226 -0.0843 -0.0485
24792W        W41053   2.750  11.401  15.641 -0.1531  0.2292 -0.1207
24793W        W41054  13.872  16.841  10.657  0.2432  0.0265  0.1352
24794W        W41055   2.848  17.110  12.038 -0.2929 -0.0249  0.1323
24795W        W41056   3.831   3.644   5.929  0.2237  0.4101 -0.1699
24796W        W41057   8.002  13.511   3.816  0.2497  0.1075  0.0740
24797W        W41058  17.932   8.905  16.120 -0.2132  0.0200  0.1582
24798W        W41059  18.259  12.600  15.306  0.0847 -0.0344 -0.1242
24799W        W41060   2.752   0.066  14.186  0.1170 -0.0647 -0.3374
24800W        W41061   1.548   3.408  14.353 -0.0812 -0.0270 -0.0858
24801W        W41062   5.902  17.896  14.394  0.2066  0.1204 -0.2069
24802W        W41063  17.842   7.315   3.733  0.0385 -0.2690  0.2861
24803W        W41064  12.712  11.106  13.126  0.0582  0.2035 -0.1098
24804W        W41065   1.721   6.831   4.878  0.1603 -0.1664  0.0351
24805W        W41066  10.617   2.444  15.335 -0.1095  0.0543  0.0298
24806W        W41067   7.711   4.394   5.721 -0.0375  0.1528 -0.0311
24807W        W41068   5.252  15.843  13.581  0.0343  0.1464  0.3608
24808W        W41069   5.849  17.987  13.878  0.0735  0.2123  0.1952
24809W        W41070  17.984   5.243  15.848 -0.0316  0.1650  0.2143
24810W        W41071  17.792  12.996  12.707 -0.1123  0.0485 -0.0689
24811W        W41072  11.475   0.477  14.464 -0.2246  0.1313  0.0780
24812W        W41073  10.357  10.804   4.481 -0.1476  0.1286  0.2421
24813W        W41074  16.858   9.029   2.265  0.3490 -0.3060 -0.0585
24814W        W41075   2.532  16.565   3.554 -0.0755  0.0300 -0.3331
24815W        W41076  13.009  11.336  12.582  0.2815 -0.0425 -0.1781
24816W        W41077   8.667  18.340  15.302 -0.5939  0.2039 -0.0267
24817W        W41078  10.480  18.112   2.313 -0.1226  0.0686  0.0209
24818W        W41079  12.576   8.729   4.100 -0.1217  0.0813  0.1676
24819W        W41080  12.252   4.663   1.627 -0.0690  0.1043  0.1103
24820W        W41081  14.561  16.497   2.706 -0.2136 -0.4318 -0.1273
24821W        W41082   0.383   2.472   2.957  0.0395 -0.1942 -0.4328
24822W        W41083   5.162  14.832   1.718 -0.1310  0.2141  0.0734
24823W        W41084  18.094  11.386  12.453 -0.2522  0.0288  0.0283
24824W        W41085  12.376  15.650   0.191 -0.0207 -0.2668  0.2389
24825W        W41086  16.762   8.564  13.507  0.3837  0.0906  0.1218
24826W        W41087  16.696   9.699  14.696  0.0465  0.2037  0.4777
24827W        W41088  15.651  12.058  12.869  0.2818  0.1208 -0.1655
24828W        W41089  11.081   6.226   3.729  0.1547 -0.1178 -0.4026
24829W        W41090   4.440  16.190  16.079  0.0592 -0.0185  0.2448
24830W        W41091  12.673   2.933  14.176  0.0960  0.2442 -0.2732
24831W        W41092  16.388   8.030  14.480  0.0922  0.0723 -0.2065
24832W        W41093   8.156  18.198  15.285  0.0132  0.1085 -0.0227
24833W        W41094  12.864  14.071  11.391 -0.1526  0.0119  0.0627
24834W        W41095   8.379  15.948  12.044  0.0839  0.1105 -0.2433
24835W        W41096   0.793  18.334   0.080 -0.2442 -0.1897  0.2581
24836W        W41097   6.358   7.866  14.731 -0.1502 -0.1696 -0.2159
24837W        W41098   1.024  13.694   0.366 -0.0995  0.3168 -0.3409
24838W        W41099   3.821   1.457   1.281  0.1047  0.2416  0.4948
24839W        W41100  13.974  16.600   3.586  0.2695 -0.1842 -0.0063
24840W        W41101   2.894   4.669  14.468  0.0766 -0.1529  0.1657
24841W        W41102  10.518   3.523   5.002 -0.1225 -0.4547 -0.0929
24842W        W41103   8.364  13.015  14.284  0.0676 -0.0115  0.2957
24843W        W41104   6.976   7.972   5.876 -0.1633 -0.2926 -0.0356
24844W        W41105  16.612   4.198   0.446 -0.1930  0.2003 -0.1734
24845W        W41106   7.434  11.733   5.220 -0.1354  0.0084 -0.0524
24846W        W41107   6.453   8.140  13.334  0.2116  0.0201 -0.1047
24847W        W41108  17.116  12.531   0.525  0.2077 -0.3405 -0.1353
24848W        W41109   5.594  12.099  15.975 -0.0305  0.3105 -0.1853
24849W        W41110   7.819  10.967  11.832 -0.2302 -0.2339  0.2088
24850W        W41111  18.253  15.456  15.903  0.0974 -0.0773  0.0539
24851W        W41112   0.702  14.646   3.382 -0.1544  0.3193  0.2745
24852W        W41113   9.375  17.203   1.294 -0.2049 -0.1615 -0.0056
24853W        W41114   0.309   0.874   4.544 -0.1035  0.0489 -0.0054
24854W        W41115  11.847   1.272   2.807 -0.0498 -0.0124 -0.4820
24855W        W41116   8.509  13.552   4.154  0.0361 -0.1680 -0.1143
24856W        W41117  12.628   2.755   0.398 -0.3135 -0.0910 -0.0592
24857W        W41118  14.253   0.482  12.425  0.0024  0.2505 -0.3629
24858W        W41119   4.227  13.380   1.305 -0.1129  0.0058  0.1605
24859W        W41120  10.161  14.750  12.176 -0.0929 -0.3993 -0.1587
24860W        W41121   7.200  10.988   0.437  0.1753 -0.0556 -0.1797
24861W        W41122   7.474   3.180   5.254 -0.2073  0.2180  0.2780
24862W        W41123   3.658  10.522   2.264 -0.1933 -0.0387 -0.2304
24863W        W41124   6.960   9.158  12.296  0.1771 -0.2582 -0.3321
24864W        W41125   9.464  12.712  11.914  0.1384  0.3667 -0.2627
24865W        W41126  10.942  16.808  10.970  0.1561 -0.0106  0.1406
24866W        W41127   3.630   6.633  13.285 -0.0525 -0.0654 -0.2537
24867W        W41128   0.172  12.350   3.941  0.0498 -0.2892 -0.0592
24868W        W41129  17.964   8.857   5.324 -0.1455  0.2473  0.0898
24869W        W41130   4.544  10.473  12.398  0.2524 -0.0223  0.0585
24870W        W41131   1.030  10.004  12.206 -0.0885 -0.1688 -0.3861
24871W        W41132   2.990   7.922   3.267 -0.0312  0.3391 -0.0764
24872W        W41133   2.880   2.936   0.829  0.2294 -0.2705  0.3022
24873W        W41134   4.483   1.722   5.537 -0.3851 -0.2130  0.1599
24874W        W41135  15.592  12.875  10.617 -0.1013 -0.3856  0.2991
24875W        W41136   3.422   5.470  11.362  0.2577  0.1655  0.3023
24876W        W41137   2.106   0.253   6.023 -0.1801 -0.0688 -0.1784
24877W        W41138   9.369   9.450  11.141  0.2930  0.1434 -0.2584
24878W        W41139   3.852  14.068   2.708  0.2017 -0.0474  0.1192
24879W        W41140  10.987   1.490  15.460 -0.0802  0.0652 -0.0154
24880W        W41141  13.921  13.740   0.342 -0.1098 -0.0328  0.0297
24881W        W41142   4.234  10.465  11.873 -0.1154 -0.2750  0.0889
24882W        W41143   6.075  13.597   6.251  0.0335 -0.0305  0.0767
24883W        W41144  18.085   3.209  12.562 -0.0536 -0.4287 -0.2017
24884W        W41145   4.541  17.796  15.409  0.3034  0.0819 -0.0614
24885W        W41146   0.432  15.946   3.235 -0.3275  0.3382  0.2870
24886W        W41147   7.853  17.032  15.114 -0.1648 -0.2803 -0.0126
24887W        W41148   7.602  12.388  12.245 -0.1228  0.1406  0.3145
24888W        W41149   4.462  16.825  15.441 -0.1036  0.1750 -0.1980
24889W        W41150  12.625  18.463  16.104  0.2605  0.3306 -0.1882
24890W        W41151   2.896   4.592   2.534  0.0459  0.1177  0.4137
24891W        W41152  12.622  15.542  11.001 -0.1904 -0.0023  0.0954
24892W        W41153  16.762   7.013   4.814 -0.1555  0.2171  0.0114
24893W        W41154   8.969   8.832   4.065  0.0045 -0.1664 -0.0720
24894W        W41155  14.365   0.436  15.547  0.1273 -0.0143 -0.0363
24895W        W41156  17.780  14.974   5.445 -0.1560 -0.2192  0.1292
24896W        W41157  14.301   4.441   4.144 -0.0577  0.0838  0.0254
24897W        W41158  16.801  10.558  14.929 -0.1557 -0.0656  0.0401
24898W        W41159  16.944   9.167   0.199  0.0006  0.2348 -0.2178
24899W        W41160  12.563   1.180  14.621  0.1458 -0.1218 -0.2681
24900W        W41161  15.156   7.440  14.314 -0.3646  0.1833  0.0064
24901W        W41162   2.042  12.908  10.923  0.1065 -0.1946  0.1746
24902W        W41163   0.925   6.891   2.023 -0.1064 -0.2419 -0.0371
24903W        W41164   7.399  12.060   1.312  0.2673 -0.3993  0.0313
24904W        W41165   8.204   1.860  12.016  0.0762  0.2350  0.0811
24905W        W41166   7.671   2.927   0.980  0.1526  0.0466  0.0017
24906W        W41167  11.056   2.928   5.357 -0.0246 -0.0252  0.3171
24907W        W41168   3.862   9.782  15.086 -0.0231  0.1428 -0.2005
24908W        W41169   3.722  14.014   1.384  0.1562  0.0644  0.1443
24909W        W41170  16.464  13.144  11.128 -0.0341 -0.2072  0.3322
24910W        W41171   2.331   1.604   6.282  0.0775 -0.1102 -0.3030
24911W        W41172  13.376   5.552  11.735 -0.2434  0.3253 -0.0591
24912W        W41173   4.984  14.507   0.274 -0.4154  0.0560 -0.0264
24913W        W41174   2.837   8.011   3.725  0.3171  0.0710 -0.0177
24914W        W41175  17.135   6.579  11.451  0.2995  0.0742  0.1356
24915W        W41176   7.747  13.991  12.837 -0.2086  0.1295  0.1085
24916W        W41177   3.000   0.745   3.305 -0.1831  0.1769 -0.1551
24917W        W41178  15.146  10.057   0.978  0.1366 -0.0560  0.1096
24918W        W41179  18.484  16.442  10.544  0.2372  0.2954 -0.0940
24919W        W41180  12.095  11.688   3.454  0.0984  0.2038  0.1192
24920W        W41181   9.586  10.462   4.170 -0.4359  0.0912 -0.1292
24921W        W41182   4.103   4.937   4.541  0.0194 -0.2987  0.0770
24922W        W41183  14.176   9.711   5.316  0.0787 -0.0395 -0.1608
24923W        W41184   2.583  11.233   4.438  0.0773 -0.4380 -0.0679
24924W        W41185  11.913  12.853  12.350  0.0626 -0.0523 -0.2381
24925W        W41186  18.259   1.597   1.152  0.1709  0.0447 -0.0959
24926W        W41187  17.875  16.767   1.822  0.3100  0.1816 -0.1551
24927W        W41188  16.431  15.855   3.974  0.1929  0.0377 -0.1867
24928W        W41189  18.083  10.673   4.657  0.0010 -0.1865  0.0671
24929W        W41190   5.164  17.933  11.709  0.1003 -0.0632  0.0139
24930W        W41191  16.230   2.643   3.401  0.0142  0.0030 -0.2152
24931W        W41192   3.399  11.310   1.843 -0.2499 -0.0746  0.0747
24932W        W41193   7.045   2.725   0.405 -0.3838  0.0044 -0.1035
24933W        W41194  15.979  17.091  14.191  0.2156  0.1594 -0.1403
24934W        W41195  14.605  12.420   0.672  0.0010  0.0413 -0.0240
24935W        W41196  10.540  10.600   5.408 -0.1819 -0.1866  0.2718
24936W        W41197   6.905  11.116   5.811  0.0007  0.0213  0.0396
24937W        W41198  11.595  17.868  12.609 -0.0587 -0.1344 -0.0285
24938W        W41199  17.714  11.837   5.249 -0.0529 -0.0858 -0.2405
24939W        W41200   8.000  13.953  12.311  0.0743  0.0391  0.0029
24940W        W41201   8.949   1.892   4.340  0.0499  0.0042 -0.2784
24941W        W41202  14.905   7.801   3.095 -0.0420  0.0522  0.2682
24942W        W41203  13.419  17.509  16.072 -0.0957 -0.2143 -0.0671
24943W        W41204   5.751  12.138  13.980  0.1421 -0.2354 -0.2539
24944W        W41205   3.158  13.886   2.766 -0.1854  0.0205  0.0990
24945W        W41206   6.646   7.704  12.770 -0.0606  0.2627  0.0189
24946W        W41207   6.567  13.976  12.706 -0.1233  0.0765  0.0032
24947W        W41208  14.849  13.428  15.089 -0.0670  0.0387 -0.3085
24948W        W41209   6.899  13.821   2.946 -0.0952 -0.3196  0.2973
24949W        W41210   3.029  13.477   4.001 -0.1724 -0.1656 -0.0838
24950W        W41211  17.464   5.271   0.838 -0.2067 -0.0474 -0.2821
24951W        W41212  14.445   0.158  15.154  0.1452 -0.1088 -0.4430
24952W        W41213  17.216  10.842  10.891 -0.0924 -0.2049 -0.5634
24953W        W41214  15.916   9.333   5.616 -0.2437 -0.1345  0.2293
24954W        W41215  11.296  11.719   5.158  0.2609 -0.0649 -0.0126
24955W        W41216   1.762  10.856  14.096  0.2526 -0.0994  0.0353
24956W        W41217  18.399  15.950  15.882 -0.0917 -0.1748 -0.3242
24957W        W41218   5.142   9.952  14.862 -0.1095  0.0147 -0.2923
24958W        W41219   7.757   0.252   6.514  0.3163 -0.1044 -0.2022
24959W        W41220  12.694  11.546  15.995  0.0135 -0.1733 -0.2975
24960W        W41221   1.995   6.102   1.799  0.0364  0.2684  0.2372
24961W        W41222   1.834  13.162   3.232 -0.0630  0.0983 -0.0758
24962W        W41223   7.346   2.122  15.188  0.1814  0.1925 -0.1162
24963W        W41224  15.583   5.274  14.121 -0.1798 -0.0593  0.2063
24964W        W41225  16.960   9.699  12.225 -0.0180 -0.0561  0.0372
24965W        W41226  14.916  10.967   2.005 -0.4712 -0.2744  0.3694
24966W        W41227  11.180   1.105  15.731  0.1266  0.1761 -0.2384
24967W        W41228  12.875   1.057   3.771  0.2086 -0.1153  0.0046
24968W        W41229   4.904   0.683   4.755 -0.0754 -0.1382 -0.0437
24969W        W41230  14.278   9.620   4.396  0.0890  0.2068 -0.3272
24970W        W41231   6.373   2.215  14.231  0.0021 -0.1469 -0.1002
24971W        W41232  10.029  17.757  11.041  0.0105  0.1219 -0.1399
24972W        W41233  13.843  10.597  13.668  0.2221  0.2248 -0.1766
24973W        W41234   3.154  17.185  15.904 -0.1231  0.1209 -0.0455
24974W        W41235   1.462  15.520  14.268  0.3520  0.1621  0.3686
24975W        W41236   9.905   6.358   2.285 -0.1136 -0.4962  0.0991
24976W        W41237   1.630   8.877   3.095 -0.0704 -0.1390 -0.0987
24977W        W41238   3.532  14.050   1.907  0.0348  0.0810  0.1844
24978W        W41239  15.475  11.088   2.289 -0.0311 -0.3908 -0.1080
24979W        W41240  15.245   2.901  12.131 -0.0675  0.3183  0.1541
24980W        W41241   0.890   6.988  15.921 -0.1457 -0.2038 -0.1193
24981W        W41242   9.382   2.569  13.257  0.1297 -0.0708  0.0145
24982W        W41243  13.931   8.420   1.530  0.2422 -0.1395  0.1487
24983W        W41244  17.351  15.126  14.544 -0.0579 -0.2317 -0.1327
24984W        W41245  11.973   0.471   3.176 -0.4671  0.0443  0.0247
24985W        W41246   3.194   2.393  14.936 -0.1453 -0.4958 -0.0424
24986W        W41247  12.085   3.164   3.681 -0.1749  0.0465 -0.0410
24987W        W41248   0.837   0.774  13.447  0.1190  0.2062  0.0928
24988W        W41249   7.558   5.447  16.142 -0.0845  0.0538  0.1409
24989W        W41250  14.077   1.763  12.136 -0.1383 -0.1329  0.1264
24990W        W41251  11.412  17.029   0.121 -0.0461 -0.0153  0.0621
24991W        W41252  13.370  16.173   2.237 -0.2088  0.4882 -0.0980
24992W        W41253  17.815  10.638   5.428  0.1166  0.0396 -0.1152
24993W        W41254   9.787  15.582   2.416 -0.2057  0.0742  0.1789
24994W        W41255   2.994   5.212   5.498 -0.0752  0.2600 -0.2525
24995W        W41256  14.715  11.905  12.417  0.2405 -0.0347 -0.1314
24996W        W41257  14.594  12.071   1.800  0.3364 -0.1138  0.1557
24997W        W41258   5.670   7.314   3.659 -0.0306  0.1804  0.0539
24998W        W41259  11.025   4.006   0.592 -0.1680  0.1067  0.0566
24999W        W41260  12.394   1.076  16.021  0.2517 -0.0562  0.1368
25000W        W41261  15.246  18.246  16.123  0.0405 -0.0099  0.1678
25001W        W41262   2.514   6.299  12.923  0.0307  0.0569 -0.1287
25002W        W41263  12.516   3.007  12.315  0.2590  0.2589  0.0831
25003W        W41264   9.416   9.560   2.181  0.1852 -0.1179  0.0298
25004W        W41265  16.934  15.932   1.843 -0.2214 -0.1077 -0.0072
25005W        W41266  15.549  15.574   3.123 -0.0874 -0.3161 -0.0980
25006W        W41267  10.090  14.712   3.438  0.4583 -0.3084  0.1257
25007W        W41268   9.100  13.884   5.855 -0.2092 -0.1298  0.0806
25008W        W41269   6.316  11.775   5.135 -0.2662 -0.0186 -0.0575
25009W        W41270   0.202  13.948   2.631 -0.0301 -0.1742 -0.0012
25010W        W41271  15.172  10.568   0.794  0.2352  0.0678  0.0421
25011W        W41272  18.153   7.254  15.743  0.0585 -0.1286 -0.2386
25012W        W41273   1.043  11.654   0.584 -0.2404  0.3079  0.0846
25013W        W41274   2.495   8.219   1.396 -0.0226  0.1316  0.2629
25014W        W41275   2.926   5.235   3.228 -0.0502  0.1404 -0.0084
25015W        W41276   6.612   1.849   1.594 -0.2265 -0.3356 -0.1004
25016W        W41277  17.817   9.809   1.521  0.2705 -0.0261  0.2468
25017W        W41278   4.911   6.635  15.387  0.3069  0.2761 -0.2557
25018W        W41279   8.847   4.397   2.048  0.0117 -0.2031  0.0120
25019W        W41280   3.309   2.823   1.010 -0.0088 -0.2943  0.3459
25020W        W41281   6.711  16.206   0.637  0.2885  0.1839  0.0411
25021W        W41282  10.706   9.725   5.757  0.1667 -0.3420 -0.1511
25022W        W41283   8.850   6.914   6.457 -0.1173  0.2015 -0.0572
25023W        W41284   2.079   3.841   4.530  0.0790  0.1960  0.0471
25024W        W41285  11.612   2.307  12.993 -0.0690  0.1654 -0.1005
25025W        W41286  11.927   7.097   3.161 -0.0640  0.0723 -0.0014
25026W        W41287  11.625   4.618   3.027 -0.2541 -0.1367 -0.1593
25027W        W41288   4.048  10.416   4.756  0.2928 -0.5866 -0.0691
25028W        W41289  16.618   1.477   3.623  0.1450  0.1413 -0.0558
25029W        W41290  13.711  13.538   1.287 -0.0807 -0.0610 -0.1992
25030W        W41291   0.141   2.556  14.494  0.1665 -0.0830  0.0198
25031W        W41292   9.541   0.006  14.264  0.0227  0.0324 -0.1037
25032W        W41293   7.192  15.062   4.095 -0.2037 -0.0383 -0.2731
25033W        W41294   7.064   9.263  11.510 -0.0669  0.3347  0.3227
25034W        W41295  17.353  14.889  13.315  0.1037 -0.2238 -0.2370
25035W        W41296   9.176   5.327   3.088 -0.1266 -0.3512  0.1996
25036W        W41297  18.014  15.993   1.784  0.2619  0.0264  0.1471
25037W        W41298   5.773   5.515   2.677  0.1635  0.0493 -0.3312
25038W        W41299  14.367  16.270  11.112  0.5014 -0.0401  0.1433
25039W        W41300   3.495  13.581   1.564  0.1060 -0.0899 -0.3487
25040W        W41301  17.280  11.439  12.168  0.0180 -0.2272  0.2634
25041W        W41302  12.494   8.730   0.923 -0.1026  0.0124 -0.1178
25042W        W41303   6.049  13.912  11.394  0.4269  0.3844 -0.1882
25043W        W41304  11.121   1.512  14.428  0.1901  0.0870  0.1847
25044W        W41305   8.605  12.006   4.683  0.1796  0.0203 -0.0772
25045W        W41306   4.950  16.221  15.845  0.3837 -0.0352 -0.0471
25046W        W41307  11.614  17.560   1.068 -0.1443  0.0886  0.0672
25047W        W41308  17.173  16.637   3.082 -0.0643 -0.0217 -0.1361
25048W        W41309   7.506  13.128  11.345  0.0948  0.1259 -0.0022
25049W        W41310   7.343  10.918   5.503  0.1334  0.0984 -0.0188
25050W        W41311  10.719   8.231  12.995 -0.1956 -0.1420  0.1138
25051W        W41312  14.256   8.439  12.681 -0.0235  0.0216 -0.2840
25052W        W41313   2.247  10.856  14.259 -0.2149  0.0823 -0.2393
25053W        W41314  12.118  10.940  11.057 -0.3611 -0.3527 -0.1060
25054W        W41315  16.334  12.532   1.715 -0.2604 -0.0113 -0.1231
25055W        W41316  17.098   0.664   3.501  0.2415 -0.1635 -0.3533
25056W        W41317   0.337  16.437  12.331  0.2848  0.1630 -0.0133
25057W        W41318   6.134   3.994   5.467  0.1311  0.0456  0.1220
25058W        W41319  14.397   3.949  14.586 -0.1319 -0.2034  0.1587
25059W        W41320   0.196   0.202  15.710  0.1228  0.0796  0.2770
25060W        W41321  10.830  14.603   4.804  0.2930  0.1391 -0.0027
25061W        W41322   4.833   7.360   3.454 -0.2265  0.1658 -0.1451
25062W        W41323  18.006   7.233   4.173 -0.2718  0.0944  0.1250
25063W        W41324   1.364   8.213   0.359 -0.0632 -0.1619  0.1184
25064W        W41325   4.691   5.350   1.158  0.1267  0.0430  0.2008
25065W        W41326  12.102  11.328   2.428 -0.0346  0.0349  0.1129
25066W        W41327  15.391   7.867  14.252 -0.2027 -0.2885  0.2311
25067W        W41328  14.368   1.756  12.490  0.2854  0.1629 -0.2865
25068W        W41329  11.255  15.601  15.624  0.1120 -0.1733 -0.1074
25069W        W41330   3.584  15.962  13.800 -0.0167  0.1216 -0.2489
25070W        W41331   3.241   8.600  12.441  0.0102  0.0350  0.0288
25071W        W41332   7.525   1.053   0.392 -0.0890  0.3072  0.1716
25072W        W41333   8.405   4.557   2.257  0.1220 -0.3122 -0.1818
25073W        W41334  10.115  10.761   0.904  0.0005  0.1073  0.1184
25074W        W41335   6.323   0.508   5.722  0.1943  0.0372 -0.1759
25075W        W41336   4.815  16.474  14.584  0.0876  0.0306  0.1746
25076W        W41337   6.458   0.349  15.693 -0.0100  0.1119  0.2756
25077W        W41338   1.671  15.355  13.125 -0.0874 -0.0182  0.1967
25078W        W41339   6.147   7.770  15.343 -0.0920  0.2313 -0.1498
25079W        W41340  14.520  10.449  13.238 -0.0967 -0.2552  0.0587
25080W        W41341   3.986   7.167   2.679 -0.1005  0.0911 -0.0131
25081W        W41342  14.235   1.469   3.186  0.0208  0.1757  0.0747
25082W        W41343  11.818   3.060  15.389  0.3888 -0.2264  0.0581
25083W        W41344   7.280   7.637  12.180 -0.2718 -0.1058  0.2568
25084W        W41345  10.819   8.986   3.693 -0.1176  0.2124 -0.4019
25085W        W41346   0.750  11.650  14.037  0.2069  0.1515 -0.0802
25086W        W41347  10.938   4.324  14.431 -0.0568  0.2404  0.3591
25087W        W41348   3.756   1.528  12.792  0.0532 -0.0266 -0.2615
25088W        W41349  13.204  11.160   4.750 -0.3160  0.0742 -0.0251
25089W        W41350  17.607   9.091  12.385 -0.0380 -0.0935 -0.4050
25090W        W41351   1.935  17.113  12.433  0.3944  0.5826  0.2532
25091W        W41352  16.763  14.523   3.966 -0.1393 -0.0930  0.1311
25092W        W41353  12.105  12.500  13.999 -0.0274  0.0805  0.0560
25093W        W41354  15.693   2.960   2.023  0.0971  0.1430  0.1222
25094W        W41355  17.466   8.701  13.630  0.0461 -0.1478 -0.2908
25095W        W41356  16.494   4.104   5.958 -0.0763 -0.3763  0.1430
25096W        W41357  11.144  10.816   4.627  0.2203  0.2246  0.0923
25097W        W41358  14.896  17.507   2.689  0.0195 -0.0584  0.0136
25098W        W41359   9.051   5.349  14.749 -0.1369 -0.2138  0.0447
25099W        W41360   1.815  13.628  12.682  0.0721 -0.0377 -0.0369
25100W        W41361   5.192   2.448   4.976 -0.2004  0.0736 -0.0936
25101W        W41362   2.962   1.978  13.269 -0.0205 -0.3076  0.2357
25102W        W41363  17.166  14.075   1.114  0.1047  0.0480  0.1363
25103W        W41364   8.303  13.948   3.043  0.0132 -0.1815  0.0238
25104W        W41365   1.728   4.286   2.035 -0.1018  0.1253  0.0607
25105W        W41366  15.633  16.789   2.956  0.4129 -0.4621 -0.0487
25106W        W41367   0.957  14.348  14.441 -0.0109 -0.1450 -0.1671
25107W        W41368   9.977  10.449  15.921  0.0626 -0.2563 -0.0613
25108W        W41369  10.720   9.923   0.773 -0.0395 -0.1903 -0.5221
25109W        W41370  11.525   5.668  13.099  0.0564  0.1322 -0.1323
25110W        W41371   1.275  18.230   4.935  0.1736  0.1706 -0.1548
25111W        W41372   6.380  17.817   4.126  0.2596  0.0108 -0.0908
25112W        W41373  14.656   2.414   0.733 -0.0400 -0.0935 -0.0208
25113W        W41374   6.846  12.192   4.501 -0.0307 -0.1551 -0.2658
25114W        W41375   8.607  11.604  13.915 -0.2415  0.0301  0.1829
25115W        W41376   8.287   6.273  12.287  0.1582  0.0467  0.1655
25116W        W41377  14.842   8.847   0.690  0.1883 -0.0833  0.0294
25117W        W41378   1.292  12.946   3.925  0.1011  0.1134  0.2638
25118W        W41379  16.796  17.791   3.451 -0.0701 -0.2218 -0.0158
25119W        W41380  10.007   0.062  12.969  0.2218  0.0523 -0.0593
25120W        W41381  16.458  18.195  13.120  0.1727 -0.2649 -0.0716
25121W        W41382   5.922  15.870  15.247 -0.2012  0.0396  0.0977
25122W        W41383   0.664  15.360   4.983 -0.0560 -0.0237 -0.0949
25123W        W41384  14.996  15.508   5.216 -0.0152  0.1191 -0.1073
25124W        W41385   2.930   8.444   5.113  0.2050 -0.0473  0.1333
25125W        W41386   2.841  15.333  10.241 -0.1419  0.0233  0.2666
25126W        W41387  12.765  12.012  12.710  0.1988 -0.2711 -0.2020
25127W        W41388   3.115   0.010  15.956  0.0943 -0.0153 -0.0097
25128W        W41389   1.788   2.454  15.025  0.0809  0.0948 -0.0927
25129W        W41390   0.447   2.224  12.229 -0.1118  0.1425  0.0207
25130W        W41391   3.327  13.284   4.382  0.2573 -0.0194 -0.2772
25131W        W41392  10.248  16.264  14.554 -0.0034  0.2789 -0.1023
25132W        W41393   7.537  15.709   0.486  0.1934  0.1272  0.3235
25133W        W41394   9.369   8.446   4.563 -0.0471 -0.0236  0.1089
25134W        W41395   8.339  12.083  11.557 -0.0139 -0.1398  0.0132
25135W        W41396   1.911   3.711   4.093 -0.1778 -0.0697  0.1626
25136W        W41397  13.525  18.016   2.895  0.0524 -0.0423  0.0906
25137W        W41398   7.890  14.965   1.225 -0.0918 -0.0177  0.0376
25138W        W41399  15.269  11.181  15.760  0.2634  0.1841 -0.1650
25139W        W41400  14.851  14.461  13.375  0.1039 -0.1356 -0.4450
25140W        W41401  14.595   1.259  16.003 -0.0094  0.2182 -0.4127
25141W        W41402   5.649  17.235  13.846 -0.3240 -0.2394 -0.1834
25142W        W41403  12.778  15.617   3.484  0.2724  0.0829 -0.2683
25143W        W41404   6.802   2.773  15.248 -0.0081 -0.0016 -0.1293
25144W        W41405  15.653  13.458  13.436  0.0168 -0.3872  0.1907
25145W        W41406   5.285   4.132  15.291  0.1216 -0.1331 -0.0573
25146W        W41407   3.593   5.623  12.187 -0.0462  0.0365  0.1803
25147W        W41408  18.456   9.885   5.696  0.2600 -0.0462  0.0227
25148W        W41409   8.757  17.877  12.674  0.2316  0.0588  0.3319
25149W        W41410  11.289  10.016  10.366  0.0351  0.3127 -0.1180
25150W        W41411  15.967   1.537  10.447  0.0879  0.0127 -0.0628
25151W        W41412   7.749   5.832  12.246  0.1628 -0.1107 -0.0371
25152W        W41413  16.330   8.773  15.718 -0.3476  0.0620  0.2574
25153W        W41414   5.090   0.448   0.501  0.2717 -0.1255  0.2318
25154W        W41415  11.419  17.750   3.094  0.3519  0.0080 -0.2670
25155W        W41416   6.174  15.851  11.133 -0.2490 -0.3475 -0.0274
25156W        W41417   2.179   5.980   2.974 -0.1101 -0.3009  0.1978
25157W        W41418   7.135  12.380   4.004  0.1498  0.0512  0.1748
25158W        W41419  12.562  11.437   2.576  0.1680 -0.1117 -0.2570
25159W        W41420  17.201   2.677  11.025 -0.3484  0.0269  0.3570
25160W        W41421  17.697   0.974   2.682 -0.0054  0.1218  0.3207
25161W        W41422   5.573  12.733   0.921 -0.0497  0.0932 -0.1678
25162W        W41423   2.508  10.038   1.158  0.1453  0.1493  0.0690
25163W        W41424  13.155  14.155  11.795  0.0409 -0.1040  0.0946
25164W        W41425  17.457  10.402  15.745  0.0506 -0.0085  0.0214
25165W        W41426   3.720   9.490  12.891 -0.3336 -0.3381 -0.0647
25166W        W41427  12.166  17.541   2.642 -0.2381  0.0845 -0.0868
25167W        W41428   2.344   3.345  13.087 -0.0807  0.0547 -0.0099
25168W        W41429   6.304  12.432   1.867 -0.0826  0.2673  0.2444
25169W        W41430  10.445  14.663  11.139 -0.2011 -0.2023  0.2990
25170W        W41431   9.891  16.059   2.207  0.3773 -0.1587  0.0115
25171W        W41432  13.445   8.326  13.435  0.1974  0.0798 -0.1358
25172W        W41433  13.960   6.061   1.221 -0.0107  0.0796 -0.2324
25173W        W41434   0.279   0.039  13.067  0.1982 -0.0998 -0.2948
25174W        W41435   5.205  13.244  11.387  0.2634  0.3843 -0.0686
25175W        W41436  17.592   6.186  13.052  0.1488  0.1306  0.0079
25176W        W41437  11.282   3.994   4.891 -0.0030  0.2245  0.1614
25177W        W41438  15.211  16.548   2.233  0.1170  0.1159  0.0923
25178W        W41439  11.005   8.203   0.097 -0.2422 -0.1490 -0.0139
25179W        W41440  18.129  12.160  13.168  0.0437 -0.3134 -0.2843
25180W        W41441  14.834  15.546  10.617  0.6179 -0.4019  0.1252
25181W        W41442   8.603   5.639   0.051  0.0246 -0.1204  0.0626
25182W        W41443   0.291   3.334   1.397  0.0135  0.0838 -0.0834
25183W        W41444  15.151  17.061   2.037  0.1950  0.1694  0.0714
25184W        W41445  11.893   9.948   3.812  0.0371  0.0277 -0.1859
25185W        W41446   1.313  13.891  14.342 -0.0956 -0.1388 -0.0648
25186W        W41447   2.189   9.209   3.781  0.1018 -0.0009 -0.1743
25187W        W41448   2.660  18.302  13.228 -0.3292 -0.2175 -0.1734
25188W        W41449   9.427   3.238  15.239  0.1310  0.1547  0.1131
25189W        W41450  18.214  17.762   1.380 -0.1144 -0.0886 -0.0009
25190W        W41451   1.569   4.149  12.623 -0.1160 -0.0474  0.0171
25191W        W41452  13.650   0.866  15.934 -0.0681 -0.0144  0.0931
25192W        W41453   4.925   2.418   1.075 -0.4625 -0.1650 -0.1223
25193W        W41454   7.089  11.223   1.147  0.1363  0.0042  0.3363
25194W        W41455  18.466  13.336  12.269  0.2565  0.2644 -0.2375
25195W        W41456   3.902  16.767   0.397 -0.2952 -0.0317  0.0027
25196W        W41457   4.897  16.460   3.806  0.2040  0.0578 -0.0770
25197W        W41458  17.264  15.061  11.709 -0.0111 -0.2097 -0.1622
25198W        W41459   2.706   1.521   1.160  0.1534  0.0187 -0.2371
25199W        W41460   7.366   1.858   3.102 -0.0559  0.1654 -0.2317
25200W        W41461   8.901  15.843   2.040  0.0298 -0.1899  0.1017
25201W        W41462  16.241  11.266  11.183 -0.2341  0.1822 -0.0543
25202W        W41463  13.027  14.430  14.587 -0.0506 -0.1242  0.0643
25203W        W41464   9.080  10.609   2.981 -0.0996 -0.0782 -0.0875
25204W        W41465   5.043   1.048   0.603  0.4458  0.0741  0.0894
25205W        W41466   2.683  16.676  11.025  0.4357 -0.0450  0.1316
25206W        W41467   2.434   0.024   4.169  0.0887  0.0509 -0.6449
25207W        W41468   6.536   7.388  14.705  0.1576  0.0427 -0.0862
25208W        W41469  12.991  18.206  12.626 -0.0079 -0.4105 -0.3403
25209W        W41470   0.892   5.820  11.391 -0.1548  0.1043  0.0147
25210W        W41471   1.318  14.224   3.998 -0.1845 -0.0242  0.0164
25211W        W41472   5.689  16.126   4.125 -0.1066 -0.0666  0.1168
25212W        W41473   3.234  17.701   0.410  0.0345  0.3180  0.1590
25213W        W41474   7.394  16.754   0.675 -0.1819  0.0546 -0.0589
25214W        W41475  15.156   7.133  13.327 -0.0145 -0.0676 -0.1537
25215W        W41476  11.156   5.146  14.239  0.5448  0.0457 -0.1625
25216W        W41477   3.805   6.910   5.134  0.2595  0.0628  0.4099
25217W        W41478   6.729   1.987   3.019 -0.0316 -0.0574  0.2712
25218W        W41479  14.054  17.559   0.334  0.2631 -0.2365 -0.2733
25219W        W41480  13.479   3.331  11.306 -0.1647 -0.1610 -0.2580
25220W        W41481   2.386   5.410   3.282  0.0818  0.2926  0.1298
25221W        W41482  12.480   3.960  12.519 -0.0772 -0.1977  0.1925
25222W        W41483  17.634   4.985  14.516 -0.2687 -0.1653  0.3441
25223W        W41484  13.982   2.125  10.771 -0.2482  0.0911  0.0764
25224W        W41485   3.993   3.111   0.496 -0.0969 -0.3772  0.1269
25225W        W41486   5.527   4.519   0.090  0.0173  0.1046  0.1705
25226W        W41487   5.677   1.219   5.629  0.0431 -0.1952  0.0464
25227W        W41488  13.569   6.706  15.555  0.1450  0.2097 -0.0736
25228W        W41489   7.569  10.902   1.495  0.0160  0.2223 -0.0251
25229W        W41490  14.531  15.364   2.429  0.0305  0.0227 -0.4394
25230W        W41491   1.010  13.069   2.440  0.2676  0.1926 -0.0307
25231W        W41492   3.625   3.589  11.958  0.2051  0.1611  0.1550
25232W        W41493  10.561   9.135  15.529 -0.0832 -0.0547  0.1660
25233W        W41494   0.458   4.092  11.453 -0.0229 -0.0853 -0.0283
25234W        W41495  13.973  16.114   3.745  0.1419 -0.4544  0.0884
25235W        W41496  16.835   6.750  13.489 -0.2831 -0.0727 -0.4023
25236W        W41497   0.704   0.294   5.150 -0.3061 -0.1121 -0.0789
25237W        W41498  11.460  12.168   2.914  0.1637  0.0083 -0.2737
25238W        W41499   4.412  12.418   4.682  0.1359 -0.1337 -0.0074
25239W        W41500   6.615  15.527  13.198  0.2620 -0.4409 -0.3815
25240W        W41501   1.125  17.478   2.728 -0.0606 -0.0968  0.0454
25241W        W41502   6.017   1.395   2.135 -0.1192  0.3295  0.2133
25242W        W41503   6.817  10.371   5.829 -0.0201  0.0628  0.3504
25243W        W41504  17.847   3.502  11.487  0.2623 -0.0420  0.2062
25244W        W41505  13.067  18.096   4.660 -0.0508 -0.2141 -0.1774
25245W        W41506  12.738  12.655   1.224  0.1713  0.0968 -0.2704
25246W        W41507   7.930  10.632   1.056 -0.3831  0.0143 -0.0231
25247W        W41508   5.580   4.241   4.640  0.3239 -0.0668  0.0922
25248W        W41509   2.551  13.015  12.903  0.3723  0.1254  0.3535
25249W        W41510   1.901   0.563  14.674 -0.2781  0.0165  0.3233
25250W        W41511  17.245   0.612   2.812  0.1804 -0.0543  0.1510
25251W        W41512   4.933   8.168   1.178 -0.2209 -0.3007 -0.1040
25252W        W41513  12.732   7.553   4.199 -0.0327 -0.3644  0.0069
25253W        W41514   4.379  14.968   2.460 -0.0721 -0.0521  0.5740
25254W        W41515   9.946   7.105  14.546  0.0958 -0.2245 -0.0764
25255W        W41516   7.727   9.440   4.560 -0.1024  0.0288 -0.1009
25256W        W41517   3.930  11.298   0.251  0.0089 -0.0685 -0.2770
25257W        W41518   3.852   2.332   5.064 -0.1939  0.1431 -0.0041
25258W        W41519   2.910  15.439  13.199 -0.0904 -0.2428 -0.2896
25259W        W41520  18.069   5.864   2.724 -0.0619  0.0701  0.3138
25260W        W41521   0.085   9.948  15.590  0.0426 -0.2234  0.4953
25261W        W41522  18.453  15.497   5.450  0.0402  0.0590 -0.0326
25262W        W41523  10.646   5.662  13.665  0.1643 -0.2780 -0.0059
25263W        W41524   9.208  14.444   5.271  0.3311  0.0419 -0.0742
25264W        W41525   9.850  14.449   2.053 -0.1693 -0.0683  0.0071
25265W        W41526  16.309   5.789   2.078  0.5609 -0.3251  0.0119
25266W        W41527  11.931  14.156  14.365 -0.0674 -0.0573  0.2388
25267W        W41528   5.134   3.131  14.021  0.1909  0.0546 -0.0949
25268W        W41529   1.301  15.048   0.808  0.2680  0.0359 -0.2594
25269W        W41530  14.111   4.979   2.188  0.1001  0.0264 -0.1542
25270W        W41531   8.952   4.230  15.188  0.1598 -0.6261 -0.0151
25271W        W41532  13.584  15.082  14.275  0.0508  0.1433  0.0971
25272W        W41533  17.030  18.145   3.839 -0.2377  0.0051 -0.0196
25273W        W41534   9.728  13.807   2.861  0.1515  0.1227  0.1560
25274W        W41535  12.701   1.537  15.032 -0.0021 -0.2711 -0.0171
25275W        W41536  10.351   1.946   2.588  0.2301  0.0234  0.2002
25276W        W41537  16.792   9.621  14.186 -0.0814 -0.0181 -0.1691
25277W        W41538   9.435   7.948  11.838 -0.3295  0.0748 -0.2992
25278W        W41539   1.308  11.095  15.211  0.1824 -0.5554 -0.0690
25279W        W41540  17.217   0.693  12.982  0.0675 -0.0811 -0.1076
25280W        W41541  10.357  18.260  13.417  0.1644 -0.1876 -0.0910
25281W        W41542   8.494  14.721  12.836 -0.1940 -0.1795 -0.1457
25282W        W41543   9.430   0.311  14.846 -0.0060  0.1605  0.0468
25283W        W41544   2.962   0.589   4.577 -0.1523 -0.0343 -0.0497
25284W        W41545  12.282   7.234  13.996 -0.1103 -0.0490 -0.2431
25285W        W41546  17.379  16.354  16.153 -0.0700 -0.2041  0.0266
25286W        W41547   9.981  16.589   3.459 -0.0320  0.1953  0.2045
25287W        W41548   4.283   3.167   0.960  0.0559  0.0181  0.1093
25288W        W41549  12.283  10.466   5.360 -0.1683 -0.2328  0.1904
25289W        W41550  11.907  12.463  15.918 -0.1237  0.0620 -0.0453
25290W        W41551  11.300   8.933   1.266  0.2114  0.1400  0.0863
25291W        W41552   2.946   1.836   6.480 -0.0576  0.0784  0.2276
25292W        W41553   9.050   4.479   1.065  0.0724 -0.3378 -0.0279
25293W        W41554  10.366   8.568   3.133 -0.1444  0.0062  0.0652
25294W        W41555   4.324   9.013   1.261  0.1010 -0.1409  0.1580
25295W        W41556   6.822   5.883   1.216  0.1131  0.0039  0.2257
25296W        W41557   4.324   7.013  13.744  0.0915 -0.0332 -0.0637
25297W        W41558   7.210   8.181   3.308 -0.1324  0.2089 -0.1718
25298W        W41559  11.297  16.265   1.954 -0.0761  0.1482  0.1994
25299W        W41560  10.239  10.131  15.605 -0.1238 -0.0296  0.3232
25300W        W41561   5.468   7.901  13.247  0.0607 -0.0317  0.1887
25301W        W41562  15.716   8.060   3.576  0.0270  0.1076 -0.0544
25302W        W41563  16.676  12.800   4.094 -0.0876 -0.0602 -0.2537
25303W        W41564   5.311   1.814   2.615  0.4548 -0.0638 -0.3006
25304W        W41565   5.699  14.352   4.501 -0.0838 -0.1482  0.2134
25305W        W41566   9.694   7.899   0.127 -0.2052 -0.0538  0.1211
25306W        W41567  11.761  14.702  13.544  0.0042 -0.1204 -0.4668
25307W        W41568   6.532   4.885  11.977 -0.1803 -0.0730 -0.1637
25308W        W41569  10.881  12.166   2.418 -0.2848  0.1805  0.0938
25309W        W41570   3.200  15.588   1.041 -0.1242 -0.2373  0.2966
25310W        W41571  10.473  12.938   2.100 -0.0673 -0.1239  0.2074
25311W        W41572   7.011  17.662   2.223 -0.0320  0.0217 -0.0728
25312W        W41573   6.892   3.785  14.169 -0.0209  0.0159  0.2064
25313W        W41574  12.779   2.967  11.898 -0.2151 -0.1348 -0.0176
25314W        W41575   5.062  18.367   2.780 -0.3161 -0.2024  0.1190
25315W        W41576  10.880  17.505   4.523  0.0927  0.1722 -0.0493
25316W        W41577   4.268   3.228   1.454  0.0251  0.1025 -0.1644
25317W        W41578   0.993   3.368   1.197  0.0488 -0.0509  0.2009
25318W        W41579   6.668   1.990  12.811 -0.1175  0.0713 -0.0791
25319W        W41580  10.844  14.770  11.465  0.1502 -0.5070 -0.3572
25320W        W41581   0.468   7.611   2.263  0.1078  0.2077  0.1610
25321W        W41582   2.189  10.569   3.011  0.3351  0.2371  0.0797
25322W        W41583   6.837  17.690  12.111 -0.0706 -0.0776  0.1787
25323W        W41584  11.260   2.467   5.599 -0.0339 -0.1226  0.0296
25324W        W41585  11.466   1.331  15.425  0.1391  0.3420  0.0000
25325W        W41586   3.084   5.912   3.115  0.1129 -0.0261  0.1246
25326W        W41587  17.578  18.014  14.042 -0.0537  0.1348  0.1212
25327W        W41588  17.619   1.274   4.036  0.1533 -0.2417  0.2668
25328W        W41589  14.839   1.487   0.206 -0.3066 -0.1296  0.0817
25329W        W41590  12.036  12.455  14.923  0.2962 -0.2773  0.0344
25330W        W41591  10.917   6.609   4.406 -0.1110 -0.1712 -0.0009
25331W        W41592   6.934  17.540  13.108 -0.1581  0.5925 -0.0337
25332W        W41593   0.379   7.751  12.340  0.0060  0.2238 -0.0185
25333W        W41594  12.981  17.697   4.369 -0.0430 -0.0071 -0.1607
25334W        W41595   5.198   2.132  15.578 -0.1245  0.3735  0.1798
25335W        W41596   3.808   0.554  11.445  0.2135  0.0366 -0.1438
25336W        W41597   0.153  14.598   2.550  0.1212  0.1049  0.1344
25337W        W41598   6.246   6.888   2.109  0.2913  0.0020 -0.1884
25338W        W41599   4.627  13.550   2.246 -0.0811 -0.2497 -0.3166
25339W        W41600  11.170   0.535  10.732  0.2178  0.1474  0.1249
25340W        W41601  13.666   3.782  11.414 -0.0641  0.0100  0.0878
25341W        W41602   7.798  11.066   2.534  0.1573 -0.0715 -0.0784
25342W        W41603   1.312  18.460  14.933  0.0823  0.0987 -0.5239
25343W        W41604  10.538   9.879   3.459 -0.3034  0.2482 -0.0151
25344W        W41605  11.795  11.523   4.336 -0.2630  0.0040  0.3271
25345W        W41606   8.861  12.396  14.483  0.1231  0.1874  0.2768
25346W        W41607   8.005   1.833  11.099 -0.0670 -0.0255  0.2589
25347W        W41608  17.955   0.500   5.221  0.2099  0.0411  0.0703
25348W        W41609  11.506  17.574  14.357  0.0433 -0.0663  0.0732
25349W        W41610  14.314  16.753  10.939 -0.1376 -0.0674 -0.1736
25350W        W41611   3.365   9.003   5.200 -0.0312  0.0433  0.1254
25351W        W41612   2.961  11.296  11.953  0.0231  0.3006  0.2373
25352W        W41613   1.961  16.533   3.175 -0.0717 -0.0412  0.1282
25353W        W41614  15.242  17.707   1.391  0.0191  0.0708  0.1298
25354W        W41615   2.197  12.602  14.505 -0.0218  0.2100 -0.0879
25355W        W41616   7.033   0.621  12.033 -0.1933  0.1572  0.3435
25356W        W41617   7.545   2.909   3.928  0.0486 -0.0456  0.1612
25357W        W41618  17.201   6.577  15.204 -0.0989 -0.4490  0.2426
25358W        W41619   1.990  16.856  14.629  0.2138 -0.1051 -0.0154
25359W        W41620   1.123   7.966   4.142  0.1169  0.1823 -0.0392
25360W        W41621   8.576   4.093   2.943  0.1065 -0.0571  0.0345
25361W        W41622   2.521  14.519   4.083  0.2189 -0.0938 -0.1767
25362W        W41623  16.716  17.017   2.305 -0.3246 -0.0088  0.2608
25363W        W41624  18.057   8.759   0.421  0.2837 -0.2377  0.0879
25364W        W41625  17.325  15.639  11.016  0.0147  0.0981  0.1223
25365W        W41626   2.786   6.533  16.119 -0.1867 -0.0093  0.0844
25366W        W41627  12.982  11.350  11.454 -0.1079 -0.3385  0.3058
25367W        W41628  11.910  17.407  13.152 -0.0312  0.0772 -0.2231
25368W        W41629  17.107  17.721  11.746 -0.0566  0.1337  0.1471
25369W        W41630  13.082   2.418   2.568  0.3250 -0.2422  0.1551
25370W        W41631  10.374   8.116  14.360  0.0342 -0.0085 -0.4357
25371W        W41632   9.920  16.043  15.070 -0.1800  0.0828  0.2181
25372W        W41633   9.415   5.177  11.800  0.1967  0.0905 -0.0918
25373W        W41634   9.048   3.780   5.152  0.4431 -0.0499 -0.0625
25374W        W41635   0.307  13.782  12.904 -0.1083 -0.0632 -0.2365
25375W        W41636  11.804   1.578  15.059 -0.1908  0.0860  0.0798
25376W        W41637  16.997  14.860   1.588 -0.1961 -0.1868 -0.0311
25377W        W41638   6.615   1.636   2.612  0.1634  0.0590 -0.1843
25378W        W41639   7.627  14.608  16.173 -0.0335  0.1415 -0.0305
25379W        W41640   6.611  16.771  14.180  0.1331 -0.0694  0.0982
25380W        W41641  16.764  12.621   2.463 -0.2004  0.0805  0.1820
25381W        W41642   5.830   3.494   5.848  0.1334 -0.0713 -0.3139
25382W        W41643  16.176   4.140   1.979  0.1325 -0.0127  0.0468
25383W        W41644   4.994  14.805   4.697  0.1683  0.1395 -0.0402
25384W        W41645  14.136   9.818   3.103 -0.2399 -0.0208  0.2045
25385W        W41646   4.607   1.177   5.533 -0.0289 -0.0620 -0.0201
25386W        W41647  16.537   8.761   3.194  0.0925 -0.0953  0.2728
25387W        W41648  10.874   4.088   2.713 -0.3397  0.1617 -0.0562
25388W        W41649   3.645  14.107  14.984 -0.2691 -0.1227  0.1350
25389W        W41650  10.811   7.741  12.490 -0.3209 -0.4024  0.6086
25390W        W41651   3.071   9.015  15.719 -0.1849 -0.0475 -0.0296
25391W        W41652   5.509  12.961   0.066 -0.1047  0.0049  0.0099
25392W        W41653  12.687  18.030   2.273 -0.0475 -0.0773  0.0602
25393W        W41654  13.037   6.586  13.459 -0.2408 -0.2209  0.0865
25394W        W41655   8.251  10.466   4.403  0.3393 -0.0951  0.0735
25395W        W41656  11.948   1.005  11.388  0.0901 -0.0588 -0.3073
25396W        W41657  15.863   0.128   1.149  0.1195  0.0199  0.0903
25397W        W41658   5.646   1.378   2.541 -0.0912  0.0324  0.0994
25398W        W41659  16.211   3.945  11.439  0.0183 -0.1543 -0.1552
25399W        W41660   7.098   4.490  15.631  0.2043 -0.1720 -0.0714
25400W        W41661   6.664   9.088   2.822 -0.0877 -0.3253 -0.1156
25401W        W41662   4.389  14.380  12.576  0.1582 -0.1655  0.0659
25402W        W41663   3.374   0.659   1.932 -0.0068  0.0636  0.1150
25403W        W41664   4.393   3.403  16.016 -0.3989 -0.0060  0.1482
25404W        W41665   7.292   8.556   2.288  0.0334 -0.1945 -0.0213
25405W        W41666  14.198   0.334  12.951  0.0189  0.0379 -0.0276
25406W        W41667  11.834   5.972   5.362  0.2015 -0.1374 -0.1776
25407W        W41668   7.408  10.017   1.711  0.1384 -0.1861 -0.3852
25408W        W41669   3.338   0.627  13.450 -0.1842  0.2761  0.3715
25409W        W41670   6.072  12.896   4.369  0.2119 -0.3667 -0.2731
25410W        W41671   4.017  13.687   1.652 -0.1397 -0.2979  0.0112
25411W        W41672  10.106  17.331  13.879  0.1945  0.0155 -0.0678
25412W        W41673   0.611   4.294   2.006  0.3332  0.1982 -0.0044
25413W        W41674   9.385   6.309   0.025  0.1560 -0.0938  0.0597
25414W        W41675   9.745   0.557  16.029 -0.0059 -0.3673  0.1719
25415W        W41676  15.802   2.338   0.252  0.2099  0.0159 -0.2211
25416W        W41677   8.194  16.218  15.660  0.0497 -0.0629  0.0750
25417W        W41678  17.126  17.634   3.888  0.0926  0.0961  0.2268
25418W        W41679   4.256   8.111   0.863  0.1164  0.1638  0.0395
25419W        W41680   1.720  14.603  12.326  0.0330  0.0613 -0.0643
25420W        W41681   4.226   7.229   5.270  0.1052  0.2108 -0.2458
25421W        W41682  11.395   6.650   4.852  0.0418  0.3071  0.0091
25422W        W41683  14.389   0.632  10.904  0.0852  0.2378 -0.1216
25423W        W41684   2.625   5.560   3.731  0.2787  0.2185 -0.1430
25424W        W41685   9.480   0.760   2.556  0.2555 -0.1124  0.0016
25425W        W41686  16.032   5.969   5.093 -0.0671 -0.0400 -0.0279
25426W        W41687   4.735   6.767  12.324 -0.1780 -0.1185  0.2805
25427W        W41688   9.579   7.879   3.004 -0.1623 -0.1812 -0.3683
25428W        W41689  16.519  13.209   3.291 -0.0899 -0.1530 -0.2064
25429W        W41690  10.747  15.495   3.696 -0.1221  0.1710  0.0915
25430W        W41691  11.247  11.881  15.354  0.2852 -0.1583  0.0827
25431W        W41692   6.268  17.220  11.348  0.0248  0.0456 -0.1944
25432W        W41693   0.066   1.921  15.237 -0.1722 -0.2773 -0.1597
25433W        W41694   3.382  13.901   5.556 -0.4151 -0.0550  0.1421
25434W        W41695  12.831   3.104   4.556 -0.0676  0.0710 -0.1812
25435W        W41696   4.496  12.473  11.542 -0.0041 -0.0261 -0.1121
25436W        W41697   1.525   9.331  13.593  0.0246  0.0750  0.2975
25437W        W41698   7.756  12.622   0.523  0.1120  0.3482 -0.0993
25438W        W41699   7.890  18.186  11.575 -0.0982  0.0033 -0.0597
25439W        W41700  10.040  16.103   3.510 -0.1221 -0.1247 -0.1840
25440W        W41701   0.042   3.031   2.769  0.1496  0.2328  0.0199
25441W        W41702  15.341  15.694  12.626  0.1103 -0.0651  0.2376
25442W        W41703  14.511   1.030   2.143 -0.0664 -0.0243  0.2408
25443W        W41704  15.454  16.310   4.989  0.1726  0.0122  0.1476
25444W        W41705   7.676   0.895   1.183 -0.2434 -0.2310  0.0531
25445W        W41706   4.903  16.342   0.670  0.0304 -0.2332  0.1440
25446W        W41707  12.554  16.679  14.826 -0.0068 -0.4657 -0.0918
25447W        W41708   4.053   3.651   0.760 -0.2792  0.0586 -0.1722
25448W        W41709   9.256  11.009   1.550  0.3111 -0.1093  0.1357
25449W        W41710  17.298  17.991  14.806  0.0929  0.0217 -0.1741
25450W        W41711  17.766   7.221  11.875 -0.1784 -0.0194 -0.3499
25451W        W41712   5.763   5.834  13.582 -0.1079  0.3153 -0.2129
25452W        W41713   2.748  15.229  13.958  0.0759 -0.0325 -0.0072
25453W        W41714  18.378   2.487   5.442  0.0988  0.0055 -0.3125
25454W        W41715   7.038  13.729   0.465  0.3493  0.0404 -0.1678
25455W        W41716  10.693   0.026  14.264 -0.0330 -0.1008 -0.1057
25456W        W41717   6.663  12.527  14.028  0.0293 -0.1018 -0.1307
25457W        W41718   4.946   7.154  14.804  0.1355  0.3473 -0.0842
25458W        W41719  15.403   6.221  11.549  0.0059 -0.2262  0.4902
25459W        W41720   9.455   1.672  12.027  0.0909  0.0368 -0.1553
25460W        W41721  18.062  10.193  13.553  0.1612  0.0391  0.0280
25461W        W41722  16.605   4.537   4.001  0.0371  0.0282  0.1580
25462W        W41723  18.367  16.032  15.255 -0.1030 -0.0702  0.0971
25463W        W41724  13.587  15.887   1.859  0.0347  0.3220 -0.0606
25464W        W41725   5.678   8.159   5.897  0.0535 -0.2429 -0.0663
25465W        W41726   8.012  11.669   3.309 -0.1945 -0.0779  0.2914
25466W        W41727  11.240  14.453  12.883 -0.0190 -0.0255 -0.0161
25467W        W41728  11.416  15.559   3.903  0.0793 -0.0267  0.0595
25468W        W41729   5.818   2.981   1.030  0.0671 -0.2842 -0.0493
25469W        W41730  16.199  10.491   3.292 -0.0565 -0.1878  0.2059
25470W        W41731   1.010   1.268   0.690  0.3644 -0.0330  0.3577
25471W        W41732   1.313  17.499   0.631  0.0294  0.1568 -0.2215
25472W        W41733   1.845   0.903  11.839 -0.0377 -0.1227 -0.3045
25473W        W41734   1.121  13.731  13.883 -0.0142  0.1835 -0.1108
25474W        W41735   0.694  10.338  15.047  0.0239 -0.0469  0.0326
25475W        W41736   1.978   1.536   0.747  0.0291  0.1815  0.1197
25476W        W41737   1.752   1.546  13.160  0.2069 -0.5727  0.1484
25477W        W41738  14.002   9.476  14.812  0.0580  0.2324 -0.1143
25478W        W41739   0.632   1.844   4.409  0.1839 -0.1783 -0.0078
25479W        W41740   8.757  17.263   4.216  0.0929  0.0626 -0.1547
25480W        W41741   9.946  13.860  13.620 -0.2227 -0.1738  0.0251
25481W        W41742   2.344   1.105  11.907  0.0999 -0.2351  0.3867
25482W        W41743   5.128  13.845  12.863  0.0089 -0.1438 -0.1184
25483W        W41744  16.224   6.458   4.936 -0.1152  0.3153  0.0385
25484W        W41745  11.204   9.846   4.827 -0.1475 -0.0511 -0.1482
25485W        W41746   4.028   2.957  16.061  0.1856  0.0130 -0.1076
25486W        W41747  16.732   4.226  12.699  0.0688 -0.1266 -0.1943
25487W        W41748  16.891  14.313   0.505  0.0511 -0.3836  0.0642
25488W        W41749   0.810  10.993   4.372  0.2292  0.1954 -0.0619
25489W        W41750   7.165   9.831   3.922  0.1966  0.0654 -0.1180
25490W        W41751  10.998   0.433  14.007  0.1213 -0.0028 -0.0931
25491W        W41752  11.876  14.509   1.652 -0.0419  0.1007 -0.1031
25492W        W41753   5.824   4.744  14.109  0.2263 -0.4326 -0.0141
25493W        W41754   1.277  15.143   2.273  0.0056 -0.3400 -0.0324
25494W        W41755   7.347  17.704   5.224  0.1752  0.0078 -0.0733
25495W        W41756   5.331   5.087  15.559  0.1913  0.2074 -0.0546
25496W        W41757   3.555  17.035   5.268  0.0539  0.1413 -0.1242
25497W        W41758  10.399  16.496   5.074 -0.1147  0.1888 -0.0505
25498W        W41759   3.363   7.802  14.624  0.0165 -0.2526  0.0276
25499W        W41760   6.275  14.241   0.398  0.0693 -0.3542  0.0998
25500W        W41761  16.461   3.243   4.725 -0.2095  0.2056  0.1449
25501W        W41762   0.782   4.931   5.743 -0.2469 -0.1146 -0.2081
25502W        W41763   2.608   9.603   0.389  0.0645 -0.3186  0.0907
25503W        W41764  10.226  10.032   0.457  0.2083 -0.1952 -0.4133
25504W        W41765   9.912   0.864  14.524 -0.1794 -0.1256  0.0355
25505W        W41766   8.024   4.277   0.535  0.3645 -0.2086 -0.1732
25506W        W41767  12.716  12.349   0.749  0.2110  0.1906 -0.2211
25507W        W41768  18.278   6.422   1.277  0.3023  0.3524 -0.0277
25508W        W41769   2.542   0.574   4.279  0.1200  0.2075  0.2165
25509W        W41770   7.945  13.875  13.932 -0.0919  0.2298 -0.1195
25510W        W41771   7.728  13.925   3.786 -0.0618  0.2722 -0.0599
25511W        W41772   0.803   0.324   2.077  0.1664 -0.0159  0.0863
25512W        W41773   9.175  15.210   4.730 -0.2204  0.1327  0.1649
25513W        W41774   3.454  13.493  11.774  0.4081 -0.0668  0.4101
25514W        W41775  14.376  14.894  13.240  0.1529  0.2702 -0.0237
25515W        W41776  12.787   8.343   3.825  0.2931 -0.0148 -0.0508
25516W        W41777   3.188  15.769   3.855  0.2058 -0.1776  0.0990
25517W        W41778  15.831   2.805  16.059  0.2453 -0.2655  0.1353
25518W        W41779  15.732  10.851   5.141  0.0074 -0.1915 -0.1291
25519W        W41780   8.102   4.249   4.957 -0.0375  0.1395  0.1616
25520W        W41781   6.238   4.722   5.580  0.2749 -0.1990  0.1522
25521W        W41782  11.190  16.414  15.724  0.0842 -0.1321  0.3904
25522W        W41783  14.132   1.771   4.356 -0.2618 -0.0049 -0.1573
25523W        W41784   3.359  10.005  15.500 -0.2006  0.3122  0.3430
25524W        W41785   5.708  18.073   6.386  0.3522  0.2726 -0.2772
25525W        W41786  17.987   4.240   1.889 -0.4382 -0.0341 -0.1311
25526W        W41787  14.109   1.801   5.306  0.3188  0.0084 -0.0012
25527W        W41788  13.915  14.656   3.261  0.0873 -0.2460  0.3206
25528W        W41789   0.109   6.625  10.943 -0.3615  0.2943  0.1226
25529W        W41790   6.214   2.426  12.733 -0.0884 -0.0439 -0.1106
25530W        W41791  17.456   4.720  13.051 -0.2325 -0.1096  0.0509
25531W        W41792   8.300  12.244   1.314  0.1839  0.3338  0.1755
25532W        W41793   1.406   8.535   3.392 -0.0805 -0.0696 -0.0070
25533W        W41794   7.929   4.877   0.465 -0.3668 -0.1297 -0.0948
25534W        W41795   8.206  13.155   4.224 -0.0378 -0.2665  0.4149
25535W        W41796   8.493  12.143  13.624 -0.0844 -0.2460 -0.1859
25536W        W41797  15.679  15.006  13.767  0.1252 -0.4659  0.1639
25537W        W41798  17.730   7.067  15.988  0.1359  0.0749 -0.1243
25538W        W41799   0.610  12.125  15.313 -0.4922  0.2066  0.0967
25539W        W41800   1.253   5.218  15.033 -0.0199 -0.0266  0.1022
25540W        W41801  12.304   9.503  14.376  0.1934 -0.0732  0.0014
25541W        W41802   8.320  13.518   0.851 -0.1520 -0.0821 -0.0202
25542W        W41803  10.266  13.644  13.944 -0.2944  0.1909 -0.0828
25543W        W41804  12.105   5.068  14.466 -0.0342  0.1236  0.0635
25544W        W41805   6.354   1.735  13.112  0.0583  0.0399  0.1061
25545W        W41806  18.182   5.887   3.830  0.2612 -0.1413 -0.1592
25546W        W41807   6.128   0.483  12.330  0.1239  0.3109  0.2332
25547W        W41808  14.854   4.318   1.877  0.0495 -0.2145 -0.1702
25548W        W41809   8.482   8.936  14.868  0.0948 -0.2448  0.2054
25549W        W41810  11.048  15.959   3.804  0.0760 -0.1063 -0.0654
25550W        W41811  17.406  10.275  12.104 -0.0402  0.1131 -0.0091
25551W        W41812  15.957  11.441  10.659  0.2794 -0.1091 -0.0280
25552W        W41813   9.963  15.969   1.206 -0.1213  0.2049 -0.1384
25553W        W41814  11.876   9.181  15.343 -0.0697  0.2124 -0.4316
25554W        W41815   9.794   5.961   1.887 -0.2560 -0.0687 -0.0375
25555W        W41816  15.791   4.681  12.184  0.1400  0.0058 -0.1489
25556W        W41817   3.758  13.379  15.479  0.0896 -0.1627  0.2030
25557W        W41818  12.455   2.173  13.667  0.3524 -0.1854 -0.3536
25558W        W41819   5.345   6.598   5.044  0.0184 -0.1123  0.1408
25559W        W41820   9.937   7.743   0.847 -0.0410  0.1216  0.0745
25560W        W41821   9.930  12.053   4.791  0.1732  0.2003  0.0330
25561W        W41822   4.160  11.987  15.181  0.0120  0.0721 -0.0054
25562W        W41823   5.927  13.075   2.101  0.1909  0.1240  0.0747
25563W        W41824  13.206  15.786   3.238 -0.0052 -0.1358 -0.1056
25564W        W41825  11.441  13.706   2.288  0.2229  0.2234 -0.0331
25565W        W41826   2.884   6.604   5.261  0.1283  0.0886 -0.0839
25566W        W41827   5.300   9.038   3.696 -0.0295  0.0279  0.0294
25567W        W41828   4.768  11.060   4.786 -0.1344  0.1407  0.0073
25568W        W41829   8.291   3.112   5.731 -0.1919  0.1796  0.2791
25569W        W41830   0.981  14.056   1.335  0.2729 -0.2367 -0.1927
25570W        W41831   0.779  13.689  13.106  0.2573 -0.0988 -0.3111
25571W        W41832   1.741  14.425   3.036 -0.0769  0.1257  0.0679
25572W        W41833   8.078   1.370  15.162 -0.2170  0.1084 -0.0202
25573W        W41834  16.308   5.924   0.433 -0.1076 -0.0985 -0.1736
25574W        W41835   3.235   8.208   3.887 -0.1899 -0.1558 -0.2946
25575W        W41836   8.987   1.058  15.374 -0.0601 -0.1403  0.0265
25576W        W41837   6.982   6.330   0.868  0.1951  0.0530  0.0794
25577W        W41838  17.156   0.809   0.286 -0.0776  0.0826  0.0451
25578W        W41839   3.788   2.610   5.869  0.3274  0.0922 -0.2763
25579W        W41840  18.229   3.500  11.140 -0.1038  0.1188  0.1213
25580W        W41841  18.303   4.485   2.383 -0.1942 -0.2339  0.1763
25581W        W41842  11.568  17.379  11.815 -0.1306  0.0009  0.0320
25582W        W41843   3.663   0.579   3.769  0.0610  0.1768  0.0689
25583W        W41844  12.756  13.073  15.903  0.3605  0.1143  0.1281
25584W        W41845  12.634   8.123  10.521  0.1266 -0.0792 -0.1381
25585W        W41846  12.255  15.805   2.718  0.0394 -0.1812  0.1627
25586W        W41847   8.300   8.453   0.720  0.1494  0.3788 -0.1856
25587W        W41848   8.810   1.101  11.442 -0.1467  0.2857  0.1021
25588W        W41849  12.648  15.287   2.832 -0.2450  0.3997 -0.0014
25589W        W41850  12.338   4.734   5.887  0.3571 -0.1539 -0.0270
25590W        W41851  17.308  13.044  12.798 -0.0794  0.1412 -0.2041
25591W        W41852   6.615   5.197   1.214 -0.2219 -0.0553  0.0315
25592W        W41853   0.043   8.069  16.173  0.2650  0.2047 -0.1422
25593W        W41854   6.361   5.395   3.119  0.0758 -0.2052 -0.2109
25594W        W41855  13.144  15.957   1.575 -0.2394 -0.0485  0.1109
25595W        W41856  13.091  11.073  13.945 -0.1053  0.3305 -0.0707
25596W        W41857   8.612   8.018   3.935 -0.2253 -0.2174 -0.1467
25597W        W41858  16.342   2.544  13.116 -0.3452  0.1941 -0.0228
25598W        W41859   9.103  12.083   0.764 -0.1082 -0.0114 -0.2687
25599W        W41860  12.814  12.329  12.342 -0.2464  0.2019  0.3498
25600W        W41861   1.148  13.478   0.857 -0.3093  0.2671 -0.1389
25601W        W41862   4.730  14.158  12.822  0.1676 -0.1097  0.1893
25602W        W41863  11.165   9.530  12.591  0.0121  0.0121  0.0167
25603W        W41864   5.198  10.647  13.206 -0.3155 -0.3795  0.0011
25604W        W41865  15.206   1.201   2.787 -0.0870  0.1786  0.3850
25605W        W41866  15.282   2.254  15.544 -0.0672  0.0873  0.2033
25606W        W41867   6.020   3.343  14.045  0.3430  0.1110  0.1417
25607W        W41868   8.092  16.899   2.851  0.1178  0.4734  0.1233
25608W        W41869  17.007   9.182   2.736  0.1470 -0.0903  0.0797
25609W        W41870   4.047  15.975   2.649  0.1732 -0.0756  0.0100
25610W        W41871   6.454   5.167   4.596 -0.2160 -0.1594  0.0670
25611W        W41872   6.784   4.168   3.063  0.1567 -0.5129  0.3149
25612W        W41873  11.899  12.593   4.547  0.4871  0.0261 -0.0774
25613W        W41874  16.336  18.069   3.134 -0.0724  0.0035  0.0030
25614W        W41875  15.176  15.678  11.599  0.0261  0.0989 -0.0520
25615W        W41876  11.519   8.412  15.449 -0.1308  0.2672  0.1317
25616W        W41877  15.626   6.935  13.304  0.1296 -0.1386  0.2045
25617W        W41878  14.689   0.034   2.411 -0.3951 -0.0403 -0.0579
25618W        W41879   4.962  12.673  14.858  0.0089 -0.0190 -0.0149
25619W        W41880   8.919   4.996  13.328  0.4647 -0.3808  0.3842
25620W        W41881  17.220   4.385  11.760  0.0042  0.1503 -0.1592
25621W        W41882   0.725  14.498  15.504 -0.1395 -0.2499  0.2172
25622W        W41883  16.231   1.950   2.466  0.0035 -0.4158 -0.0196
25623W        W41884   1.687  10.847  16.182  0.1824  0.3987 -0.0092
25624W        W41885  13.952  14.539   3.725 -0.1821  0.2874  0.1707
25625W        W41886   2.831  14.435   0.497 -0.0614 -0.0196 -0.2745
25626W        W41887  12.943  17.916  14.220 -0.1651 -0.1006 -0.0610
25627W        W41888   9.205  14.630   4.510  0.3721 -0.1859  0.2573
25628W        W41889  13.169   3.106  14.774 -0.3346  0.0161 -0.0710
25629W        W41890   7.236   9.261  11.955 -0.3274  0.1557  0.1347
25630W        W41891   4.629  11.836   1.653  0.0381  0.0378  0.2655
25631W        W41892  14.594   4.733   3.476 -0.0294  0.2939 -0.1810
25632W        W41893  13.083   5.358  14.623  0.0047  0.1919  0.2866
25633W        W41894  14.468  13.466  15.541 -0.0727  0.1424 -0.1208
25634W        W41895   5.156  14.936   4.144  0.0491  0.0771  0.1845
25635W        W41896   2.538  10.151   3.148 -0.0831 -0.0754 -0.1280
25636W        W41897  14.492   9.041  16.044  0.0154 -0.3299  0.0203
25637W        W41898  12.828  13.880  12.128 -0.0349  0.0097  0.2116
25638W        W41899   8.157  12.197   5.340  0.0902 -0.1666  0.0118
25639W        W41900  15.221   7.079   5.615 -0.2017 -0.0221  0.0614
25640W        W41901  11.715  10.599  12.814  0.1592  0.0249 -0.2789
25641W        W41902   1.721  10.781  12.027 -0.2082 -0.0437  0.0544
25642W        W41903   0.536   4.561  14.280 -0.0309 -0.0488  0.0191
25643W        W41904   5.219   7.587  12.601  0.1359  0.0122 -0.4301
25644W        W41905   5.626  13.990  16.050 -0.0598 -0.3577  0.0380
25645W        W41906  15.691  12.637   3.019 -0.3041  0.1460  0.0666
25646W        W41907  11.065   9.092   3.144  0.1386 -0.0502 -0.1684
25647W        W41908  12.302   4.893  13.867 -0.0755  0.4220  0.4453
25648W        W41909   9.938   1.779  14.769 -0.0059 -0.1950  0.3087
25649W        W41910   4.211   5.608   3.568 -0.0764 -0.1776 -0.1393
25650W        W41911  18.337   4.788   3.492  0.2223 -0.0512 -0.1706
25651W        W41912  14.835   4.621   1.490  0.0237 -0.4011  0.1211
25652W        W41913   9.886   2.043  10.922 -0.1033  0.3511 -0.1235
25653W        W41914   0.996  12.170  14.872  0.1047 -0.0694  0.0177
25654W        W41915  18.288  13.224  13.482  0.1506 -0.2542 -0.1616
25655W        W41916  12.372   7.449  15.716  0.0322 -0.2797  0.2228
25656W        W41917  17.917  18.121   3.723 -0.1043  0.1956 -0.2202
25657W        W41918   9.463  13.711  13.819 -0.0798  0.0155  0.0629
25658W        W41919  12.118  10.109  12.474  0.0316  0.1405 -0.2358
25659W        W41920  16.354   4.562  12.265  0.1786 -0.2044 -0.0342
25660W        W41921  13.205  12.643  14.583  0.0244  0.1990  0.5166
25661W        W41922  18.075   3.692   1.856  0.1108 -0.2851  0.2162
25662W        W41923  11.059   3.226   2.453  0.1330 -0.0287  0.2185
25663W        W41924   4.348   4.200  11.934  0.2161 -0.2284  0.1881
25664W        W41925   0.757   8.015   2.245 -0.1384  0.0324  0.0573
25665W        W41926  15.478  15.230  14.369  0.0538  0.0081  0.2778
25666W        W41927   9.912   6.874   2.201  0.2015 -0.0562 -0.0667
25667W        W41928   4.649   1.017  15.442  0.1873 -0.1150  0.0763
25668W        W41929  16.851   9.770  13.732 -0.3469 -0.2061  0.1302
25669W        W41930  13.396  11.007  15.535 -0.0566 -0.0969  0.2128
25670W        W41931  11.674  17.044  15.034 -0.1067  0.0008 -0.2564
25671W        W41932   7.534  11.239   2.122 -0.2344  0.0454  0.2158
25672W        W41933   5.405  17.238   1.391 -0.0379 -0.1506  0.3227
25673W        W41934  12.837  15.586   0.013 -0.2455  0.2976  0.0042
25674W        W41935   7.723   3.278   0.419 -0.1181  0.0168  0.1220
25675W        W41936  10.015   4.076   5.250  0.3600 -0.2638  0.1078
25676W        W41937  13.348  13.572  13.402  0.1046  0.1972  0.0591
25677W        W41938   5.340   5.882   5.600 -0.1814  0.1483 -0.1991
25678W        W41939   0.333   5.720  13.585  0.2497 -0.3167  0.1722
25679W        W41940   3.734  15.193  14.947 -0.3701  0.1857 -0.0916
25680W        W41941   9.868  15.360  10.959 -0.1580  0.1062 -0.1476
25681W        W41942  11.571   2.014   1.865  0.2278 -0.2144 -0.2772
25682W        W41943  15.812  17.917  14.291  0.0097 -0.0371  0.1799
25683W        W41944   8.689   7.391   6.676  0.0929  0.1481 -0.1975
25684W        W41945   0.423   7.410  15.623 -0.2642 -0.3924  0.1823
25685W        W41946  13.667  16.490  12.936 -0.4394 -0.0829 -0.0109
25686W        W41947   4.609   7.582   5.466  0.1257 -0.0526  0.6909
25687W        W41948  14.805  10.702  12.817 -0.2854  0.1313  0.2585
25688W        W41949   5.587   2.528   5.246  0.1306 -0.0661  0.0907
25689W        W41950   1.211   4.343   3.556  0.0796  0.2070 -0.0055
25690W        W41951  10.345  14.709   1.918 -0.1713 -0.2845 -0.1608
25691W        W41952   7.853  11.684  15.834  0.1127 -0.0223  0.0130
25692W        W41953   1.670  12.693   5.365  0.0067  0.7157  0.2572
25693W        W41954   3.054   5.412  12.163  0.2014 -0.0550  0.1331
25694W        W41955  14.347  16.926  15.663 -0.0150  0.1770 -0.0184
25695W        W41956  15.120   8.177   1.851 -0.2990 -0.0545 -0.0589
25696W        W41957   3.878  13.044  15.053 -0.1768  0.1064 -0.2432
25697W        W41958  15.016  11.231  15.317 -0.3899  0.0887 -0.1613
25698W        W41959  14.630   2.996   1.351 -0.0767 -0.1302  0.0245
25699W        W41960   5.009  13.302  14.954 -0.1031  0.3121  0.0933
25700W        W41961  11.275   6.996  15.524  0.1076  0.1841 -0.2841
25701W        W41962   5.476  18.090   1.080 -0.0966 -0.2896 -0.2154
25702W        W41963   5.030  17.516   4.423 -0.0356 -0.5781  0.2134
25703W        W41964   6.387  12.339   3.240  0.1774 -0.1277  0.0101
25704W        W41965   7.703   9.337  15.831 -0.2390  0.1904  0.1253
25705W        W41966  15.500   9.563   0.722 -0.1823 -0.0149  0.2196
25706W        W41967  10.947   6.810   0.956 -0.1479 -0.1411 -0.2979
25707W        W41968  13.274  15.704  11.804  0.0876 -0.2468 -0.3388
25708W        W41969   0.246   1.561   0.981 -0.1535  0.0638 -0.0815
25709W        W41970   9.280  13.296  14.672  0.1883 -0.2832 -0.0970
25710W        W41971  13.947   3.636   3.366  0.0856  0.0954  0.1037
25711W        W41972  18.082   6.981   1.541 -0.0701 -0.2536 -0.1332
25712W        W41973   1.795  15.386   1.936 -0.0066 -0.0494  0.1947
25713W        W41974  12.116  15.836   1.741 -0.0504 -0.0751  0.3257
25714W        W41975  13.508   0.994  14.493 -0.0739  0.4544  0.0025
25715W        W41976   4.300   0.519   0.123 -0.0595  0.1276 -0.1360
25716W        W41977   6.552   4.602   3.542 -0.0066  0.0465  0.1468
25717W        W41978  14.240  15.165   0.232  0.1331  0.2622 -0.3968
25718W        W41979  10.310  14.189  12.601  0.2140  0.1380  0.1440
25719W        W41980   7.299  17.963   6.131  0.1412  0.0402 -0.0789
25720W        W41981   5.778  17.054   5.621  0.2088  0.0403 -0.2256
25721W        W41982  14.833  17.991  15.836 -0.0132 -0.2967 -0.1796
25722W        W41983   3.029  15.887  15.973  0.1268  0.0376 -0.0996
25723W        W41984  13.499  17.531  13.305  0.0351 -0.0306  0.2110
25724W        W41985   0.957  11.399   3.248  0.0155 -0.1657 -0.3110
25725W        W41986  11.106   2.923  12.219 -0.0795 -0.1092  0.0997
25726W        W41987  11.622  11.707   2.694  0.2101 -0.0855  0.2080
25727W        W41988  15.148  13.375  16.175  0.1291  0.2209 -0.0028
25728W        W41989  15.187   9.088   1.340  0.2407  0.2239  0.1201
25729W        W41990   3.290  15.356   1.535 -0.1664 -0.0834 -0.0028
25730W        W41991  13.906   8.323   3.853  0.0193  0.0444  0.0617
25731W        W41992  15.090   5.914   1.499  0.2623 -0.3209  0.0468
25732W        W41993  14.477   1.361   5.357  0.0018 -0.0545 -0.0136
25733W        W41994  12.413  14.358  14.592 -0.1034  0.0695  0.1146
25734W        W41995   0.444  14.683   0.865 -0.4501 -0.2726 -0.1610
25735W        W41996  10.088  14.634  12.636  0.0924  0.1955  0.3402
25736W        W41997   9.149   7.099  13.221  0.2277 -0.0533  0.0075
25737W        W41998   9.295   5.631  14.354 -0.0064 -0.4425  0.0367
25738W        W41999  10.373   4.860  13.357 -0.2633 -0.3263 -0.0263
25739W        W42000   3.554   3.640   2.505  0.0566 -0.3091  0.1798
25740W        W42001   9.342   1.746   5.231  0.1505 -0.0166 -0.0195
25741W        W42002  11.664  13.758   1.301 -0.0834 -0.0588 -0.2592
25742W        W42003   0.047   2.129  11.956 -0.1444 -0.0635 -0.0632
25743W        W42004   0.502  18.010  12.582  0.0135 -0.1994 -0.0373
25744W        W42005  15.084  15.714  11.019 -0.3334 -0.1253 -0.1708
25745W        W42006  10.658  17.751  12.880 -0.0993 -0.0361  0.3026
25746W        W42007   5.893   8.821  12.321 -0.0600 -0.0668  0.0651
25747W        W42008  14.173  13.584  11.846 -0.2733 -0.0593 -0.0277
25748W        W42009  17.332  15.324   0.627 -0.2005 -0.1550  0.3405
25749W        W42010  13.133   1.732  14.315 -0.1847 -0.0519  0.2209
25750W        W42011   5.610  16.796  13.126  0.1015 -0.3528 -0.0203
25751W        W42012  15.322   1.701   1.275 -0.1780  0.0451  0.2013
25752W        W42013  16.591  16.239   4.593  0.0811 -0.2741 -0.3393
25753W        W42014   7.315  11.016  12.597 -0.0326  0.0066  0.0243
25754W        W42015   8.222   8.167   2.337  0.0046 -0.2225 -0.1560
25755W        W42016  13.040   0.601   4.050  0.0290 -0.2058 -0.0818
25756W        W42017   4.527   6.454   0.153 -0.1046 -0.1238  0.3095
25757W        W42018   9.383  15.154  11.790  0.0516 -0.0073 -0.1171
25758W        W42019  13.213   0.082   4.845 -0.0869  0.0239  0.3396
25759W        W42020  10.205   5.345   2.891 -0.0309 -0.1439  0.1835
25760W        W42021  13.028  16.279  14.407  0.1725 -0.1798 -0.1825
25761W        W42022  14.649   9.823   2.566  0.0356 -0.0708  0.1367
25762W        W42023   8.957   0.325   0.339  0.0090  0.0447  0.4540
25763W        W42024   3.531   2.280   5.579  0.0414  0.0524  0.2170
25764W        W42025   0.403  12.527   0.272 -0.3426  0.2161  0.2741
25765W        W42026   3.597  17.581   5.901 -0.1479  0.3751 -0.2941
25766W        W42027   1.062   1.718  16.126  0.1459 -0.1402  0.1483
25767W        W42028   5.349   3.759  11.907  0.0038 -0.1213 -0.0715
25768W        W42029  12.085   2.308   0.762 -0.1526 -0.0329  0.1505
25769W        W42030   6.679  15.020   2.843 -0.2012  0.3410 -0.4799
25770W        W42031   5.449   7.160   5.103 -0.0138  0.2619  0.2044
25771W        W42032  18.233  10.192  14.756  0.1703 -0.0275  0.0322
25772W        W42033   4.598   6.466  12.842  0.0759  0.3017 -0.2086
25773W        W42034   7.344  17.521  13.856 -0.0612  0.1577 -0.1495
25774W        W42035   7.529   6.314  16.056 -0.0150 -0.0036 -0.3627
25775W        W42036  17.741  11.443  15.335 -0.2647  0.1706 -0.0939
25776W        W42037  17.537   5.313   3.072 -0.0753 -0.2559 -0.0593
25777W        W42038  13.123   3.768  13.739 -0.3689  0.3910  0.1054
25778W        W42039   2.801   3.899  14.157 -0.0351 -0.2308 -0.1502
25779W        W42040   5.878  14.558   2.156 -0.2025 -0.2351  0.2235
25780W        W42041  18.091  13.618   0.705  0.1437 -0.2100 -0.2944
25781W        W42042  10.774   8.473   2.512  0.1406  0.1901  0.0043
25782W        W42043   5.722  15.221   2.862 -0.1720  0.0636  0.1446
25783W        W42044   2.322   6.384   3.474 -0.2596 -0.3329  0.2642
25784W        W42045  18.267  11.845   2.751  0.0909 -0.1338 -0.0230
25785W        W42046  13.987  10.048   4.880  0.3993  0.2353 -0.0165
25786W        W42047   1.868   4.111   2.861 -0.0983  0.2661 -0.0011
25787W        W42048   7.711  10.307   0.424  0.0656  0.0007  0.2001
25788W        W42049   0.814   6.427  14.227 -0.2079 -0.3102 -0.1077
25789W        W42050  17.794   6.653   3.406 -0.0582 -0.0858 -0.1648
25790W        W42051  13.981  11.679  11.930 -0.1586  0.1293 -0.2578
25791W        W42052   5.731   2.964   1.943 -0.2342 -0.0245  0.0794
25792W        W42053   5.794   9.889   4.491  0.0981  0.1117  0.0773
25793W        W42054  16.602  10.894   1.081  0.2440  0.0779 -0.0899
25794W        W42055   0.534  16.863   3.320  0.0185  0.1620 -0.1085
25795W        W42056   0.390  10.858   3.503  0.2010 -0.1148 -0.1029
25796W        W42057  12.737   8.171  15.191 -0.1473 -0.3932 -0.0147
25797W        W42058  11.194   2.238  14.970  0.1187 -0.0094  0.4466
25798W        W42059   7.526  17.761   4.748 -0.0675 -0.1582 -0.0146
25799W        W42060  18.135   8.317  14.739 -0.1833  0.2400  0.1681
25800W        W42061  12.490  17.969  10.669 -0.0332  0.1781  0.1159
25801W        W42062   3.110  17.622  11.709 -0.1410  0.0835 -0.2419
25802W        W42063   9.750  12.991  14.949  0.0773 -0.1788 -0.0398
25803W        W42064  13.256  11.969   0.494 -0.0526  0.0772  0.2276
25804W        W42065  17.986  11.553  11.538 -0.0870  0.3206  0.2541
25805W        W42066   5.449   4.276   3.170  0.1829 -0.2731 -0.2444
25806W        W42067  15.610  16.038  10.847  0.0527 -0.4800 -0.2333
25807W        W42068  15.729  16.269   2.544  0.3786 -0.2955  0.1269
25808W        W42069   7.678   7.311   2.051 -0.0240  0.1914  0.1936
25809W        W42070  12.778  12.927   3.398  0.2837  0.1662 -0.0101
25810W        W42071   9.620  10.792   2.600  0.0605 -0.2385 -0.0049
25811W        W42072  15.652  17.593  15.110  0.3283  0.1131 -0.1477
25812W        W42073  10.742   6.375  12.913 -0.1645 -0.1277  0.0010
25813W        W42074  15.326   8.121  11.575 -0.1104 -0.3262  0.2705
25814W        W42075  10.941  11.110  15.403 -0.3574  0.2994  0.2312
25815W        W42076  16.246   0.756   3.285 -0.1776 -0.1017 -0.1393
25816W        W42077   0.439  15.933  13.536 -0.5754  0.1811  0.2296
25817W        W42078  13.698  11.900  12.474  0.0503  0.0584 -0.0875
25818W        W42079   1.431   8.379  16.009 -0.0823  0.0001  0.0359
25819W        W42080  16.586  13.465   2.373  0.1910 -0.0166  0.1893
25820W        W42081  10.381   6.947   1.148 -0.4101 -0.0429  0.1340
25821W        W42082   9.254  16.339   0.263 -0.2231  0.1317 -0.1095
25822W        W42083  12.594   8.285   3.313 -0.3647  0.0460 -0.2070
25823W        W42084  10.572   6.670   1.511 -0.1642 -0.1148 -0.2993
25824W        W42085  14.660  11.815   2.762  0.1990  0.0780 -0.1126
25825W        W42086   1.104  10.921   3.821 -0.2103  0.4289 -0.2779
25826W        W42087  13.818  10.151  10.998  0.3408  0.1079 -0.3577
25827W        W42088  13.709   2.652   0.178 -0.1264 -0.0110 -0.1937
25828W        W42089  15.739   2.367  11.923  0.5428 -0.0299 -0.1397
25829W        W42090   6.803  10.545   4.762 -0.0049  0.2286  0.3245
25830W        W42091   6.579   8.966  14.663  0.1937  0.1642 -0.1208
25831W        W42092   2.976  12.460   3.735  0.0867  0.1877 -0.0291
25832W        W42093  15.014  13.611  12.401 -0.0651  0.0918 -0.0027
25833W        W42094   6.558  12.574   2.369  0.0836 -0.2434 -0.1928
25834W        W42095   2.040   5.174   0.612 -0.1158 -0.3691  0.0774
25835W        W42096   1.464  13.810  14.802  0.1521 -0.0209  0.1823
25836W        W42097  14.646  13.325  10.675 -0.1484 -0.0650  0.1940
25837W        W42098   7.250   8.521   3.741  0.0558 -0.2946  0.0169
25838W        W42099  10.515   9.168   2.049 -0.2791  0.0560 -0.3453
25839W        W42100   0.041  15.081  14.996  0.0830  0.0229 -0.0323
25840W        W42101   6.874  11.876   3.984 -0.0511  0.2649 -0.0657
25841W        W42102  15.194   3.395  12.211 -0.0016  0.0677  0.0724
25842W        W42103  15.571  12.469   1.389  0.1131 -0.4475  0.0145
25843W        W42104  11.414  11.777   4.182 -0.1770  0.0925  0.2623
25844W        W42105  18.060  10.541   3.734 -0.1602 -0.3715 -0.3279
25845W        W42106   6.896  11.309  12.629  0.3420 -0.2631  0.3659
25846W        W42107   0.555  10.924   4.879 -0.2957 -0.0380 -0.0144
25847W        W42108  17.241   4.286   5.351 -0.0386  0.0347 -0.1239
25848W        W42109   3.478   5.587   1.074 -0.0534 -0.3326  0.0447
25849W        W42110   8.542  12.271   0.846  0.0501  0.0962 -0.3841
25850W        W42111  12.561   3.714   0.984  0.0378  0.0913 -0.0335
25851W        W42112  11.093   4.868   3.009 -0.1414 -0.0347 -0.1135
25852W        W42113  12.248   5.285  12.515 -0.1125 -0.3919 -0.0629
25853W        W42114   8.515  10.418   3.867 -0.0651 -0.1397 -0.3444
25854W        W42115   0.204  14.353  12.759 -0.0530  0.5566  0.3514
25855W        W42116   9.193  11.319  11.399 -0.0290  0.0055  0.1284
25856W        W42117  16.410  11.794  13.118 -0.2624 -0.2642  0.0246
25857W        W42118   6.231  17.153   3.422  0.0777  0.0832 -0.0626
25858W        W42119  12.016   9.335   2.184  0.1371  0.2158  0.4985
25859W        W42120  16.192  11.875  14.342  0.1365 -0.0510  0.1479
25860W        W42121   3.709   0.669  12.910  0.3484  0.1157 -0.0619
25861W        W42122   1.590  17.044   0.809 -0.1478 -0.0743  0.1301
25862W        W42123  10.078   6.540   1.248 -0.1236 -0.1814 -0.0558
25863W        W42124  16.432   2.258  13.516  0.0926  0.1428 -0.0488
25864W        W42125   7.053   5.676  14.511 -0.1276 -0.1096  0.3042
25865W        W42126  16.276  10.456  12.728  0.1510  0.2137 -0.1055
25866W        W42127   7.257   8.552   2.813  0.0630 -0.4038  0.0384
25867W        W42128  17.692   9.253   1.521  0.1038 -0.0417 -0.0306
25868W        W42129   8.289   9.538   3.887 -0.0129 -0.0078 -0.1945
25869W        W42130   3.563   8.852   5.683  0.1898  0.0915  0.2095
25870W        W42131   5.350   5.178  13.939  0.0791 -0.1609  0.1626
25871W        W42132  16.674   0.206  15.598 -0.1524 -0.0467  0.1059
25872W        W42133  10.794  14.142   0.259 -0.0996  0.0347 -0.2489
25873W        W42134   5.050  14.559  11.940  0.3169 -0.1735  0.0785
25874W        W42135  15.611   7.268   4.270 -0.2842 -0.3364  0.2005
25875W        W42136  17.785   2.426   1.620  0.0736  0.2046  0.3524
25876W        W42137  13.495  13.701   3.031  0.0290 -0.0791  0.0845
25877W        W42138  10.433  16.424  15.083  0.0142  0.1601  0.0164
25878W        W42139  14.027  11.288  13.393  0.2937 -0.0207  0.1762
25879W        W42140  17.481  14.778   1.411 -0.3780 -0.0461 -0.3145
25880W        W42141  14.898   8.791   4.499  0.0829  0.1606  0.1482
25881W        W42142   0.059   4.633  12.302  0.3679  0.1200 -0.1410
25882W        W42143   5.720  17.741  12.608 -0.0464 -0.1571  0.0788
25883W        W42144  13.476   3.865  14.124 -0.1335  0.3333  0.2090
25884W        W42145   7.922  14.895  14.859  0.1099  0.3516  0.1173
25885W        W42146  14.970  16.481   0.892  0.3322 -0.2698 -0.4908
25886W        W42147  12.510  14.638   0.395 -0.0338 -0.1545 -0.2878
25887W        W42148  17.430   5.074   0.372  0.1021  0.2959 -0.3012
25888W        W42149   9.458   2.076  13.457 -0.2231  0.0009  0.2320
25889W        W42150  17.768   2.548  14.335 -0.0493  0.2813 -0.0584
25890W        W42151   7.956  14.216  14.563  0.0333 -0.0980 -0.4935
25891W        W42152  12.294  15.774  14.622 -0.0111 -0.1239 -0.0334
25892W        W42153  12.333  10.339  13.792  0.0060  0.1443 -0.1011
25893W        W42154   9.534  13.217   3.905 -0.1633 -0.2599  0.0174
25894W        W42155   8.242  16.015  10.744  0.2270  0.1270 -0.0482
25895W        W42156   7.974   2.212  15.209  0.0212  0.1016 -0.0575
25896W        W42157   3.858   4.638  15.599 -0.0151  0.0586  0.2853
25897W        W42158  17.366  16.467  11.831 -0.0177 -0.0643 -0.2584
25898W        W42159   3.483   5.943   1.459 -0.1855  0.1199 -0.3268
25899W        W42160   9.677  10.709   1.266 -0.0955 -0.1733  0.2245
25900W        W42161   0.698   5.940   1.120  0.0718 -0.3172  0.0763
25901W        W42162   6.207   1.205   5.157  0.0238 -0.3463 -0.1369
25902W        W42163  12.377  18.337   3.887 -0.1954  0.1734  0.1369
25903W        W42164  18.252  14.607  13.330 -0.0083  0.0307 -0.1210
25904W        W42165   3.285  18.109  15.388  0.1626  0.2841 -0.0234
25905W        W42166   1.873   5.330   2.212  0.1506 -0.0401 -0.3634
25906W        W42167   1.793   1.130   3.785  0.0422 -0.0312 -0.0919
25907W        W42168   3.987   3.909  13.941 -0.2298 -0.3622  0.1435
25908W        W42169   6.657   1.968  13.933  0.1378  0.0829 -0.3445
25909W        W42170  13.856  11.037  11.116 -0.1332 -0.0667 -0.0536
25910W        W42171   1.665   4.699  14.220 -0.0166 -0.0359  0.4350
25911W        W42172  16.490   4.333  13.166  0.2312 -0.3001  0.4376
25912W        W42173  11.699   1.794  16.101  0.1232  0.1132 -0.0936
25913W        W42174   6.423  11.850  12.821  0.0541 -0.3112  0.4128
25914W        W42175   5.708  14.807  13.498 -0.1055 -0.0706 -0.0037
25915W        W42176   2.228   8.269   3.675  0.4136  0.1353  0.0847
25916W        W42177   1.160   1.988   2.540  0.2240 -0.0772 -0.2210
25917W        W42178   7.059  15.753  13.444 -0.0226 -0.3519 -0.1398
25918W        W42179   3.761  15.587  13.127  0.0083  0.0073  0.1845
25919W        W42180   4.640  17.269   6.172  0.1574  0.4422 -0.0390
25920W        W42181   9.102  15.918   0.590 -0.0404 -0.2094  0.0698
25921W        W42182   0.014  17.920   2.045  0.0060  0.0896 -0.2356
25922W        W42183   9.559  13.396   0.776 -0.2132  0.1155  0.2688
25923W        W42184  17.093  13.518  12.507 -0.0278  0.0101 -0.2414
25924W        W42185  11.850  12.222   3.518 -0.1901 -0.1378 -0.2523
25925W        W42186  16.195  11.980   2.439 -0.2138  0.0909  0.0946
25926W        W42187   5.158   4.873  13.538 -0.1662 -0.0489  0.2101
25927W        W42188  14.660   9.878   1.151 -0.3231  0.2772  0.1358
25928W        W42189   3.615  13.017   2.161  0.0950  0.2864  0.2683
25929W        W42190   4.203  15.406  15.720 -0.1132 -0.1537 -0.1066
25930W        W42191  16.869  12.601  11.561  0.4071 -0.1696  0.2031
25931W        W42192   2.053  12.384   5.494 -0.0085  0.2659 -0.1885
25932W        W42193  10.818  14.532   3.232 -0.2160  0.1793 -0.2638
25933W        W42194   7.365  12.216   5.419  0.2327  0.0108 -0.2105
25934W        W42195  16.571   3.666   3.374  0.0103 -0.1817  0.2272
25935W        W42196  17.702  12.671  11.894  0.0183 -0.0742 -0.0942
25936W        W42197   9.858   9.609  11.412 -0.0306  0.1682 -0.3905
25937W        W42198   8.905   8.520   3.205  0.0527 -0.0064  0.1396
25938W        W42199  15.873   9.213  11.566  0.1570 -0.3352  0.0945
25939W        W42200   2.474  17.685   3.907 -0.1231 -0.2417  0.1304
25940W        W42201  13.248   8.398  14.406 -0.2322  0.2563 -0.1062
25941W        W42202  13.539   7.373  15.734 -0.0211 -0.0024 -0.0641
25942W        W42203   2.971  11.075   0.728 -0.0977 -0.1495  0.0012
25943W        W42204   1.273   2.738  13.618 -0.0178 -0.0505 -0.1840
25944W        W42205  10.503   4.128   4.125  0.1153 -0.0008  0.2917
25945W        W42206  13.182  13.900  10.564  0.2008 -0.0113  0.0449
25946W        W42207  16.802   8.329  14.842  0.3713 -0.0315  0.0294
25947W        W42208  10.569   6.535  12.452  0.1006  0.2834 -0.1223
25948W        W42209  12.633   3.499   5.852 -0.0354  0.4871  0.3184
25949W        W42210   7.811   7.414   4.373  0.1224  0.0475  0.1447
25950W        W42211   8.298  14.222  14.126 -0.0967  0.0555 -0.1649
25951W        W42212   1.596   8.876  12.444  0.3628  0.0889 -0.0089
25952W        W42213  18.449   9.265  14.388 -0.2917 -0.0825 -0.2160
25953W        W42214  13.756   3.872  13.647  0.0082 -0.5229  0.2796
25954W        W42215   6.788   0.547   4.690  0.2440  0.0660 -0.2264
25955W        W42216   9.922  11.284  14.763  0.0301 -0.0603 -0.1207
25956W        W42217   1.258   0.347  13.955  0.0902 -0.0117  0.2862
25957W        W42218   2.395   8.600   2.598  0.2050 -0.0112 -0.2897
25958W        W42219  12.184   1.629   4.893  0.2337  0.1395  0.0176
25959W        W42220   1.348   4.845   1.695  0.0958 -0.0407  0.0929
25960W        W42221   7.954  10.108   3.680  0.4738 -0.5142 -0.1556
25961W        W42222   2.351   9.587   2.463  0.0715  0.1769  0.0550
25962W        W42223  13.843  14.316  13.551  0.4489 -0.1150 -0.1045
25963W        W42224   1.856   2.025   5.200  0.1022 -0.2012 -0.0760
25964W        W42225   9.139   0.409   4.714 -0.0429  0.2771  0.0224
25965W        W42226  10.013  17.644   4.499  0.0167  0.1175 -0.0972
25966W        W42227   4.276   5.020  13.336 -0.1732 -0.2928 -0.2042
25967W        W42228   6.390  12.775   2.900  0.0292 -0.0024 -0.0589
25968W        W42229   3.232  11.439  15.740  0.0292  0.2368 -0.1911
25969W        W42230   7.841  15.887  14.928 -0.1647  0.1302 -0.1066
25970W        W42231   9.746  10.223  14.594  0.0286  0.2166 -0.0747
25971W        W42232  17.247  17.121   0.406 -0.0150  0.0431  0.1561
25972W        W42233  13.191   6.756   5.015  0.2448 -0.0364  0.0027
25973W        W42234   8.446   2.488  14.429  0.0643 -0.0760 -0.2536
25974W        W42235   6.688  14.264   3.057  0.0758  0.0173 -0.3001
25975W        W42236  17.597  17.587   0.544 -0.0090  0.1842  0.1361
25976W        W42237   3.465   3.604   4.644 -0.2074 -0.0091  0.0060
25977W        W42238  17.332   8.672  14.204 -0.1597 -0.2321 -0.1781
25978W        W42239  17.060  11.674  13.520  0.0517  0.1539 -0.1171
25979W        W42240  16.203   3.554  11.087  0.1121  0.2213  0.1272
25980W        W42241  12.037  17.524   1.886  0.3277 -0.0623 -0.2134
25981W        W42242  15.785   6.143   0.349 -0.1997 -0.2267 -0.2087
25982W        W42243   1.146  13.954  15.199  0.1721  0.0622 -0.0591
25983W        W42244   8.524  13.411  12.977 -0.0319 -0.0204 -0.1681
25984W        W42245  17.676   6.590  13.628  0.3258 -0.0175  0.0310
25985W        W42246  10.509   4.980  14.415 -0.0042  0.0427  0.0061
25986W        W42247  17.986   9.228  15.271 -0.1719 -0.2939 -0.1060
25987W        W42248  10.430  16.816   4.639 -0.1131 -0.0500 -0.1609
25988W        W42249   9.456   5.664  10.495 -0.0043  0.0239 -0.2441
25989W        W42250   1.314  17.377  13.054 -0.0567  0.5968  0.2943
25990W        W42251   9.040   4.493   2.566  0.3683 -0.2240  0.0070
25991W        W42252  13.632   5.428   0.467 -0.2045 -0.0929  0.0090
25992W        W42253   2.857   6.634  11.703  0.1706 -0.0686  0.0208
25993W        W42254   5.649   1.462  14.106  0.0294  0.1285  0.1831
25994W        W42255   5.347  16.840   3.122  0.2730 -0.2205 -0.1723
25995W        W42256  16.834   0.692   3.959 -0.1504 -0.4033  0.0098
25996W        W42257   3.561  12.892   0.648  0.1161 -0.0008 -0.1619
25997W        W42258   7.937   7.296   6.279  0.0360 -0.0312 -0.0963
25998W        W42259  15.878   7.417  11.079 -0.1533  0.5077 -0.0226
25999W        W42260  12.107   3.529   5.011  0.0644 -0.0933 -0.1083
26000W        W42261   3.805  11.335  11.765 -0.3934  0.1403 -0.0863
26001W        W42262  14.593   7.307   2.864 -0.2988 -0.0003 -0.2387
26002W        W42263   8.148   0.787   1.205  0.0243 -0.0990  0.0408
26003W        W42264   8.856  10.563  13.712 -0.1480  0.5952 -0.0818
26004W        W42265   8.302  15.494   5.076  0.0188  0.0325 -0.0620
26005W        W42266  14.373  11.670  16.020  0.0474  0.3912 -0.0250
26006W        W42267   3.676   8.714  12.166 -0.0953 -0.5400  0.2941
26007W        W42268   8.362   9.620   2.272 -0.0240  0.1737  0.3401
26008W        W42269   6.200   2.131   4.895  0.0517  0.1992 -0.2992
26009W        W42270   9.971   9.516   3.783 -0.2995  0.1075  0.1890
26010W        W42271   1.481   7.216   5.004 -0.1272  0.0829  0.0473
26011W        W42272  14.951   2.639  15.105 -0.1479 -0.0851 -0.0853
26012W        W42273   6.315   5.494  15.625  0.1038  0.0412  0.3433
26013W        W42274  13.582   4.263   5.136  0.5151  0.0916  0.3847
26014W        W42275   1.415   6.646   0.565 -0.1990 -0.3289  0.0838
26015W        W42276   8.780  12.069   5.146  0.4089  0.1961 -0.0346
26016W        W42277  10.885  11.183  14.689 -0.0362  0.2977  0.1149
26017W        W42278   4.028   1.830   2.097 -0.0858 -0.1058  0.1814
26018W        W42279   2.213  14.362   0.610  0.2221 -0.2755  0.2001
26019W        W42280   6.811   1.330  15.731 -0.0452  0.5064 -0.0271
26020W        W42281  16.532  12.989  13.145  0.3354 -0.1972 -0.2256
26021W        W42282   2.190  16.649  12.541  0.1245  0.3706  0.1003
26022W        W42283   2.370   8.353   3.050 -0.0421 -0.1484 -0.0010
26023W        W42284   8.155  16.572   1.513  0.1048 -0.1923 -0.4161
26024W        W42285   7.523   2.521  11.898  0.1270 -0.0910  0.3836
26025W        W42286  14.379   7.588  15.456 -0.0499  0.1740  0.0833
26026W        W42287   3.839   6.112  14.338  0.1315  0.1268  0.0598
26027W        W42288   8.636   4.098   2.409  0.1047 -0.1026 -0.1662
26028W        W42289  12.533  14.288   3.232 -0.1736 -0.4729 -0.1557
26029W        W42290   2.431  14.004  11.436 -0.2966  0.1011  0.2170
26030W        W42291   9.850   9.312  14.707  0.1532 -0.4458  0.0539
26031W        W42292   1.582  11.597   4.004 -0.0254  0.2739 -0.3779
26032W        W42293  17.028  13.165   2.347  0.1625 -0.0468 -0.2611
26033W        W42294  17.768   0.847   4.955  0.2564  0.1501  0.0634
26034W        W42295   5.259   9.105   1.139 -0.2883 -0.1216  0.0004
26035W        W42296  18.167  13.063  15.005 -0.1059 -0.0079 -0.1713
26036W        W42297  11.819   6.031   6.226  0.3151  0.0092  0.0845
26037W        W42298   8.823   9.874   6.425  0.0014 -0.2493 -0.4323
26038W        W42299  17.089  18.275   0.304  0.1938 -0.1973 -0.2865
26039W        W42300   0.421   0.454   1.116 -0.2546 -0.1311 -0.2100
26040W        W42301  13.876   6.303  13.917 -0.1624  0.0249 -0.1361
26041W        W42302   1.253  11.901  13.883 -0.2416  0.1910  0.1248
26042W        W42303   4.212  18.409  15.561  0.1494 -0.1416 -0.3296
26043W        W42304  10.520   6.772  12.011 -0.1305  0.1599  0.0049
26044W        W42305   4.052   7.682   6.173 -0.0710  0.0671  0.1778
26045W        W42306  18.292   7.177   5.229  0.1789  0.0384  0.0736
26046W        W42307   8.981   8.707  16.100  0.2664  0.1437 -0.1856
26047W        W42308   6.978   0.592   1.789 -0.3375 -0.0045 -0.5210
26048W        W42309  16.907  16.784   0.494  0.1308 -0.3583 -0.2054
26049W        W42310   1.092   2.638   4.402  0.0407  0.1531 -0.0182
26050W        W42311  11.178  15.754  15.146 -0.1661 -0.2169  0.0350
26051W        W42312   1.695   5.001   0.971  0.0883  0.0274 -0.0366
26052W        W42313  17.444   1.899  12.239  0.1535  0.0617 -0.0171
26053W        W42314   3.935   9.252   0.364  0.3772 -0.7385  0.0386
26054W        W42315   3.458   0.558   4.768  0.0242  0.2653  0.2713
26055W        W42316  10.691  10.087  11.532 -0.0373 -0.0343 -0.1519
26056W        W42317  14.298   7.067   5.365  0.2686  0.0758  0.0372
26057W        W42318  11.297   5.429   4.480  0.0082  0.1455  0.2044
26058W        W42319  10.593  13.962   3.397  0.3679  0.0845  0.2244
26059W        W42320  13.129   6.774   1.969  0.4052 -0.0369  0.1936
26060W        W42321  16.775  13.807  15.324  0.1705 -0.0634 -0.0012
26061W        W42322   7.074   6.981   3.433 -0.0455 -0.0472  0.0544
26062W        W42323   2.249  12.825   0.497 -0.4312 -0.1730  0.4489
26063W        W42324  15.459   8.198  15.607  0.0315  0.0501  0.5278
26064W        W42325   6.568   9.749   3.888  0.1937 -0.0143 -0.3146
26065W        W42326   3.845  17.122  13.219 -0.0655 -0.1024 -0.1785
26066W        W42327   1.494   2.368   4.310  0.0503  0.0533 -0.2163
26067W        W42328  14.417  18.088  12.208  0.0874  0.2001 -0.2251
26068W        W42329  17.827  16.239  15.188  0.2468  0.0970  0.2204
26069W        W42330  16.045  16.240  11.118 -0.0949  0.0375 -0.0966
26070W        W42331   2.648   5.079  11.922  0.1347 -0.0330 -0.2346
26071W        W42332   2.768  13.113   5.577  0.0813 -0.1905 -0.0058
26072W        W42333  13.864  17.259   4.571 -0.1061  0.3947  0.1330
26073W        W42334  14.749   6.511  13.476  0.0820  0.3543 -0.0094
26074W        W42335   3.509   2.385  11.856  0.0619  0.0147 -0.1392
26075W        W42336   6.511   8.470   0.671  0.2514 -0.1081  0.0625
26076W        W42337  18.318  15.587  12.334  0.2410 -0.0078  0.1268
26077W        W42338  17.931   2.082  13.465  0.0374 -0.1063 -0.0681
26078W        W42339  13.522   5.020   1.236 -0.1626  0.1490 -0.1622
26079W        W42340  17.600  12.666  13.747 -0.1272 -0.0038 -0.1467
26080W        W42341  12.597   7.991   0.254 -0.1263  0.2877  0.1163
26081W        W42342  13.393   7.376  14.320  0.1349 -0.2129 -0.1082
26082W        W42343   3.428   5.286   5.739  0.0323 -0.2822  0.0180
26083W        W42344   3.333  11.329   1.162 -0.1337 -0.4813  0.1413
26084W        W42345   9.549  11.025  12.167 -0.3894  0.1124 -0.3328
26085W        W42346  17.553  13.044  11.304 -0.3439  0.2226  0.1290
26086W        W42347  11.489  16.011   0.521 -0.0710 -0.0649  0.1537
26087W        W42348   6.556  15.823  12.353 -0.1233 -0.0544  0.2564
26088W        W42349  14.539   9.749  11.964  0.3111 -0.1881 -0.0917
26089W        W42350  13.588   9.229  15.012  0.0122 -0.1696 -0.0270
26090W        W42351   1.971   4.526   5.056 -0.1922  0.0996  0.0841
26091W        W42352   5.318   7.146  11.098  0.0090 -0.1098  0.0849
26092W        W42353  13.225  14.140   0.471  0.1825 -0.4148  0.0301
26093W        W42354   0.792   4.107   1.509  0.1449  0.2630  0.0026
26094W        W42355   6.474   3.286  11.431  0.3570 -0.4923  0.0332
26095W        W42356  10.710  13.418   1.851 -0.0573 -0.2769  0.0631
26096W        W42357   7.680   9.581  13.837  0.0829 -0.0963  0.0799
26097W        W42358  17.050   7.236   1.682 -0.2046 -0.3423 -0.0840
26098W        W42359   7.188  16.589  12.887  0.0603  0.0227  0.0295
26099W        W42360  17.019   7.501  14.634  0.0553  0.2343 -0.1000
26100W        W42361   8.252   2.833   5.285  0.1261  0.0937 -0.3612
26101W        W42362   0.876   9.516   2.812  0.1857 -0.5793  0.3613
26102W        W42363   1.400  17.970  15.662  0.1211 -0.1202 -0.1002
26103W        W42364   5.092  10.392   4.570 -0.0616 -0.1389  0.3312
26104W        W42365   0.372  17.247  10.951 -0.0678 -0.0141 -0.1557
26105W        W42366   4.106   5.984  12.168  0.1431 -0.1794 -0.0560
26106W        W42367  15.710  10.844   4.645  0.0342 -0.1465 -0.0289
26107W        W42368  17.761  12.648  15.104 -0.1328  0.3412  0.0721
26108W        W42369   1.035   3.369  12.812  0.0045  0.3166  0.2164
26109W        W42370   7.148  17.764   3.331 -0.0423  0.0136 -0.1723
26110W        W42371   8.151   2.637   3.918 -0.2190 -0.2210 -0.2329
26111W        W42372  13.194  17.341   4.665  0.0214  0.1134  0.3788
26112W        W42373  15.716  11.563  11.696 -0.0253 -0.1044  0.0987
26113W        W42374  11.185  11.228  13.949  0.0692 -0.3412 -0.3071
26114W        W42375  10.592  13.047   2.640  0.1985  0.2393 -0.0482
26115W        W42376  12.569  16.146  13.237  0.0478  0.1504  0.3363
26116W        W42377  10.464   1.031   4.638  0.3221 -0.0629 -0.2251
26117W        W42378  15.067   4.618   2.738 -0.1118 -0.3806 -0.0696
26118W        W42379  10.893   2.401   3.081 -0.0441  0.2251 -0.1566
26119W        W42380   4.475  17.185  13.174 -0.0854  0.2066  0.0273
26120W        W42381   0.641   7.454   3.597 -0.1710 -0.0691 -0.1725
26121W        W42382  15.417   5.429   2.737 -0.2803 -0.0776 -0.3360
26122W        W42383   7.003  15.740  14.391 -0.1478  0.1444 -0.0284
26123W        W42384  15.720  15.211  10.258  0.2121  0.3252 -0.2211
26124W        W42385   4.995   2.127  12.227 -0.1153 -0.0605 -0.4292
26125W        W42386   8.688  16.830   2.876 -0.1435 -0.2555 -0.0938
26126W        W42387  12.381  12.893  11.585  0.2803 -0.1974  0.2043
26127W        W42388   4.541  17.240  14.410 -0.1923 -0.3567 -0.0806
26128W        W42389   0.379  14.043   4.789 -0.1505 -0.1630  0.0804
26129W        W42390  14.859   6.386   3.777 -0.5027  0.1474  0.1713
26130W        W42391   7.434  10.447   6.393  0.1170  0.0867  0.2697
26131W        W42392   9.429  12.644   2.681 -0.0046 -0.0259 -0.0767
26132W        W42393   4.882   9.874   2.486 -0.2719 -0.0701 -0.1430
26133W        W42394  17.027  17.715  14.475  0.0020 -0.0019  0.0047
26134W        W42395   3.175  13.078   0.398 -0.2183 -0.0982 -0.0887
26135W        W42396  16.650   3.952  11.727  0.6540  0.3647 -0.1532
26136W        W42397   1.818  14.175  11.540  0.1273  0.0913  0.0750
26137W        W42398   4.965  14.339   0.818 -0.0764  0.0130 -0.0607
26138W        W42399  10.430   7.661   2.906  0.1636 -0.1461 -0.8320
26139W        W42400   3.199  13.998  15.073 -0.0836 -0.0863 -0.1619
26140W        W42401   7.865   0.713   0.282  0.3515  0.0932 -0.0807
26141W        W42402  13.353   9.657  16.038 -0.2092  0.0839 -0.0120
26142W        W42403  11.640   4.629  12.584  0.0884  0.3491 -0.1117
26143W        W42404  14.684  15.478  11.328  0.1667 -0.0227  0.0824
26144W        W42405   9.629   5.293  15.713  0.0118 -0.0103 -0.0164
26145W        W42406  17.038   8.367   4.352  0.1132  0.3688  0.0852
26146W        W42407  15.214   4.067   0.654 -0.0462  0.0606  0.1927
26147W        W42408  16.229   6.322  10.449 -0.0639  0.0674  0.5378
26148W        W42409  11.954  11.416   1.956 -0.1311 -0.2459 -0.0730
26149W        W42410   1.339  10.571   2.801 -0.0038  0.0754 -0.1117
26150W        W42411   1.254  11.102   2.817  0.1068 -0.0337 -0.2127
26151W        W42412   8.193   7.504  15.555  0.1396  0.2008 -0.1474
26152W        W42413  10.463   1.272   3.717 -0.1876  0.5479 -0.2028
26153W        W42414   7.107  13.150   4.864  0.0666 -0.2227  0.1063
26154W        W42415   5.639  12.612   4.035  0.2921  0.1290 -0.1701
26155W        W42416   0.136  13.549   4.996  0.1364  0.0244 -0.2758
26156W        W42417   9.088   7.709   5.664  0.0407 -0.0345  0.2565
26157W        W42418  14.598   1.947   2.558  0.0111  0.2432 -0.1187
26158W        W42419  17.224  17.230  15.433 -0.2093  0.1547  0.1076
26159W        W42420  13.156   2.022  15.719  0.2515 -0.2210 -0.1914
26160W        W42421   8.440   3.752   3.960 -0.1743  0.2188  0.0262
26161W        W42422   2.119  15.987  14.849  0.1300 -0.0621 -0.2261
26162W        W42423   4.906  10.299   5.158  0.0895  0.2822  0.1810
26163W        W42424   8.262   6.747  13.213  0.1654  0.2643  0.3428
26164W        W42425  17.934   8.273   2.963  0.0695  0.0311 -0.0169
26165W        W42426   8.033   9.699  16.016 -0.2048 -0.0036  0.1605
26166W        W42427   0.046  10.147  13.853 -0.3551 -0.0121 -0.3612
26167W        W42428   1.084  12.958  14.784  0.3000 -0.0377  0.2006
26168W        W42429  14.176   2.122   2.163 -0.2130 -0.0096 -0.0229
26169W        W42430  10.110   2.192   3.672 -0.2170 -0.1527  0.0827
26170W        W42431  17.319  16.002   1.415 -0.0429  0.0554  0.2162
26171W        W42432   5.597   7.082  11.851  0.0514  0.5246 -0.0598
26172W        W42433   6.948   0.969   0.647  0.1173  0.1873  0.2008
26173W        W42434  11.601   3.803   4.501 -0.1327 -0.0544 -0.4050
26174W        W42435   2.426   4.122   0.069  0.2651 -0.1173  0.2557
26175W        W42436   8.613   4.004  14.307  0.3807 -0.0073  0.0803
26176W        W42437   3.034  13.952  14.641 -0.2588 -0.2173 -0.0772
26177W        W42438   2.122   7.348   5.259 -0.4153 -0.0111  0.1024
26178W        W42439   5.342   1.896   1.791  0.2208  0.2637 -0.1498
26179W        W42440  17.061  17.419   0.752  0.0773 -0.2355  0.2874
26180W        W42441   9.060   3.165   5.076 -0.1689  0.0120 -0.4315
26181W        W42442  13.706  11.683   1.068 -0.0004  0.3248 -0.1499
26182W        W42443   5.969   9.303   6.079 -0.3749 -0.1569 -0.1125
26183W        W42444  11.936  18.030  14.382  0.1463  0.3051  0.1611
26184W        W42445  14.886  13.821   1.647  0.2849 -0.1333  0.0911
26185W        W42446   5.563   5.722  14.078  0.0806 -0.1173  0.0368
26186W        W42447   6.057   2.655  13.648 -0.0065 -0.2669 -0.0427
26187W        W42448  17.213  14.470  11.503 -0.0882  0.1052 -0.0263
26188W        W42449  10.838  12.265  14.176 -0.1094 -0.3645 -0.1876
26189W        W42450  13.029   1.233  15.328  0.0862  0.2188 -0.1189
26190W        W42451   1.251  17.783   5.399  0.1480  0.0514  0.2285
26191W        W42452  18.404   1.988   0.810  0.0671 -0.0637 -0.2730
26192W        W42453   4.563   5.483  12.921  0.1088  0.0062  0.0300
26193W        W42454  11.332   6.736   2.236 -0.0188 -0.0300  0.2979
26194W        W42455  11.549   0.159  14.823  0.0957 -0.1936  0.1185
26195W        W42456  15.876   1.033   0.917 -0.1127 -0.0395  0.2951
26196W        W42457   3.185  10.511   2.307  0.3891 -0.0972 -0.1155
26197W        W42458   1.075  17.953  14.323  0.0919  0.1471  0.0945
26198W        W42459   3.744   3.755  14.635  0.3741  0.1356  0.0298
26199W        W42460   4.245  12.871   6.453 -0.1372 -0.2275 -0.0080
26200W        W42461   1.458   7.405   2.200  0.1554  0.2485  0.1248
26201W        W42462  17.249   3.559  12.838 -0.3369 -0.0283 -0.2454
26202W        W42463  11.576  17.851  11.642  0.3968 -0.1213 -0.0558
26203W        W42464   3.940   8.078   2.276  0.1505 -0.1097  0.3565
26204W        W42465  15.274  10.623   1.841  0.1708 -0.0911  0.3622
26205W        W42466   0.537   9.213  15.428  0.1688 -0.4524 -0.0208
26206W        W42467  16.374  16.435   2.235  0.1143  0.0475 -0.0415
26207W        W42468  17.561   7.826  13.757 -0.0817  0.0363  0.2216
26208W        W42469   6.912   8.921   0.065  0.3338  0.0704 -0.2959
26209W        W42470  16.105  14.204   1.932  0.2146 -0.0158 -0.0334
26210W        W42471  17.602  10.205  13.897  0.1296  0.1030 -0.1783
26211W        W42472   0.873  10.742   2.781  0.0839  0.0879  0.0879
26212W        W42473   7.420  13.127   1.298  0.1314  0.1170 -0.1598
26213W        W42474  18.115   5.232  15.287 -0.0183  0.1157  0.2578
26214W        W42475  11.941  15.206  10.672  0.1904 -0.0366  0.1385
26215W        W42476  10.012   3.440  14.126 -0.1656  0.0079  0.0788
26216W        W42477   0.410  14.229  11.346  0.2701  0.2564 -0.1259
26217W        W42478   7.339   6.550  12.265  0.1040  0.3036 -0.2261
26218W        W42479  18.000   1.070  10.018  0.0182  0.3149  0.1487
26219W        W42480   5.241  16.621   5.686 -0.1055  0.0191 -0.0817
26220W        W42481   0.586   1.728   1.597  0.1477 -0.1779  0.4757
26221W        W42482  14.090   2.063   3.343 -0.1335 -0.0388 -0.4340
26222W        W42483   6.830  11.617   1.418 -0.0322 -0.2257  0.0531
26223W        W42484   4.985  17.288  11.807  0.0446 -0.1620 -0.1722
26224W        W42485   3.295  12.908   1.677 -0.0459 -0.2822  0.0787
26225W        W42486   0.788  18.293  13.561  0.1427 -0.0769 -0.0690
26226W        W42487  10.413   2.965  14.408  0.2554 -0.0335  0.1067
26227W        W42488   2.143   3.235   2.471 -0.0259 -0.1143 -0.0508
26228W        W42489   3.446  15.735   2.403  0.0357  0.2114 -0.0266
26229W        W42490  13.648   5.528   2.683  0.1024  0.0268 -0.1307
26230W        W42491   3.074   5.050  11.656 -0.2309  0.0270  0.1346
26231W        W42492   8.610  14.337   3.823  0.2446 -0.0035  0.1454
26232W        W42493  12.353   1.035   0.928 -0.0907 -0.1311  0.1875
26233W        W42494   8.465  10.355  12.410 -0.0060 -0.1932 -0.1399
26234W        W42495  17.965   2.240  12.271 -0.0055  0.1508 -0.1625
26235W        W42496  14.276  10.514   0.588  0.0729 -0.3414  0.0133
26236W        W42497  12.539  10.057   1.347 -0.2586  0.3537  0.0096
26237W        W42498   0.354  11.756   2.663  0.0792  0.0299 -0.0521
26238W        W42499   4.687  13.611   4.362 -0.2445  0.0245 -0.0639
26239W        W42500  15.413   9.450  14.757 -0.1581  0.1356  0.1191
26240W        W42501   2.877  16.065  13.848 -0.1976 -0.0673 -0.1784
26241W        W42502   5.799  18.260   4.567  0.1458  0.0442 -0.2017
26242W        W42503  17.129  13.364   0.929 -0.2266 -0.0837 -0.2188
26243W        W42504   6.171  10.486   2.725  0.2313  0.0715 -0.0541
26244W        W42505  11.931  17.880   2.279 -0.2056 -0.0886  0.2245
26245W        W42506   1.251   5.686   5.642 -0.1804 -0.5060  0.2849
26246W        W42507   9.553   4.565   6.182 -0.0324  0.2919 -0.3328
26247W        W42508  12.263  13.027   5.769  0.0569  0.1492  0.2359
26248W        W42509  16.327  18.012  16.001  0.0067 -0.0490 -0.0065
26249W        W42510   0.567   2.405   0.357  0.3537  0.0323  0.3129
26250W        W42511   8.796  10.592  14.763  0.0250 -0.0038 -0.2280
26251W        W42512  17.635  14.549   2.342 -0.0954  0.0854 -0.0345
26252W        W42513   3.994   4.613   3.493  0.2125 -0.2758 -0.1028
26253W        W42514   2.681   1.311  11.607  0.0203  0.0957  0.1163
26254W        W42515  14.440  12.103   2.409  0.2161  0.1278  0.2579
26255W        W42516  10.337   8.264   5.466  0.0366  0.5873 -0.1236
26256W        W42517  14.469   0.138   3.464  0.1280 -0.0742  0.0625
26257W        W42518  13.411   6.385  13.736  0.0627 -0.0723 -0.0731
26258W        W42519   8.807   3.520   3.684 -0.1883 -0.3284  0.3310
26259W        W42520   2.453   2.428   5.623 -0.0100 -0.2886 -0.3485
26260W        W42521  13.383   2.600  15.511 -0.0993 -0.1918  0.0284
26261W        W42522   2.945  14.511   3.426  0.0165 -0.2519 -0.1485
26262W        W42523  16.955  15.808  10.689 -0.1188  0.1906  0.0977
26263W        W42524   3.684   6.160  13.758  0.0379 -0.1393  0.0569
26264W        W42525   7.355   2.433   3.962  0.1963 -0.0746 -0.0817
26265W        W42526   2.107   3.546  14.441 -0.5503  0.0079 -0.1230
26266W        W42527   2.568  10.068   0.573 -0.0581  0.0535 -0.1791
26267W        W42528  12.674  14.719   3.510 -0.2662  0.0498 -0.0255
26268W        W42529   8.223   5.649   5.473  0.0398  0.1671  0.0700
26269W        W42530   6.520   7.569   1.058  0.2399  0.0758 -0.1657
26270W        W42531  11.332   6.265   4.374  0.1344  0.0036  0.3542
26271W        W42532  11.010   7.107  14.957  0.3485  0.0673 -0.0417
26272W        W42533   4.351   6.901  11.870  0.2329  0.2352  0.2653
26273W        W42534  12.428  12.820  15.157 -0.1783  0.0035 -0.0186
26274W        W42535   1.322   2.871  14.413 -0.0705 -0.0645 -0.0961
26275W        W42536  12.402  18.265  11.193 -0.4179  0.1635  0.1120
26276W        W42537  15.485   0.786  13.682 -0.1687  0.1545  0.0363
26277W        W42538   3.804  12.286   5.562  0.1577  0.0872  0.0745
26278W        W42539   5.822  13.987   0.892 -0.2400  0.0752  0.0199
26279W        W42540  15.219  10.002   2.520  0.0394 -0.1677 -0.0557
26280W        W42541   9.252  12.432  11.146 -0.2842  0.1835  0.0170
26281W        W42542   1.195   7.876   2.034 -0.0695 -0.1099  0.3579
26282W        W42543   9.108   3.827  13.606  0.2611  0.4388 -0.0564
26283W        W42544  15.087  10.056   4.590 -0.0290  0.1527 -0.0881
26284W        W42545   4.100   9.170   4.806  0.0682  0.2620 -0.1508
26285W        W42546  10.190   4.045   3.667 -0.1957  0.0266 -0.2171
26286W        W42547   7.706   3.081   5.723  0.0460  0.2139 -0.0432
26287W        W42548   1.975  17.715  14.236  0.0857  0.0267  0.0765
26288W        W42549  16.871   2.074  13.772 -0.0835 -0.4560 -0.2282
26289W        W42550  13.193   4.572  13.181  0.4713 -0.4407 -0.1475
26290W        W42551   5.063   0.023   1.894 -0.0281 -0.0227 -0.1333
26291W        W42552  17.413  14.206  14.158 -0.2661  0.1546  0.1060
26292W        W42553   9.025   6.695  14.173 -0.1794  0.2562  0.0743
26293W        W42554   4.988  12.895   5.228  0.1919 -0.0049 -0.3249
26294W        W42555   5.907  16.193  14.868  0.1849 -0.0608 -0.3230
26295W        W42556   5.673   2.899  12.854 -0.0530 -0.0743  0.1092
26296W        W42557  14.064  11.930   2.698  0.0496  0.0397 -0.3321
26297W        W42558   6.971   8.354  16.060  0.0482 -0.1654  0.1999
26298W        W42559  13.558  10.306   2.450 -0.1944 -0.3288  0.0402
26299W        W42560  13.477   0.976   4.677 -0.1123  0.0899  0.0789
26300W        W42561  18.229  12.862  11.079 -0.0130  0.2991  0.0774
26301W        W42562  13.754  16.180   1.376 -0.2315  0.5117  0.0195
26302W        W42563  13.887   1.633   3.487 -0.1201  0.2699  0.1222
26303W        W42564   3.721   1.206  15.508 -0.2426  0.0298  0.1120
26304W        W42565  17.481  13.044   5.381  0.0594  0.0906 -0.1431
26305W        W42566  12.191   1.093   4.847  0.3613  0.3021 -0.3090
26306W        W42567   1.461   2.774   5.518 -0.0650 -0.0197  0.0332
26307W        W42568   9.210   0.879  11.842  0.0375  0.1227 -0.2336
26308W        W42569   2.453  16.475   3.056  0.0221 -0.4035 -0.3825
26309W        W42570  15.005  18.331  12.983 -0.2518 -0.0489  0.0750
26310W        W42571   2.581  10.778   3.079  0.2132  0.1120  0.3309
26311W        W42572   6.195  10.853   1.533  0.0978  0.0033  0.0319
26312W        W42573   9.470   5.813  15.820  0.0319 -0.0080 -0.1552
26313W        W42574  17.974  10.162   5.155 -0.1549  0.2546  0.0633
26314W        W42575  14.520  16.724  12.621  0.0431  0.1491 -0.0564
26315W        W42576  17.673   3.510  13.648  0.2361 -0.0060  0.2038
26316W        W42577   9.455  14.257  12.024 -0.1385 -0.2505  0.0911
26317W        W42578   1.609  12.390  11.185 -0.1771 -0.1448 -0.0799
26318W        W42579   6.390  18.344  13.891  0.1075 -0.5445  0.0644
26319W        W42580  15.064   3.494   4.197 -0.1005 -0.1603  0.0706
26320W        W42581   9.261   6.043  12.418  0.0064 -0.0090  0.0903
26321W        W42582  13.495  14.617  14.585 -0.0122 -0.1241 -0.1278
26322W        W42583  13.513   3.834   0.405 -0.1890 -0.0526 -0.1594
26323W        W42584   9.310  10.493  14.726 -0.0496 -0.0223  0.0276
26324W        W42585   9.413  14.724   0.059  0.1635 -0.2134 -0.1289
26325W        W42586  16.950  15.298  10.893  0.3159  0.0667  0.0398
26326W        W42587   0.559  17.430   1.597  0.0892 -0.1335  0.0572
26327W        W42588  12.688   6.534   1.616 -0.1152  0.0679 -0.1182
26328W        W42589   4.336   4.567   1.255 -0.0246 -0.0679 -0.1726
26329W        W42590   8.664  16.630  14.463  0.0093  0.0148 -0.2017
26330W        W42591   1.418  16.490   0.744 -0.0103  0.0238 -0.0471
26331W        W42592  15.624  13.842  10.883  0.1063  0.2831  0.0139
26332W        W42593   1.995   7.142  13.205 -0.0476  0.1426 -0.1218
26333W        W42594  10.514   6.240   4.579 -0.1279  0.0256  0.1192
26334W        W42595   7.320   4.960  12.472 -0.0257 -0.0304 -0.0116
26335W        W42596  15.770  10.719   0.342  0.1225 -0.1274  0.1836
26336W        W42597  15.373  17.318   0.655  0.1635  0.0168 -0.0717
26337W        W42598  13.054   1.407  13.942 -0.0556 -0.1537  0.3354
26338W        W42599   8.022  14.815   4.909  0.0513  0.0616 -0.1224
26339W        W42600  15.659  12.494   5.320  0.0984 -0.0833 -0.1369
26340W        W42601  11.070   3.247   4.160 -0.3221 -0.2374  0.3728
26341W        W42602   1.000  14.489   1.498  0.1394  0.1351 -0.0121
26342W        W42603   5.317   1.461   2.995  0.0467  0.1470  0.0347
26343W        W42604   4.888  14.924  11.531 -0.2163 -0.2009 -0.1026
26344W        W42605   1.247  15.360  12.816  0.0029  0.0932 -0.1920
26345W        W42606   4.375   8.580   2.687  0.0512  0.2855  0.0038
26346W        W42607  10.045  16.534   1.399  0.0154  0.1155  0.0342
26347W        W42608   0.569   2.482   2.227 -0.0671  0.2758 -0.0083
26348W        W42609   3.291   7.132  15.498 -0.1245  0.1323 -0.0255
26349W        W42610  14.455   8.182   1.695  0.1468 -0.0036 -0.1044
26350W        W42611   2.506  17.194  15.799 -0.2103  0.0425 -0.0871
26351W        W42612  11.384   5.890   6.053 -0.3482 -0.0428  0.0387
26352W        W42613   0.410  16.400  12.843  0.0188 -0.1185 -0.2047
26353W        W42614  10.091   5.612   2.224 -0.0717  0.0017  0.4252
26354W        W42615  13.089  15.193   0.404  0.0264 -0.4343  0.0882
26355W        W42616   4.734  15.185  15.672  0.0562 -0.2620  0.0245
26356W        W42617   7.865   8.133  12.894 -0.0449  0.1504  0.0849
26357W        W42618   1.684  17.614   3.421  0.0891 -0.2030  0.0815
26358W        W42619   7.407   3.024   4.806  0.1126  0.4938 -0.0403
26359W        W42620   8.555  10.350   5.768 -0.0308  0.0659 -0.0234
26360W        W42621  18.302  11.346   5.690 -0.0668  0.0474  0.5454
26361W        W42622   1.983  14.419   5.703  0.2642 -0.0481  0.3880
26362W        W42623  16.104   9.702   2.686  0.1837  0.2019 -0.0081
26363W        W42624  15.903  13.597  13.926  0.3474 -0.0361 -0.1122
26364W        W42625  15.991   1.304  14.159 -0.0115 -0.1462  0.1108
26365W        W42626   7.821   8.488   0.397 -0.1452 -0.0738  0.0240
26366W        W42627  14.746   4.995   5.313  0.2773  0.2347  0.2267
26367W        W42628   6.841   6.592  14.907 -0.1606 -0.0201  0.0901
26368W        W42629   9.018   6.482   2.277  0.0794  0.0767  0.0647
26369W        W42630   2.628   1.029   4.541  0.1286  0.0108 -0.0261
26370W        W42631  10.479   4.399  14.221  0.2546 -0.0810 -0.2906
26371W        W42632   5.033  15.862   4.684 -0.1731 -0.0975 -0.1590
26372W        W42633   2.919  12.516  13.082 -0.1839 -0.0077 -0.0041
26373W        W42634   9.765   9.397  13.731 -0.0297 -0.2807  0.1468
26374W        W42635  11.404  18.322   9.742  0.1943  0.0475  0.1905
26375W        W42636  14.079   4.348  14.830 -0.1385  0.2115 -0.2370
26376W        W42637  14.096   0.293   4.963 -0.0101 -0.2110  0.0358
26377W        W42638   5.583  16.641   1.221 -0.0083 -0.3118 -0.0053
26378W        W42639  13.559   2.182   3.409 -0.0303  0.1509  0.3550
26379W        W42640   9.594  15.054   4.533 -0.2093 -0.0546  0.0277
26380W        W42641   5.404   0.615   3.273 -0.0416 -0.0164  0.0776
26381W        W42642  11.574  18.233  13.260  0.2881 -0.0723  0.2282
26382W        W42643   0.902  13.661  10.502  0.0073  0.0529  0.3769
26383W        W42644   6.671   4.495  14.631  0.1660  0.1458 -0.0958
26384W        W42645   2.999   7.706  15.291  0.0446  0.0013 -0.2676
26385W        W42646  12.973  18.366   3.890 -0.0385 -0.0277 -0.1246
26386W        W42647   8.671   4.846   3.305  0.2479 -0.1375 -0.3740
26387W        W42648   3.784  12.048   5.004  0.1610 -0.0696 -0.1494
26388W        W42649   2.347  18.135   1.219  0.1679  0.4319 -0.0219
26389W        W42650  16.808  14.716  10.745 -0.0056  0.1500  0.1592
26390W        W42651   8.510  12.051   2.705 -0.0833  0.2193  0.0100
26391W        W42652   6.160  15.968   4.131  0.0360 -0.0425 -0.0613
26392W        W42653   7.223  18.316   1.698 -0.2172 -0.0974  0.1398
26393W        W42654  13.996   2.477   3.593  0.1112 -0.1287  0.1315
26394W        W42655  10.883   9.094  11.825 -0.0634 -0.0876 -0.0979
26395W        W42656  13.573  13.103  13.379 -0.0781 -0.2142  0.0590
26396W        W42657   8.549   1.058   2.412  0.3186 -0.0945 -0.0581
26397W        W42658   7.498   6.631   4.925 -0.1398  0.1630  0.1073
26398W        W42659   7.322   7.427   5.132 -0.0128  0.0353 -0.3196
26399W        W42660   5.401   3.385  13.168  0.2044 -0.0667  0.0825
26400W        W42661  16.262   9.878  15.833 -0.0284 -0.2540  0.0398
26401W        W42662  17.432   1.795   3.161 -0.3224 -0.1111  0.3437
26402W        W42663  16.349  11.910   5.676  0.0269 -0.0611  0.0049
26403W        W42664   6.364  15.983  15.736 -0.1264 -0.0176  0.0018
26404W        W42665   2.134   4.833   3.301 -0.0231  0.1328 -0.3572
26405W        W42666   2.836   7.066  11.406 -0.0978 -0.1645 -0.0705
26406W        W42667   3.905  13.457  13.695 -0.1148 -0.1062  0.4004
26407W        W42668   7.963   2.149   1.865 -0.0365 -0.1316 -0.0947
26408W        W42669  15.603   6.498   2.212 -0.0307  0.3879 -0.1861
26409W        W42670   6.683  18.048   3.293 -0.2132 -0.0283  0.3074
26410W        W42671  13.704   7.114  12.592 -0.2239 -0.1378 -0.1239
26411W        W42672   7.287  16.220   0.541 -0.1172 -0.1317 -0.0810
26412W        W42673  10.274  10.737   1.768  0.0699  0.0268  0.0543
26413W        W42674  17.651  11.775  11.929  0.3882  0.1026  0.0746
26414W        W42675  16.690  15.772  10.304  0.0839  0.2159  0.3378
26415W        W42676  10.686   3.803   5.796 -0.3658 -0.1790  0.0428
26416W        W42677   9.907  15.249   0.028 -0.0202  0.0086  0.0291
26417W        W42678   4.480   3.341   4.012  0.0899  0.2603 -0.2010
26418W        W42679  15.407   7.690  15.206 -0.0600  0.1306 -0.0787
26419W        W42680   1.344  14.304  14.758 -0.0065 -0.3068  0.1117
26420W        W42681  11.141  13.270  11.680 -0.1629  0.0108  0.0404
26421W        W42682  15.565  10.313   2.175 -0.0042 -0.0073  0.2135
26422W        W42683  15.847   2.906   0.933 -0.0100 -0.2214  0.2819
26423W        W42684  14.332  12.655   4.932  0.0432 -0.1913  0.0245
26424W        W42685  11.430   4.393  14.548  0.4021 -0.0584  0.1655
26425W        W42686   4.417  12.318  15.431  0.3088  0.1108  0.1229
26426W        W42687   9.145   8.998   5.671  0.0190 -0.0504 -0.0662
26427W        W42688  16.507  17.804  14.454 -0.1885  0.2488 -0.0188
26428W        W42689   9.761   2.036   0.593 -0.1618 -0.0968  0.3338
26429W        W42690   0.382  15.436  14.682 -0.0371 -0.0497  0.2134
26430W        W42691   7.213   1.205   3.511 -0.1446 -0.2517 -0.1961
26431W        W42692   8.007   9.103  15.556 -0.2465  0.3296 -0.1461
26432W        W42693   7.126   6.361  14.560  0.2089  0.0921 -0.1934
26433W        W42694   3.165  13.398  16.165 -0.1471 -0.0959  0.2543
26434W        W42695   7.448  14.322   3.697 -0.4824 -0.1117 -0.1773
26435W        W42696   2.177   0.502  14.110  0.1629  0.0394 -0.6412
26436W        W42697   3.986   0.552   5.574  0.0524  0.0578 -0.0970
26437W        W42698   1.204  14.823  13.561  0.0914 -0.1321  0.1546
26438W        W42699   7.529   2.300  13.374 -0.4212  0.2234  0.6070
26439W        W42700  11.177  10.400   3.055 -0.1801  0.1175  0.1590
26440W        W42701   3.966  15.586  15.329 -0.0236  0.0246 -0.2079
26441W        W42702   8.340  11.762   1.289 -0.1863  0.2412  0.0780
26442W        W42703  15.110  17.756   4.826  0.2237 -0.0560 -0.1012
26443W        W42704  16.527  12.928   2.044 -0.3172 -0.0027 -0.1039
26444W        W42705  13.692   1.911   4.281  0.2001 -0.1519  0.2113
26445W        W42706   9.803   3.408   1.132 -0.0887 -0.0284 -0.1590
26446W        W42707  13.906   4.543   2.346  0.1383  0.0649  0.0842
26447W        W42708   4.292   6.720   4.271 -0.0046  0.1786  0.2806
26448W        W42709   8.362  13.843   1.525 -0.0965 -0.2988  0.2797
26449W        W42710   8.425   0.266   2.779 -0.1726  0.0732 -0.0333
26450W        W42711  14.695  13.139  13.144 -0.1106  0.0203 -0.0826
26451W        W42712  10.550   7.371   0.342 -0.1583  0.0305  0.1699
26452W        W42713   0.477   7.648   3.166  0.1378  0.0211  0.2364
26453W        W42714   2.177   8.712   6.349  0.0615  0.0800  0.3596
26454W        W42715   7.422  13.467   0.858 -0.0659  0.1352 -0.1626
26455W        W42716   8.278  16.695  11.378 -0.4615 -0.2127  0.4427
26456W        W42717   7.075   6.396   1.374  0.0184 -0.1661  0.2314
26457W        W42718   1.402   3.379  15.658 -0.0216 -0.2001  0.3247
26458W        W42719   9.988  15.876   4.048 -0.2173 -0.0260  0.1833
26459W        W42720  14.196  11.537  11.082  0.0056  0.0748  0.0013
26460W        W42721  12.538  12.454   1.626 -0.3596 -0.0658 -0.1615
26461W        W42722  16.284  10.903   0.320 -0.0260 -0.0836 -0.2049
26462W        W42723   4.964   1.874  13.545  0.0356 -0.3491  0.2274
26463W        W42724  14.681  10.065   1.680  0.2468 -0.0508 -0.0587
26464W        W42725   7.156  18.341  13.427  0.0269  0.1079  0.4443
26465W        W42726   5.440  12.629  15.840 -0.0237  0.0809 -0.1791
26466W        W42727   7.257  10.384   5.457  0.1130  0.2017  0.3492
26467W        W42728   8.245   0.696  14.338  0.1112 -0.1578  0.0338
26468W        W42729  13.048   6.536  14.083 -0.1316  0.1970 -0.2454
26469W        W42730   1.304   2.300  15.319  0.2223 -0.0300 -0.4298
26470W        W42731   5.156   3.455  16.047  0.1992 -0.0469  0.2056
26471W        W42732  17.513   0.956  14.226  0.3869 -0.2020 -0.1914
26472W        W42733  16.611  17.181  11.158 -0.2957 -0.2931  0.0881
26473W        W42734   2.100  16.902   0.923  0.4895  0.3377 -0.0062
26474W        W42735  13.707   0.230   4.377  0.0366  0.1124  0.1854
26475W        W42736   9.774   2.990  15.591  0.0639  0.1570 -0.0074
26476W        W42737   2.819   2.215  15.878  0.1481  0.3870 -0.0852
26477W        W42738  14.940  18.199   4.616  0.0367  0.0353  0.0111
26478W        W42739  11.788  14.630   2.646  0.0164 -0.6587  0.1825
26479W        W42740  16.184   3.207   2.003 -0.0013  0.0811 -0.2371
26480W        W42741  13.078   6.450   4.566 -0.2598 -0.2160 -0.2067
26481W        W42742   4.403   3.600   1.129  0.0089 -0.0597 -0.0300
26482W        W42743   5.013   9.438   2.761 -0.2671 -0.1524  0.2451
26483W        W42744  11.721   7.581  13.111 -0.1628  0.0361 -0.1965
26484W        W42745  10.824  10.562   2.707 -0.0387  0.0776  0.2626
26485W        W42746  14.527  18.212  10.492  0.1239 -0.2145  0.0308
26486W        W42747  12.260  18.127   2.036  0.0938 -0.0115 -0.2425
26487W        W42748  12.235  17.854  15.693  0.0041 -0.1693  0.0934
26488W        W42749   8.864  16.108   4.300 -0.0976  0.0276  0.0495
26489W        W42750   6.385  16.219  13.282 -0.0429 -0.0967 -0.1303
26490W        W42751   5.072   9.273   4.798 -0.1153 -0.2623  0.0510
26491W        W42752  13.844  15.144   1.510 -0.2156 -0.1274  0.3034
26492W        W42753  15.714   2.861   5.005  0.2012  0.2371 -0.2280
26493W        W42754   6.203   0.302  12.925 -0.0379 -0.3197  0.0047
26494W        W42755  14.063   7.207   3.381 -0.0074  0.1560  0.1268
26495W        W42756  15.624  12.937  15.361  0.3413 -0.3306 -0.0318
26496W        W42757   3.957   0.094   1.930  0.1309 -0.1376  0.1022
26497W        W42758  10.771   1.013  14.575  0.1060  0.2328  0.0556
26498W        W42759  17.067   4.519   2.086 -0.1488 -0.0091  0.3709
26499W        W42760  17.535  12.468   2.852 -0.2921 -0.1422  0.6435
26500W        W42761  12.968   3.876   3.973 -0.2527 -0.3497  0.0360
26501W        W42762   9.370   5.818   6.910 -0.2259  0.1310 -0.0913
26502W        W42763   9.811   1.079   0.907 -0.1233  0.1995 -0.2607
26503W        W42764   5.091  16.138   1.853 -0.1244 -0.4182  0.2416
26504W        W42765   1.179  11.902  14.358 -0.0967  0.1831  0.0330
26505W        W42766  10.835   1.830  12.453  0.2022  0.0050  0.0243
26506W        W42767  11.389  17.797  13.051 -0.1618  0.2738  0.2044
26507W        W42768   3.940  14.649   2.169 -0.0974 -0.0121  0.1092
26508W        W42769   1.482  10.890   6.309  0.0730  0.0798 -0.0051
26509W        W42770   0.059   8.765   5.292  0.0068  0.0615  0.1996
26510W        W42771   3.191   0.184   2.475 -0.1838  0.0731 -0.0165
26511W        W42772  15.653   1.458  14.961 -0.0850 -0.1636 -0.0689
26512W        W42773  17.750  11.203   2.027  0.3130  0.0922 -0.0028
26513W        W42774   3.772   4.293   6.477  0.1504 -0.4059  0.3159
26514W        W42775  14.929  15.196  11.769  0.1843  0.1580 -0.0442
26515W        W42776   2.177   7.473   3.182 -0.3414  0.3300  0.2368
26516W        W42777  10.487   2.749   3.901 -0.2626  0.3917 -0.3960
26517W        W42778   3.065   9.845   0.440 -0.2548  0.0342  0.0299
26518W        W42779  18.160   8.467  12.726 -0.1685 -0.0056 -0.1844
26519W        W42780  17.851  13.128   4.646  0.2250 -0.1360  0.4839
26520W        W42781  15.842   9.004   1.647  0.0286  0.3919  0.2483
26521W        W42782  14.872  12.470  10.128  0.0076  0.1837  0.0511
26522W        W42783   8.831  14.117   5.076 -0.2461  0.0820 -0.3936
26523W        W42784   8.731  13.478   5.855 -0.0069 -0.0415  0.4714
26524W        W42785   6.896   9.205   4.544 -0.1651 -0.0144 -0.2699
26525W        W42786  18.350   1.481   0.484  0.2376 -0.0558 -0.1530
26526W        W42787   8.952  13.915  15.764  0.2157  0.0884 -0.0028
26527W        W42788   6.392   8.251   2.307 -0.0002 -0.3699  0.3422
26528W        W42789   5.968   2.015   3.868  0.1048  0.2269  0.0299
26529W        W42790   8.699  14.352  11.762  0.0946 -0.2850 -0.4145
26530W        W42791   6.787   6.330   2.933  0.1183  0.0201  0.2225
26531W        W42792  12.378  13.471  12.993  0.1741  0.1335 -0.0174
26532W        W42793  11.560  11.334   3.939 -0.1731 -0.0204  0.1167
26533W        W42794   5.509  15.055   3.670 -0.2706  0.4367  0.0431
26534W        W42795   4.950  14.555   5.831 -0.2208 -0.1967 -0.3280
26535W        W42796  18.054  12.896  11.603 -0.1635 -0.0440  0.0997
26536W        W42797  15.323   6.386   0.371  0.1017  0.0880 -0.0424
26537W        W42798   8.623   6.661  15.086 -0.2723 -0.2062  0.2717
26538W        W42799   3.912   3.999   4.809  0.0660 -0.0763  0.0049
26539W        W42800   9.331   7.257  15.782  0.1433  0.0796  0.1746
26540W        W42801  11.858   8.180  15.080 -0.4704 -0.2800  0.0949
26541W        W42802   9.303  11.867   3.996 -0.1687  0.1660 -0.0700
26542W        W42803  11.771  16.324  11.901  0.1833  0.3042 -0.0905
26543W        W42804  11.862  12.466  12.664 -0.2062 -0.1146  0.1568
26544W        W42805   7.206   1.007   4.005 -0.0550  0.3064 -0.0341
26545W        W42806  11.743  10.737  14.182 -0.2189 -0.0830  0.1748
26546W        W42807  15.329  15.110   3.078  0.1786  0.1250 -0.1335
26547W        W42808  11.688   5.293   2.711  0.0787 -0.2304 -0.2054
26548W        W42809  17.910   7.315   1.915  0.1902 -0.2008  0.0216
26549W        W42810   1.451  13.588   5.273 -0.0929  0.2173  0.1528
26550W        W42811   7.379  11.098  11.566 -0.1878  0.2312  0.2266
26551W        W42812   1.375   8.929  15.307 -0.1314 -0.0454  0.1361
26552W        W42813   1.451   8.760   2.127 -0.2164  0.2675  0.1373
26553W        W42814  17.692  11.891   2.609 -0.1600 -0.3487 -0.1638
26554W        W42815   9.761   5.931  14.581 -0.1876  0.0939  0.0817
26555W        W42816   3.241   5.041  14.274 -0.1884 -0.2257  0.1786
26556W        W42817   9.431   4.208   4.833  0.0620  0.0272 -0.0268
26557W        W42818   1.727   7.875  11.983 -0.0882  0.2064 -0.0075
26558W        W42819   1.930  13.139   2.312  0.1011  0.3496 -0.1386
26559W        W42820  18.094  17.863  14.226 -0.0921  0.2053 -0.1184
26560W        W42821  14.671   4.805   5.958  0.0572 -0.1378  0.2736
26561W        W42822  12.877   5.714  12.942 -0.1366  0.1731  0.1704
26562W        W42823   9.608  15.160  11.343  0.1747 -0.1517 -0.3114
26563W        W42824   9.740   8.209   4.336 -0.0198  0.0072 -0.4028
26564W        W42825   8.307   6.929   0.796  0.2080 -0.0431  0.0173
26565W        W42826  13.879   5.981  12.503  0.2282  0.1636 -0.1554
26566W        W42827   3.659   9.073   2.246 -0.2432 -0.0503 -0.0303
26567W        W42828   9.631   6.314   1.530  0.0477  0.0711  0.1863
26568W        W42829  13.594   9.025  15.972 -0.2202 -0.1324 -0.0139
26569W        W42830  14.944  12.272  14.094 -0.1458 -0.0804 -0.1236
26570W        W42831  15.054  10.220   2.051  0.0566 -0.1326 -0.0809
26571W        W42832  16.851  13.418   4.489  0.0994  0.0193 -0.1772
26572W        W42833   5.601   3.017  15.345  0.0729  0.0574  0.1821
26573W        W42834   6.534  17.173   0.468 -0.3171  0.1277 -0.1117
26574W        W42835   7.596   2.941  14.064 -0.2350  0.0679 -0.0448
26575W        W42836  12.560   6.317  14.221 -0.1697 -0.1938  0.0006
26576W        W42837  11.099   2.814   0.257 -0.0088 -0.0616 -0.1571
26577W        W42838  10.214   5.277   0.824  0.0811 -0.1985 -0.1236
26578W        W42839  10.106  16.348  15.467 -0.3019 -0.2116  0.1551
26579W        W42840  12.593   3.107  15.858 -0.1352  0.0700  0.1231
26580W        W42841   6.520  11.328  15.931  0.0785  0.0295  0.0600
26581W        W42842   4.574  13.792  15.781  0.0501  0.2046 -0.1182
26582W        W42843  14.025  13.463   2.690  0.0612 -0.0901 -0.0794
26583W        W42844   5.434  18.317   3.267  0.0443  0.0868 -0.0466
26584W        W42845   5.476   8.241   4.189  0.2117  0.0797 -0.0639
26585W        W42846  14.644  11.539   0.743 -0.0640 -0.0728 -0.2795
26586W        W42847  13.988  14.036   4.457 -0.1618 -0.1947 -0.1197
26587W        W42848   9.344   1.141   1.229 -0.0019  0.1201 -0.1117
26588W        W42849   7.835  10.075   0.881  0.0775 -0.1154 -0.1660
26589W        W42850   6.668   6.557  13.906 -0.0679  0.0335 -0.3785
26590W        W42851  16.125   7.683   2.862  0.1006 -0.2427 -0.2470
26591W        W42852   5.546   4.913   4.755 -0.0062 -0.3662 -0.0281
26592W        W42853   3.624   0.915   2.327 -0.0953  0.2261  0.1793
26593W        W42854   1.101  17.403  15.133  0.3032  0.1639  0.0916
26594W        W42855  14.767   0.157   4.488 -0.2058  0.1622 -0.1499
26595W        W42856  12.787   6.812   0.170  0.1423 -0.0957 -0.0503
26596W        W42857   0.292   2.712  12.592  0.0153 -0.0476  0.0397
26597W        W42858  17.402   8.191   5.315  0.1366 -0.3898 -0.0676
26598W        W42859  15.887  14.316   2.843 -0.0971  0.0933 -0.1199
26599W        W42860   4.796  11.144   4.027  0.3483 -0.0920 -0.0753
26600W        W42861   1.002   7.352  11.663  0.0626  0.1769 -0.1390
26601W        W42862   7.205   7.184   4.644 -0.1063  0.0187 -0.0705
26602W        W42863  15.619   6.716  14.271  0.2972 -0.0434 -0.2746
26603W        W42864   1.334   2.194  13.589 -0.0003 -0.1409  0.2755
26604W        W42865  16.593   6.264  14.508  0.0307  0.3323 -0.2107
26605W        W42866   7.131   5.326  12.749 -0.0032 -0.2605  0.1978
26606W        W42867   1.384   1.025   3.555 -0.1651  0.1148  0.0097
26607W        W42868   7.226   4.305  14.403 -0.1171  0.2822 -0.1456
26608W        W42869   2.036   9.223  13.509  0.1733  0.2454  0.2913
26609W        W42870  12.905   5.979   0.213 -0.2160 -0.2639  0.2803
26610W        W42871  15.234   4.653   0.252 -0.0857  0.0525  0.0998
26611W        W42872   5.181   8.366   4.641 -0.2589  0.2941 -0.1507
26612W        W42873  16.466  13.017   0.472  0.1656  0.1898  0.3019
26613W        W42874   1.965  16.426   2.696 -0.1972 -0.0583  0.1287
26614W        W42875  16.450  12.011  12.115 -0.0318 -0.2006 -0.0506
26615W        W42876  14.820  18.484  16.072  0.0931  0.0179 -0.0440
26616W        W42877  12.231   2.780   1.743  0.2464  0.3026 -0.0790
26617W        W42878   2.654  16.515  12.920 -0.0490  0.2068 -0.0770
26618W        W42879   8.857  14.005   4.106 -0.1285  0.0973 -0.0262
26619W        W42880  13.034  15.805   4.451 -0.1982 -0.0617  0.1299
26620W        W42881  15.762  11.191   0.152 -0.0079  0.1428 -0.0757
26621W        W42882   4.612  12.099  10.882 -0.1914  0.1548  0.1860
26622W        W42883   7.019   9.182  14.663 -0.2521  0.2124  0.1719
26623W        W42884   1.147  13.968   3.586  0.2510  0.1384  0.3283
26624W        W42885  14.678   9.029   1.545  0.0471  0.2324  0.0974
26625W        W42886  17.554   4.060  11.987  0.0093 -0.3859 -0.0906
26626W        W42887   2.360   5.864   1.574 -0.0194  0.1591 -0.1305
26627W        W42888   8.585  15.687  11.663 -0.0254 -0.1160  0.1917
26628W        W42889  12.032  18.041   4.072  0.0648 -0.3674 -0.4395
26629W        W42890   2.059   8.577   5.887  0.0837 -0.2534 -0.0760
26630W        W42891  14.724   7.017   5.709  0.3251  0.0382 -0.0383
26631W        W42892  12.450  13.932  13.549 -0.0147  0.1754  0.1502
26632W        W42893   6.435   3.701   3.114 -0.1653  0.0956  0.1253
26633W        W42894   8.710  12.107  11.885  0.1154 -0.0884  0.5493
26634W        W42895  11.278   0.249  12.072 -0.0296  0.1010 -0.1599
26635W        W42896  12.750  14.397  11.839 -0.0616 -0.0446 -0.0736
26636W        W42897   4.085  11.493  12.964 -0.0684  0.0604  0.2669
26637W        W42898  17.777  11.882   0.887 -0.3343  0.0549 -0.2066
26638W        W42899  17.862   9.531   1.104  0.0013 -0.2992  0.0029
26639W        W42900  17.411  18.375  14.356  0.0292 -0.2424  0.0451
26640W        W42901   4.939  13.956  14.913 -0.1020 -0.0008 -0.3318
26641W        W42902   5.956   2.312  13.969  0.2311 -0.1613  0.0684
26642W        W42903   4.103  13.432  12.818  0.0560 -0.1731 -0.0932
26643W        W42904   2.579  16.093   0.977  0.0818 -0.1734 -0.0139
26644W        W42905  13.340   7.538  13.161  0.0813 -0.0168  0.3838
26645W        W42906  10.111  15.615   5.006  0.0785 -0.2884 -0.0301
26646W        W42907  14.869   2.678   0.369 -0.1452 -0.3550 -0.0623
26647W        W42908   3.919  17.901  13.899 -0.0450  0.4335 -0.1595
26648W        W42909  12.953   8.495  11.392  0.2896 -0.1521 -0.2187
26649W        W42910  13.025   8.303   1.366 -0.0787 -0.0724 -0.1821
26650W        W42911  11.577  10.593   4.492  0.3428  0.1956  0.0491
26651W        W42912  15.326   1.550   4.122  0.1164  0.0243 -0.0130
26652W        W42913   9.604  15.788   5.211 -0.0614 -0.0167 -0.1289
26653W        W42914  13.714  10.657   4.308 -0.5077 -0.1068 -0.1744
26654W        W42915   9.457   3.374   6.042  0.0516 -0.0402  0.0738
26655W        W42916  16.213   8.238   3.105  0.2534  0.0976  0.3161
26656W        W42917   5.205   6.891  13.432 -0.0611  0.0325 -0.0686
26657W        W42918   0.118   3.850   2.586  0.0055 -0.0447 -0.1212
26658W        W42919   5.581   8.490  12.186 -0.0854  0.0863 -0.0204
26659W        W42920   3.248  11.605   2.255 -0.1399 -0.0118 -0.3183
26660W        W42921   9.098  16.418  12.406 -0.3783  0.1027  0.2146
26661W        W42922   5.048  17.086   2.713 -0.2926  0.0983 -0.1124
26662W        W42923  16.004  10.421  14.718  0.0101 -0.1821  0.1436
26663W        W42924   0.308  18.239  13.642 -0.0973 -0.2319  0.1605
26664W        W42925  12.293  18.026   3.136  0.1059 -0.3990  0.0261
26665W        W42926  14.116  10.604   2.908  0.0102 -0.0866 -0.1530
26666W        W42927   2.911  17.741   5.435  0.2249 -0.0570 -0.0829
26667W        W42928  12.293   3.987   0.620 -0.0331 -0.1898 -0.3752
26668W        W42929   4.089  16.934   1.529  0.0377 -0.2168  0.3420
26669W        W42930   1.297  12.167   2.754 -0.2497  0.0402  0.1720
26670W        W42931  12.608   7.222  16.077 -0.0548  0.3015  0.0168
26671W        W42932   9.767  11.481   3.498 -0.2403 -0.0425  0.1153
26672W        W42933  14.112  16.854  13.325 -0.1179  0.0071 -0.2939
26673W        W42934  14.804   6.951   4.452  0.1598  0.0747 -0.1227
26674W        W42935   4.335   2.476   2.904 -0.0638 -0.2750  0.1458
26675W        W42936  14.577  13.356  12.092 -0.3413  0.0134 -0.2694
26676W        W42937   3.857   3.662  12.406 -0.0148  0.1240 -0.0108
26677W        W42938   0.703   4.291  15.370  0.1950  0.2281 -0.2294
26678W        W42939  12.917   9.417   1.724  0.0279  0.0134 -0.2230
26679W        W42940  14.485  17.743   3.436 -0.0962  0.0033  0.0130
26680W        W42941   0.780  11.242   1.023 -0.0374  0.0253  0.3159
26681W        W42942  10.682  12.874  15.593 -0.2844 -0.0582  0.1282
26682W        W42943  10.474   6.121   0.462 -0.1095 -0.2096 -0.0121
26683W        W42944   2.238  12.415  15.410  0.4132  0.3770  0.5128
26684W        W42945   3.675  12.196  11.754  0.2858  0.2341 -0.1262
26685W        W42946   5.288   6.346  16.131  0.1177 -0.2434  0.1111
26686W        W42947   7.658   7.196  12.517  0.1761 -0.2315 -0.1872
26687W        W42948   4.094   3.528   3.882  0.0506 -0.1261 -0.1534
26688W        W42949   7.230   8.234  13.602  0.2599  0.1022  0.0046
26689W        W42950  15.572   7.828  12.694  0.0568 -0.3256 -0.1544
26690W        W42951   9.459   2.892   5.984  0.2848 -0.3144  0.0270
26691W        W42952   5.616   6.124   0.335  0.4427 -0.0177  0.1485
26692W        W42953  14.446   3.211  10.670 -0.1492 -0.1096 -0.1419
26693W        W42954  17.546   1.761  15.483  0.0067  0.3361  0.0066
26694W        W42955   3.231   4.944   2.721  0.1314  0.3400  0.1737
26695W        W42956  11.319   3.459   2.018 -0.2113  0.1147  0.1776
26696W        W42957   7.151  13.884   3.593  0.0948 -0.1521 -0.1052
26697W        W42958  18.244   3.248   1.495  0.1130  0.2431 -0.1517
26698W        W42959   5.445  13.566   5.022  0.0445 -0.2611  0.0745
26699W        W42960  12.462   2.587  11.015 -0.0568 -0.7162 -0.1334
26700W        W42961   3.015  18.224   2.308  0.2719  0.1870  0.0581
26701W        W42962   2.834  16.555  13.403  0.0920 -0.2563 -0.0744
26702W        W42963  18.426  14.478   4.787  0.1815  0.0396 -0.0754
26703W        W42964  17.593   2.736   3.145  0.2547 -0.0921  0.0693
26704W        W42965  10.791   5.292  12.744  0.0521 -0.0881 -0.0755
26705W        W42966   0.118   0.364  12.060 -0.3889  0.1222  0.1035
26706W        W42967  16.536   3.687   5.108  0.0689 -0.1623 -0.0323
26707W        W42968   3.024  11.439   3.744 -0.0187  0.0091  0.3399
26708W        W42969   2.398  10.849   2.041  0.0089  0.0260 -0.1526
26709W        W42970  15.245   5.555   1.848 -0.1600  0.1004 -0.0426
26710W        W42971   2.463   8.246   6.299  0.3664 -0.3367 -0.2977
26711W        W42972   1.720  16.136   1.983 -0.0441 -0.0955  0.0226
26712W        W42973   1.418   5.767  14.354 -0.3877 -0.0386 -0.2017
26713W        W42974  17.833  14.574  11.217 -0.0152  0.0332  0.2592
26714W        W42975   1.762  15.064   1.066  0.2037  0.1348  0.1246
26715W        W42976  15.124  13.102   0.413 -0.2842 -0.0280  0.0347
26716W        W42977  18.232   3.238  15.998  0.2435 -0.0241  0.0378
26717W        W42978  10.316   2.639  12.886  0.1841  0.0921  0.0538
26718W        W42979   3.821  16.714   3.764 -0.1381  0.0010 -0.0686
26719W        W42980   2.996   5.740  11.287 -0.1434 -0.3038  0.0942
26720W        W42981  15.127  12.375   0.940 -0.1585  0.0281  0.0024
26721W        W42982   0.303  17.157  14.339 -0.0139  0.2769 -0.0783
26722W        W42983   2.212   1.304   4.496  0.0845 -0.0532 -0.2646
26723W        W42984   0.127  15.413  15.452  0.2261 -0.1770 -0.0405
26724W        W42985   2.225   6.981  14.424 -0.0888  0.3188  0.1671
26725W        W42986  17.482  12.129  11.143  0.3872  0.1612 -0.1529
26726W        W42987  16.329  18.103   1.942 -0.0717  0.0918 -0.1268
26727W        W42988  14.586  17.652  12.398 -0.3438  0.1918 -0.1926
26728W        W42989   9.377  11.472  13.115  0.0883  0.2859 -0.0247
26729W        W42990   9.952  13.328   2.171  0.3371 -0.1639 -0.0579
26730W        W42991  12.024   0.435  15.543  0.0067  0.1593  0.0035
26731W        W42992  16.888  10.601   0.365 -0.0849 -0.1193  0.0816
26732W        W42993   4.283   1.641  12.699  0.0895 -0.0475 -0.2214
26733W        W42994   7.602  12.187  14.295  0.0032 -0.0927  0.0860
26734W        W42995   0.904   4.566   0.515 -0.0328  0.2859  0.0174
26735W        W42996   3.174  14.487  11.266 -0.3230  0.3883 -0.2240
26736W        W42997   8.500   6.656   3.774  0.0317 -0.2273 -0.0107
26737W        W42998   4.705   0.662  12.343 -0.1903 -0.1450 -0.0690
26738W        W42999   4.458   5.609   0.033  0.2345  0.0042  0.1530
26739W        W43000   7.503   9.259   5.985  0.2114  0.1373  0.1042
26740W        W43001   8.044  15.465   3.608 -0.1773 -0.0994  0.3408
26741W        W43002  17.892  13.046   1.903 -0.2655  0.1084 -0.1189
26742W        W43003  15.424   9.278   3.415  0.2853 -0.1670  0.1909
26743W        W43004  10.759  15.611   1.132 -0.2050 -0.2763  0.0149
26744W        W43005   7.173   2.420   1.719  0.2328 -0.3258  0.0540
26745W        W43006   0.659  14.908   4.241  0.1765  0.1359  0.2720
26746W        W43007   4.587  14.673   0.805 -0.1964 -0.0243  0.3094
26747W        W43008   9.281   6.055   5.120  0.1048 -0.0799 -0.5088
26748W        W43009   1.247  18.256   3.404  0.0894  0.1033  0.3029
26749W        W43010   7.807  12.472   4.618  0.0037 -0.2777  0.4300
26750W        W43011  18.185  14.404  12.659 -0.0466  0.2097 -0.0107
26751W        W43012  18.409   9.509  15.515 -0.3590 -0.1686 -0.0071
26752W        W43013   7.096   9.725   1.475  0.0568 -0.0063  0.1275
26753W        W43014  14.227  17.304  12.180 -0.1723 -0.1125 -0.4973
26754W        W43015  17.921   8.668  15.102 -0.0484  0.1717 -0.3374
26755W        W43016   9.257  13.912   4.424  0.1518 -0.1583  0.2164
26756W        W43017  17.634  11.009  13.178 -0.2032  0.3157  0.4236
26757W        W43018  16.537  10.895  16.042 -0.2323  0.2382 -0.3755
26758W        W43019  15.150  16.018   0.713  0.1200  0.1659 -0.1397
26759W        W43020   2.818   7.624  13.221  0.0195 -0.0790 -0.1880
26760W        W43021   2.236  17.604  12.562  0.0038 -0.0264 -0.1009
26761W        W43022   9.762   1.491  11.664  0.1536 -0.1183  0.2726
26762W        W43023  17.097   2.672   3.416 -0.3678 -0.1188  0.1955
26763W        W43024   3.436  14.169   4.624 -0.2940  0.3838  0.0626
26764W        W43025   3.572  13.886  15.427 -0.1513 -0.2345  0.1289
26765W        W43026  16.383  13.885  10.442 -0.1298  0.1927  0.2677
26766W        W43027  15.018  11.420   4.105  0.0300  0.2182 -0.0171
26767W        W43028  13.643   9.750   0.320 -0.1002  0.0305 -0.2033
26768W        W43029   9.725  12.346  13.820 -0.0289 -0.1068  0.3017
26769W        W43030  15.177   0.138  12.094  0.0529  0.4266  0.1668
26770W        W43031  10.332   4.236   0.433  0.0419  0.1837  0.2720
26771W        W43032   7.791  15.404  15.880 -0.1798  0.2746 -0.0157
26772W        W43033   1.612  13.053  11.178 -0.0665  0.3032  0.1559
26773W        W43034  14.435  12.895   3.950 -0.2529 -0.2824  0.0115
26774W        W43035  12.969  10.905   0.212 -0.2545 -0.0342  0.1299
26775W        W43036   5.724   9.816  13.256 -0.0913 -0.1006 -0.0095
26776W        W43037   2.461   5.915  11.887  0.4269  0.1542  0.1077
26777W        W43038   6.209   1.623   4.822 -0.1804 -0.0864 -0.1932
26778W        W43039  12.234   8.980  11.163  0.2634  0.3164 -0.0875
26779W        W43040   1.122  10.475   1.100  0.0958 -0.0849 -0.1418
26780W        W43041  11.871   6.850   0.921  0.0657 -0.0679 -0.1684
26781W        W43042   2.442  14.768   4.479  0.0527 -0.1271 -0.1352
26782W        W43043  14.564   6.523  15.595  0.2334 -0.0533  0.0756
26783W        W43044  10.173   7.876  11.258  0.1228 -0.1860  0.0512
26784W        W43045   8.003   4.676   6.159  0.1214 -0.2836  0.0460
26785W        W43046  15.889  14.687   0.595 -0.0841  0.0202  0.0466
26786W        W43047   9.953  16.817  12.571 -0.3799 -0.1840 -0.0137
26787W        W43048   2.457  11.260  14.892  0.1675  0.3831 -0.2638
26788W        W43049  17.958  17.540   4.240  0.0889  0.2391 -0.0817
26789W        W43050   6.714  16.113   1.667  0.2147  0.0399  0.1282
26790W        W43051  10.437  12.182   3.227  0.2603  0.1037  0.1106
26791W        W43052   6.985  15.690   4.383 -0.0115  0.0268 -0.0041
26792W        W43053   5.337  15.070  11.770 -0.3464 -0.0162  0.0803
26793W        W43054  10.897  18.057  13.196 -0.5115 -0.0477 -0.0900
26794W        W43055   4.861   5.157   2.443  0.0595  0.1392 -0.0982
26795W        W43056   0.646   7.830  13.563  0.0545  0.0452 -0.1306
26796W        W43057   6.378  11.706   4.059  0.0370  0.0971  0.2305
26797W        W43058   5.704  11.283   3.908  0.1358  0.3740 -0.3347
26798W        W43059  11.213   8.512  14.476  0.0689 -0.2374 -0.2389
26799W        W43060  11.011  11.905   1.285 -0.0927 -0.0720  0.0025
26800W        W43061   0.853   6.242   0.643  0.2148  0.0893  0.2763
26801W        W43062   1.949  16.060  12.545  0.1615 -0.0182  0.1222
26802W        W43063   8.242   9.002  12.844  0.4908 -0.0234 -0.1051
26803W        W43064  13.766  15.277   0.268  0.1527 -0.1252 -0.4025
26804W        W43065  17.462  15.933   0.199  0.0109 -0.1954  0.0899
26805W        W43066   7.456   7.643   4.685  0.2334 -0.1219 -0.0229
26806W        W43067  11.165  16.388   5.307  0.0365  0.0410  0.0063
26807W        W43068  13.930  12.089  12.953 -0.3672  0.0453  0.2315
26808W        W43069   2.106  15.704   4.280  0.1568  0.0666  0.1397
26809W        W43070  11.597   2.791  15.791  0.1960  0.5355  0.0884
26810W        W43071  16.311   2.883  15.795  0.0722 -0.2108  0.1143
26811W        W43072  14.138  17.391   2.732  0.0123 -0.0095 -0.1543
26812W        W43073  16.134  14.895  13.911  0.1618  0.1875 -0.0178
26813W        W43074   2.698   6.544   2.294  0.2401 -0.0715 -0.0916
26814W        W43075   1.481   8.760   5.716 -0.1119  0.0382  0.1221
26815W        W43076   9.389  17.544   5.170  0.2001 -0.3723 -0.3807
26816W        W43077   0.058   9.067  12.137 -0.0591  0.0550 -0.0406
26817W        W43078  14.739  14.917   9.665  0.1217 -0.0520 -0.0410
26818W        W43079   7.455   7.045   0.872  0.1762 -0.1565 -0.2589
26819W        W43080   9.588   6.760  14.580  0.1501 -0.2861  0.1149
26820W        W43081   8.237  15.240   0.481 -0.1931 -0.1150 -0.1053
26821W        W43082   1.152   0.739   0.656 -0.0708 -0.2948 -0.0702
26822W        W43083   5.799  10.231   5.019 -0.4561 -0.0051 -0.3124
26823W        W43084   2.238   8.889  15.195  0.0927  0.2866 -0.0891
26824W        W43085  12.432   6.770  12.817 -0.0383 -0.2231 -0.1467
26825W        W43086  10.260  14.056   1.189 -0.0399 -0.1877 -0.0664
26826W        W43087   9.205   3.005   5.517  0.0255 -0.3708 -0.2016
26827W        W43088  14.183  18.462   4.051 -0.1470 -0.1364  0.1638
26828W        W43089   4.077   3.200   5.979  0.2603  0.0481 -0.2760
26829W        W43090   5.224   6.178  15.684  0.0512 -0.1760 -0.0226
26830W        W43091  13.934  12.521  10.267 -0.1561 -0.1974  0.1357
26831W        W43092   7.262  10.293   5.985 -0.0607  0.2862 -0.1636
26832W        W43093   4.279   2.969  14.110 -0.1200 -0.1041  0.1885
26833W        W43094   0.944   1.145   5.986  0.3008 -0.2339  0.2112
26834W        W43095   5.538   3.956   4.142  0.0920  0.0002  0.1168
26835W        W43096  14.111  15.756  13.954 -0.0204 -0.1723 -0.2168
26836W        W43097   4.417  14.873   5.322  0.0140  0.0334 -0.3563
26837W        W43098  13.404   5.439   2.190 -0.0176  0.0704 -0.2407
26838W        W43099   8.658  12.809  11.360  0.4142 -0.0956 -0.2238
26839W        W43100   4.500   1.191   1.685 -0.0509 -0.0622  0.1759
26840W        W43101   4.346   0.877  11.499  0.3735  0.3376  0.2596
26841W        W43102   0.269   1.529  14.934  0.0019  0.0347  0.2523
26842W        W43103   9.981   8.392  14.533 -0.0528 -0.1321 -0.0837
26843W        W43104   5.745   7.424  16.148 -0.3248 -0.3828  0.0726
26844W        W43105  14.924  14.100  12.455 -0.0491  0.2182  0.2177
26845W        W43106  17.496   9.424   4.893 -0.0930 -0.1215 -0.0177
26846W        W43107  16.696   3.285  14.996  0.0227  0.0119 -0.3476
26847W        W43108  17.490   9.008   3.020 -0.2239  0.3539 -0.0454
26848W        W43109  18.129  17.681   3.787  0.0793  0.0124  0.1005
26849W        W43110  12.457  10.328  14.361  0.0669  0.2727 -0.3014
26850W        W43111  16.877   0.309  13.285 -0.0150  0.1724  0.0237
26851W        W43112   7.229   2.638  12.737 -0.1847 -0.1419 -0.2462
26852W        W43113  12.011  17.537   5.374 -0.1303  0.0575  0.3025
26853W        W43114   6.235   1.818  13.692 -0.0290 -0.0901  0.0573
26854W        W43115   7.043  14.903  12.621 -0.3659 -0.0625  0.0637
26855W        W43116   4.609  15.695  11.262  0.3136 -0.2453  0.0803
26856W        W43117  13.424   1.601   1.738 -0.2313  0.2570  0.1281
26857W        W43118   1.577  11.659   0.519 -0.0690 -0.2541 -0.1224
26858W        W43119   5.472  17.443  12.302 -0.1716 -0.0259  0.0235
26859W        W43120   4.714  18.268   1.612  0.1308 -0.3391 -0.1391
26860W        W43121   4.363   3.911   2.929 -0.1265  0.0617 -0.0812
26861W        W43122  10.622   9.680   2.181 -0.2785 -0.1833  0.3184
26862W        W43123   6.713   8.841   3.819 -0.1722  0.0003  0.1611
26863W        W43124   9.881   8.857  14.939 -0.0494  0.0384 -0.2121
26864W        W43125  14.804   3.126  12.103 -0.0580  0.3387 -0.1651
26865W        W43126   8.946   9.733   0.062 -0.1217  0.3841 -0.1105
26866W        W43127   9.160   9.801   3.490 -0.0425 -0.2482  0.0170
26867W        W43128  12.388   8.124  14.384  0.1233  0.2266  0.0247
26868W        W43129   1.745   4.093   5.874  0.0919 -0.2522 -0.0213
26869W        W43130   8.714  10.583   4.462 -0.1832  0.0618  0.0122
26870W        W43131  16.797   3.846   0.065  0.0677 -0.0263  0.0272
26871W        W43132   1.263  12.121   1.289  0.2331 -0.0798  0.1949
26872W        W43133   9.584   3.041   0.811  0.3951  0.0052  0.2327
26873W        W43134   2.333  11.186  15.430 -0.1582  0.0050  0.0914
26874W        W43135  16.044   1.445  13.389  0.2469  0.0720  0.0547
26875W        W43136   7.182  14.071   4.031 -0.0185 -0.0281 -0.1509
26876W        W43137  11.495  18.110  14.003 -0.1930  0.1276  0.1087
26877W        W43138  13.750  10.060  12.847 -0.2949 -0.1539  0.0223
26878W        W43139  15.347   3.181   4.534  0.2726  0.2635  0.0614
26879W        W43140  15.207   9.544   1.143 -0.0763 -0.0052  0.4271
26880W        W43141  12.254   6.919  14.401  0.4658 -0.0958  0.0228
26881W        W43142   9.307  17.639   2.463  0.1145 -0.0600 -0.1169
26882W        W43143   9.062  18.328  14.029 -0.1261  0.1037 -0.3491
26883W        W43144   5.569   9.847   4.035 -0.3311 -0.2873  0.1464
26884W        W43145   2.285  17.082   1.389  0.0048  0.0003  0.2539
26885W        W43146  15.843   3.337  15.283  0.1043  0.2278 -0.4447
26886W        W43147   0.400  12.767   6.284  0.3053 -0.2652  0.1100
26887W        W43148  12.541  16.509   4.139 -0.2503  0.0854  0.2206
26888W        W43149  13.050  12.153  14.812  0.1642 -0.3651  0.1775
26889W        W43150   1.743  15.185   0.567  0.0760 -0.2769 -0.1692
26890W        W43151  16.168   8.592   2.365 -0.2035  0.1454  0.0278
26891W        W43152   8.969  17.086   1.001 -0.0759 -0.1637  0.1144
26892W        W43153  11.695  12.991   5.103  0.4335 -0.2994 -0.1585
26893W        W43154  13.381   8.116   1.783  0.1513  0.3589  0.1248
26894W        W43155  11.403   2.195   2.375  0.0178  0.0466  0.1049
26895W        W43156   8.850  14.992   4.379  0.0852  0.1795  0.1847
26896W        W43157   8.677   4.947  13.949  0.3125  0.1232  0.1428
26897W        W43158   4.758   3.204   5.028  0.0566  0.1406 -0.0251
26898W        W43159  13.182   6.561  15.317 -0.1079  0.0342 -0.1394
26899W        W43160   1.930   4.375  15.822  0.2122  0.1448  0.3420
26900W        W43161   5.617   8.886  14.991  0.3600 -0.0680 -0.0398
26901W        W43162  13.824  17.362   0.760 -0.3850  0.0491  0.1717
26902W        W43163  14.457   9.165  14.237 -0.1089  0.3029 -0.1640
26903W        W43164   4.955   2.924   5.850  0.0958  0.2836 -0.0559
26904W        W43165   9.347  10.916   2.066 -0.3542 -0.4051 -0.0252
26905W        W43166  17.948   0.215   3.839 -0.1638  0.1887  0.2289
26906W        W43167   2.727  12.280   0.035  0.1820 -0.0898 -0.1780
26907W        W43168  15.401   4.991   2.943 -0.1921  0.3730 -0.1861
26908W        W43169  12.129  12.769   1.774 -0.3339 -0.3376  0.2808
26909W        W43170  13.957  17.921  10.357  0.0824  0.1444  0.3263
26910W        W43171  18.150   0.238  14.245 -0.0107 -0.2965  0.1985
26911W        W43172  12.067   7.340  14.714  0.0469  0.0316 -0.0189
26912W        W43173   7.989   1.229   1.069  0.2373 -0.1928 -0.2927
26913W        W43174   2.027   0.062   0.974  0.0929  0.0753  0.0120
26914W        W43175  14.214  17.298  16.113 -0.1200  0.0711  0.1231
26915W        W43176   9.777  15.660   1.915 -0.2282 -0.1523  0.0347
26916W        W43177   5.799  14.184   3.680 -0.0197  0.1026 -0.2864
26917W        W43178  11.015   0.088  11.528  0.0124  0.0718  0.0123
26918W        W43179   3.407   4.349   0.226  0.0790 -0.1087  0.0197
26919W        W43180   7.955  17.045   3.658 -0.1934 -0.0277 -0.0849
26920W        W43181   4.608   1.281  13.847  0.0337 -0.0498 -0.0544
26921W        W43182  14.778   7.389  13.907 -0.3663  0.0110 -0.0646
26922W        W43183   7.228  10.054  14.264  0.1995  0.2342  0.1742
26923W        W43184   6.502  14.983   5.353 -0.1225 -0.2304 -0.0879
26924W        W43185   8.758  17.810  11.862 -0.0221 -0.0543 -0.2754
26925W        W43186   4.666   5.249   3.777 -0.1964 -0.0364  0.0468
26926W        W43187   4.843   9.188  14.332 -0.3364  0.0081  0.0076
26927W        W43188   7.183  12.841   3.205 -0.1454  0.0159  0.1065
26928W        W43189  15.140  11.849   4.623  0.1585  0.1198 -0.3303
26929W        W43190  11.748   3.461   0.764  0.0891  0.1276 -0.1218
26930W        W43191  14.205   6.306   4.308  0.1043  0.2606 -0.0534
26931W        W43192   7.601  15.629   2.855  0.1963 -0.1014  0.0625
26932W        W43193  13.196  16.990   1.166 -0.1347 -0.1673  0.0698
26933W        W43194   8.663  16.604   1.640  0.2467  0.1398 -0.1030
26934W        W43195  13.689  16.547  13.538 -0.2662 -0.1041 -0.1178
26935W        W43196   1.062  16.927  12.561  0.2484 -0.3496  0.0877
26936W        W43197   8.575   5.932   2.968 -0.0588 -0.1727 -0.1044
26937W        W43198   0.115  11.322   2.791  0.1618  0.0052 -0.1872
26938W        W43199   1.433   3.435   2.293 -0.1482 -0.0328  0.2117
26939W        W43200   7.433   4.569  12.964  0.2295  0.0117  0.0663
26940W        W43201   6.943  14.927   6.038 -0.1807 -0.1200  0.0088
26941W        W43202   1.085   4.335  12.591 -0.0780  0.2185  0.0074
26942W        W43203  17.242   3.017  14.259 -0.2024 -0.2856 -0.1814
26943W        W43204   4.066  16.595  14.134  0.1402  0.0506  0.1024
26944W        W43205   3.195   6.140  13.672  0.0346 -0.0206 -0.2094
26945W        W43206   6.738   7.335   4.621 -0.3825  0.2345  0.2965
26946W        W43207   1.960   5.549   1.737 -0.0045 -0.0895  0.0553
26947W        W43208  14.578   5.035   0.068  0.2717  0.4499 -0.2509
26948W        W43209   9.473  12.993  11.163  0.0666  0.0670 -0.1801
26949W        W43210  13.212   6.124  12.407 -0.0714 -0.1484 -0.0556
26950W        W43211   6.545  15.488   2.613 -0.1440  0.0786 -0.2142
26951W        W43212   1.143  16.424  10.923 -0.1036  0.1573 -0.1404
26952W        W43213   4.624  11.590  15.936  0.0174 -0.0108  0.1770
26953W        W43214  11.650   5.811   4.412 -0.0363 -0.1662  0.2836
26954W        W43215   5.543  12.003   5.172 -0.3061 -0.0740  0.1117
26955W        W43216   4.538  15.578  11.823  0.0310  0.0821  0.0854
26956W        W43217   5.836   8.741   2.049 -0.0969  0.1339  0.1831
26957W        W43218  17.114   1.110   3.249  0.2574 -0.0281 -0.1072
26958W        W43219  16.947   0.883  11.485  0.4450 -0.0415  0.1092
26959W        W43220   2.409   4.897   2.473  0.1608  0.1918 -0.1382
26960W        W43221   4.382   9.347   4.288  0.1368 -0.0098  0.2789
26961W        W43222  14.622   5.415  11.979 -0.3850 -0.0408  0.1237
26962W        W43223  12.340   0.801  14.878  0.0813  0.2494  0.0953
26963W        W43224   7.040  12.435  13.138 -0.0134 -0.0544 -0.4244
26964W        W43225   9.968  11.560   4.765 -0.1575  0.1086 -0.1685
26965W        W43226   4.582  12.990  12.080 -0.2854  0.1578  0.0627
26966W        W43227  13.695   5.629  13.393 -0.2616 -0.3786  0.2064
26967W        W43228  10.067  11.193   1.953 -0.0404  0.0111  0.2524
26968W        W43229   0.467   9.619   3.826 -0.0369 -0.2122 -0.1898
26969W        W43230  15.120  11.326  13.269  0.0632 -0.0418  0.1435
26970W        W43231  14.565   4.703   2.826  0.1767  0.2628  0.0364
26971W        W43232  18.205   6.283  12.247  0.0575 -0.1725  0.3952
26972W        W43233  14.637   8.043  13.822 -0.0198  0.0447  0.0097
26973W        W43234  15.352   4.526   1.542 -0.1588 -0.0938  0.1660
26974W        W43235   6.922   5.283   3.872  0.2750 -0.0672  0.0684
26975W        W43236   4.544   5.752  13.789 -0.2937 -0.0645 -0.1219
26976W        W43237   4.321  13.865   1.971 -0.0861 -0.0177  0.2049
26977W        W43238  18.177  18.022   4.256  0.2822  0.2086 -0.0272
26978W        W43239   8.511  18.319  13.446 -0.4544 -0.1995 -0.3721
26979W        W43240   9.717   0.664   1.902 -0.1559 -0.0259  0.1417
26980W        W43241   6.843   2.748   2.704 -0.3074  0.0676  0.3065
26981W        W43242   2.040  11.577  15.666  0.4017  0.3844 -0.0423
26982W        W43243  17.925  10.613  13.895 -0.0626  0.0054  0.0655
26983W        W43244   7.035   0.480  12.507 -0.0186 -0.6357  0.0603
26984W        W43245   0.145   5.814   4.050  0.1596 -0.4531  0.2298
26985W        W43246   7.979   2.740   0.136 -0.2260 -0.0223 -0.0122
26986W        W43247   7.692  14.326  13.700  0.3690 -0.1924  0.0848
26987W        W43248   5.001   9.775  12.214 -0.0432 -0.0043 -0.1460
26988W        W43249   4.910  16.129   1.368 -0.0253 -0.2289 -0.3992
26989W        W43250   2.708   3.000  13.026  0.2097 -0.3374 -0.0723
26990W        W43251  13.499  10.291  13.496  0.2188  0.1442  0.1191
26991W        W43252   5.852   6.237   0.789  0.1494 -0.1070 -0.2069
26992W        W43253   9.455  18.120  15.899  0.1353 -0.3647 -0.0026
26993W        W43254   4.296  17.088   2.947 -0.0505  0.2358  0.0465
26994W        W43255  13.036   1.080  11.223 -0.0610 -0.3136 -0.4427
26995W        W43256  14.752  13.017  14.829  0.3987 -0.3158 -0.3230
26996W        W43257   0.084   0.491   0.250 -0.0219 -0.2331 -0.0026
26997W        W43258   7.317   6.954   2.976  0.1802 -0.0716 -0.0688
26998W        W43259  18.277  16.560  16.069  0.2233 -0.2018  0.3070
26999W        W43260  16.671  17.356   3.070 -0.0409  0.3837  0.1337
27000W        W43261   1.320   3.803   3.860 -0.0813  0.0840  0.0383
27001W        W43262  18.069  18.142  14.789 -0.1176  0.2572  0.1109
27002W        W43263  15.440   8.178  11.054 -0.0141 -0.0557  0.0127
27003W        W43264  15.723   6.572   4.969 -0.4981 -0.1024 -0.0778
27004W        W43265   8.884   6.960   1.021 -0.0358 -0.0380  0.1391
27005W        W43266  17.007   3.295   4.651  0.1378  0.0783 -0.3143
27006W        W43267   5.697  12.183  11.674 -0.0839  0.0190 -0.0191
27007W        W43268  18.010   0.006   4.264  0.2785 -0.0328  0.3168
27008W        W43269   6.742  14.303   0.529  0.2405 -0.1786  0.1436
27009W        W43270  10.184   7.376  11.905 -0.4078  0.1889  0.1822
27010W        W43271   3.649  14.623   5.546  0.0755  0.0182 -0.0970
27011W        W43272   6.811   7.462  12.258 -0.1491 -0.1405 -0.0749
27012W        W43273   7.636   4.044  15.976  0.0513  0.0172 -0.0362
27013W        W43274  15.915   3.807  12.424  0.2944 -0.2537  0.1677
27014W        W43275  10.833  11.241   3.959  0.0717 -0.0120  0.2137
27015W        W43276   9.311  11.074  15.998 -0.0559  0.1114 -0.3112
27016W        W43277   3.527  17.472  14.292 -0.1147  0.3561 -0.0467
27017W        W43278  11.138   7.503   4.309  0.0811 -0.2065  0.1607
27018W        W43279  14.369  18.049  14.465 -0.2309 -0.1086  0.1038
27019W        W43280   4.510   9.483   1.292  0.3528 -0.1670  0.0400
27020W        W43281   0.545   1.835   5.837  0.4643  0.0304  0.0680
27021W        W43282   0.490   3.015   3.161 -0.2596  0.3869 -0.1116
27022W        W43283   5.554  17.462   4.067 -0.1785  0.0509  0.1791
27023W        W43284   9.293  10.219  12.898  0.0603  0.1879 -0.3721
27024W        W43285   8.145   1.902   5.374  0.0199 -0.1382  0.2258
27025W        W43286   9.757  18.180   3.074 -0.2543 -0.1664 -0.0082
27026W        W43287   3.551   7.710   3.381 -0.1016 -0.0888 -0.0752
27027W        W43288   6.802   0.068   4.364 -0.2039 -0.0379 -0.0865
27028W        W43289   6.217   9.048   0.668  0.0174 -0.2893 -0.3619
27029W        W43290  14.270   3.110  13.620 -0.0036 -0.1691 -0.2095
27030W        W43291  13.074   4.396   2.984  0.0611 -0.1398  0.3332
27031W        W43292  18.310   1.131   1.373  0.3271  0.0072  0.1381
27032W        W43293  13.139  16.236  13.621 -0.0515 -0.0806  0.2695
27033W        W43294  18.113   2.916  13.715  0.0855 -0.0368 -0.2740
27034W        W43295  17.814  14.025  15.057  0.0086  0.0536 -0.1760
27035W        W43296   0.846  10.865  15.243  0.1361 -0.1576  0.0063
27036W        W43297   0.410  12.141  14.832  0.1886  0.0001  0.1895
27037W        W43298   3.763   6.469  10.452  0.0456  0.4374  0.4379
27038W        W43299  18.383   9.221  14.912  0.0264 -0.1246  0.0492
27039W        W43300   6.408   8.682  15.470  0.2479 -0.0854  0.2433
27040W        W43301  12.536   3.932   2.369  0.0811 -0.1111  0.0596
27041W        W43302   0.168   0.186  11.320  0.1591 -0.0838  0.0466
27042W        W43303  13.571   1.119  12.625 -0.3157 -0.3013  0.0642
27043W        W43304   3.814   9.535   1.809 -0.0605  0.1899 -0.1456
27044W        W43305  11.556   0.583   3.387  0.4358  0.4659 -0.0663
27045W        W43306  15.272   6.270   4.968  0.0387 -0.2889  0.2326
27046W        W43307   8.977   8.734  13.174 -0.2232 -0.1909 -0.1479
27047W        W43308  15.698   1.778   0.251 -0.0634 -0.1304  0.1748
27048W        W43309  16.079  10.393  13.512  0.0002  0.0161  0.0527
27049W        W43310  16.720   4.462   1.360  0.0303  0.3443 -0.1461
27050W        W43311   3.144   1.561   5.039 -0.1679  0.0226 -0.5233
27051W        W43312  10.551  11.082   5.132 -0.1403  0.1804 -0.1782
27052W        W43313   6.877   1.936   6.301  0.2018 -0.1819 -0.2358
27053W        W43314  11.717   1.428  13.146  0.2436  0.0887 -0.0410
27054W        W43315  14.893   8.829   0.229 -0.2917  0.0574  0.1758
27055W        W43316  14.756  12.305   5.635 -0.3740  0.2252 -0.0237
27056W        W43317   6.456  16.055   2.493  0.1090  0.1217  0.4643
27057W        W43318  16.836  10.142  14.484 -0.2650 -0.1807 -0.1155
27058W        W43319  14.308   5.775   4.439 -0.0344 -0.0434  0.1359
27059W        W43320   4.516   9.876   3.391 -0.3667 -0.0871 -0.1040
27060W        W43321   2.017  16.909  12.973 -0.1691  0.1966 -0.3316
27061W        W43322  11.649  17.449  15.274  0.2553  0.1014 -0.4388
27062W        W43323  16.846   0.850   4.485  0.1784  0.1919 -0.1409
27063W        W43324   7.068  17.414   3.720 -0.2406 -0.0727 -0.1783
27064W        W43325  16.060   4.691  15.491  0.1911 -0.0987  0.0142
27065W        W43326   9.328  15.560   1.919 -0.1502  0.1288  0.4182
27066W        W43327  11.448   6.484  15.194 -0.2414 -0.1136  0.2990
27067W        W43328  12.351  14.621  10.644 -0.1371  0.0578  0.0365
27068W        W43329   1.473   4.995  11.909  0.2036  0.0543  0.3578
27069W        W43330  16.857   8.690  15.845  0.2594 -0.2535  0.0912
27070W        W43331   0.779   6.355   4.029  0.2541 -0.1657 -0.2257
27071W        W43332   6.944  15.258  14.071 -0.3423 -0.2521  0.2394
27072W        W43333  11.756  12.205  10.565 -0.0219 -0.0988 -0.3380
27073W        W43334   2.091  15.872  10.871  0.0998 -0.0643  0.2411
27074W        W43335   0.853   2.170   0.717 -0.2846  0.2293  0.0827
27075W        W43336  12.055  12.901  12.980 -0.0811  0.0235 -0.2455
27076W        W43337  13.336  13.055   0.708  0.1588 -0.5439 -0.2120
27077W        W43338  12.135   0.372   3.644  0.3241 -0.1215  0.0153
27078W        W43339   3.486   7.219  13.427  0.0335 -0.0339 -0.1158
27079W        W43340   4.514   4.575   0.794 -0.0266 -0.2811  0.1479
27080W        W43341  16.549   3.143   2.759  0.0800  0.0410  0.1055
27081W        W43342   3.387  15.314  15.725  0.1052  0.0260  0.1834
27082W        W43343  11.979  16.545   3.230 -0.0060 -0.0342 -0.1259
27083W        W43344   3.490   8.561   3.682  0.1054 -0.0568 -0.3095
27084W        W43345   8.899  12.852  14.153  0.0255  0.0176 -0.2595
27085W        W43346   1.274  14.690  15.670  0.0954  0.1631  0.1201
27086W        W43347   5.507  11.602   2.863  0.2037 -0.2545 -0.1101
27087W        W43348  16.204   3.778   2.924 -0.1142  0.1634  0.0645
27088W        W43349  11.053   3.388   5.086 -0.1210 -0.2200 -0.1330
27089W        W43350   9.374   9.149   0.836 -0.0261 -0.0839  0.4532
27090W        W43351  16.594   8.201  15.427  0.0566  0.0588  0.1509
27091W        W43352   7.708  10.109   5.222  0.3831  0.3296  0.3427
27092W        W43353   5.897   3.207   4.591 -0.1451  0.0044 -0.0460
27093W        W43354  16.048   0.906  11.233  0.0628  0.1511 -0.2061
27094W        W43355  15.787   0.414  13.822  0.0872 -0.0902 -0.0844
27095W        W43356   7.838   9.810  13.365 -0.0082  0.0182  0.1274
27096W        W43357  17.206   4.596   4.883  0.1702 -0.1806  0.0471
27097W        W43358  17.844  18.101  13.209 -0.2366  0.2555  0.1502
27098W        W43359   8.645  12.339   4.302  0.0431 -0.0945  0.1635
27099W        W43360   8.323  17.857   5.083  0.2602  0.0817  0.1667
27100W        W43361   4.085   0.116   0.729  0.0090 -0.0293  0.1534
27101W        W43362   6.887   7.328  13.066 -0.2642 -0.1222 -0.3156
27102W        W43363   3.207  11.448   0.403 -0.0970  0.0377 -0.1717
27103W        W43364  11.209   7.684   0.898  0.1185  0.2213  0.0810
27104W        W43365  10.942   0.884   2.223 -0.0312  0.2273 -0.2576
27105W        W43366   4.644  16.768  13.038 -0.2440  0.1412 -0.2560
27106W        W43367  13.303   3.528   3.994  0.0500 -0.0619  0.0140
27107W        W43368   3.199   5.967  12.236 -0.1645 -0.0619 -0.0456
27108W        W43369  15.926  14.215   4.769  0.3878  0.1914 -0.2707
27109W        W43370   7.195  14.281   4.522 -0.2283  0.1237  0.0707
27110W        W43371   4.897   7.147   1.554  0.3589 -0.2815 -0.1233
27111W        W43372  10.877   9.286  14.823  0.1594  0.0721  0.1669
27112W        W43373  10.661   2.591  14.204 -0.1236  0.1317  0.4304
27113W        W43374   1.036   1.108  12.111 -0.1485 -0.3377  0.1889
27114W        W43375   5.918  10.109   1.980 -0.2004  0.1748 -0.0032
27115W        W43376  10.220   2.762  15.534 -0.1389  0.0645 -0.1128
27116W        W43377  14.855   5.365  14.259  0.1740  0.0143  0.0320
27117W        W43378   7.919  11.265  14.969  0.1540 -0.0834 -0.3633
27118W        W43379  17.046   1.218   3.766  0.2653 -0.2946 -0.0096
27119W        W43380  16.363   6.349   3.285  0.1320 -0.1021  0.0678
27120W        W43381  11.702   2.676  13.371  0.4630  0.0396 -0.0872
27121W        W43382   6.085   9.569   0.521  0.1124 -0.0766 -0.3574
27122W        W43383   9.300  17.341   4.025  0.0857 -0.0827  0.0734
27123W        W43384   9.152   7.652  15.433  0.0830 -0.0370  0.2033
27124W        W43385  10.388   6.360   2.998 -0.2818 -0.3814 -0.4858
27125W        W43386  12.725   0.788   2.486 -0.1412  0.1313 -0.0740
27126W        W43387  17.408   6.368   2.003 -0.2132  0.0724  0.1242
27127W        W43388   7.071   7.694   4.260  0.0713  0.0092 -0.0881
27128W        W43389  14.950   6.271  14.761  0.1703  0.1812  0.2207
27129W        W43390  10.695   3.258   3.713  0.2174 -0.1156 -0.0369
27130W        W43391   5.292  12.015   0.177  0.2380  0.1176 -0.1070
27131W        W43392  11.757   2.778   4.572 -0.2709  0.0728  0.0695
27132W        W43393  15.697   1.772  10.094 -0.0232 -0.0770 -0.0307
27133W        W43394   3.386   6.813   2.009 -0.2281  0.0584  0.1690
27134W        W43395  17.786  16.383   2.073  0.1307 -0.1844 -0.1550
27135W        W43396   8.393   3.523  14.053  0.0321 -0.1669 -0.0347
27136W        W43397   0.613  16.017   0.717  0.1601  0.0435  0.1547
27137W        W43398   3.209   2.057   5.972  0.1223 -0.2718  0.1921
27138W        W43399  15.421  11.935   0.623 -0.5665  0.0201  0.0432
27139W        W43400  16.469  13.532   1.603  0.1203 -0.0495 -0.3085
27140W        W43401   1.667  14.828  13.329  0.2300  0.3241  0.0181
27141W        W43402   9.422  15.189  16.042 -0.0361  0.0646  0.0909
27142W        W43403  11.145  15.025  11.792  0.0952  0.0486  0.2367
27143W        W43404  18.264   3.687  12.422 -0.1036  0.1087  0.0848
27144W        W43405   8.616  13.226   4.558 -0.0311 -0.0193  0.0166
27145W        W43406  14.185   3.683   4.597  0.1919 -0.2197 -0.1130
27146W        W43407  10.234   3.585  14.632 -0.3476  0.2402  0.0312
27147W        W43408  17.723   3.912  14.344  0.0025  0.3402  0.0622
27148W        W43409   2.443   4.122  13.595  0.0066  0.0242 -0.0976
27149W        W43410   3.698  10.900   3.998 -0.2425  0.3181  0.0230
27150W        W43411  11.415  15.335  15.993 -0.0985  0.1422 -0.1309
27151W        W43412  11.745  16.291   1.687  0.1786  0.1306 -0.1087
27152W        W43413   4.980  13.935   3.804 -0.1197  0.0206  0.1927
27153W        W43414   1.786  15.968  15.508 -0.1839  0.2155 -0.1810
27154W        W43415   7.285   6.840  14.899 -0.3157  0.2624 -0.0982
27155W        W43416   9.067   0.633  15.032 -0.2975 -0.1193 -0.1252
27156W        W43417  12.284   5.466   3.000 -0.0986  0.1118  0.0223
27157W        W43418  17.248   9.059   4.294 -0.2802 -0.0138 -0.1503
27158W        W43419  10.837  18.068   4.732 -0.3100  0.2041  0.2670
27159W        W43420   0.761   9.290   4.017  0.0801 -0.0703 -0.3968
27160W        W43421  15.102   5.690   6.082 -0.1074 -0.0118 -0.4852
27161W        W43422   5.353   1.535   3.532 -0.0235 -0.1418 -0.1113
27162W        W43423   2.925   1.724   1.587  0.2135  0.0951  0.4590
27163W        W43424  13.392   0.873  10.962  0.0030 -0.0679 -0.1433
27164W        W43425  15.309   2.532  12.915 -0.1547  0.0665 -0.0785
27165W        W43426  11.317   9.443  16.122  0.1532  0.3964  0.1165
27166W        W43427  16.239   5.489  14.745 -0.3439 -0.0379 -0.3587
27167W        W43428  18.026   8.398  14.127  0.0007  0.0765 -0.0446
27168W        W43429   4.984  13.957  12.445 -0.0634  0.1249 -0.0131
27169W        W43430  12.198  16.500  13.307 -0.1090  0.1351 -0.0039
27170W        W43431   0.439  15.279   3.948  0.0140 -0.0619  0.0459
27171W        W43432  15.990  12.440  12.704  0.0407  0.4112  0.0062
27172W        W43433   7.109  11.811   0.953 -0.0732  0.0114 -0.1649
27173W        W43434   7.006  16.888   2.737 -0.0466  0.1825 -0.2018
27174W        W43435   0.656   3.999   4.780 -0.0692 -0.0387  0.2324
27175W        W43436   4.165   5.515   5.705  0.0036  0.0481  0.0059
27176W        W43437  15.399  16.833   0.760 -0.1454  0.1641 -0.1073
27177W        W43438   2.255   5.795   2.080 -0.1157  0.1820 -0.0418
27178W        W43439  15.484   4.263   4.988  0.1464 -0.1323 -0.0407
27179W        W43440  14.110   5.783  15.551  0.2602  0.4544  0.1562
27180W        W43441  15.676  14.540  13.966  0.0983  0.2786  0.2599
27181W        W43442   5.994  11.882  12.574 -0.0626 -0.1403 -0.0304
27182W        W43443  15.050   9.851   1.486 -0.3066 -0.0921 -0.1838
27183W        W43444   1.626   7.848   2.521 -0.1497 -0.1556  0.1477
27184W        W43445  11.607   9.080  15.870 -0.0467 -0.2317  0.0044
27185W        W43446   3.284   2.617   3.325 -0.1163  0.1583 -0.3534
27186W        W43447   5.242   7.469   4.763  0.0840 -0.2070 -0.0327
27187W        W43448  10.915   9.420   1.846  0.2466 -0.2281 -0.3649
27188W        W43449   6.403  14.376  15.351  0.1213 -0.2214 -0.2066
27189W        W43450   4.857   5.671  13.387 -0.0271  0.3045 -0.1296
27190W        W43451  17.616   0.554   3.612  0.0482 -0.0370 -0.0423
27191W        W43452   0.547  16.863  12.683 -0.0073 -0.1843  0.0674
27192W        W43453  15.197  15.456   0.454  0.1624  0.0485 -0.2574
27193W        W43454   3.587   1.373   4.828 -0.1333  0.1641  0.2506
27194W        W43455   7.719  13.181   4.160 -0.0105 -0.3198 -0.3067
27195W        W43456   2.080  15.223  12.446 -0.1073 -0.2964 -0.2468
27196W        W43457   3.031   0.976   4.268 -0.0958  0.0391  0.0422
27197W        W43458  14.285   1.141  14.992  0.0904 -0.0846 -0.0799
27198W        W43459  11.180  13.114  12.600  0.3295 -0.1558  0.1067
27199W        W43460   9.901  16.161  13.585 -0.0753  0.2136 -0.1466
27200W        W43461   5.472  13.240   2.932  0.0554  0.1451  0.0802
27201W        W43462   9.697  14.498  13.078 -0.1953 -0.2382  0.2604
27202W        W43463   8.060  17.018  14.121 -0.0031 -0.0895 -0.2234
27203W        W43464  14.192   3.692   1.365  0.2967  0.0383 -0.2223
27204W        W43465   8.983   6.145   2.641  0.3209  0.2611  0.2700
27205W        W43466  10.235   4.414  11.643 -0.4590 -0.0167 -0.0355
27206W        W43467   1.154  18.067   4.019  0.0725  0.0852 -0.0289
27207W        W43468   5.744  12.993  11.499 -0.2965  0.0783 -0.0713
27208W        W43469  16.216   4.270  11.777 -0.2242  0.1722  0.0056
27209W        W43470  12.849   5.434  11.627  0.1754 -0.2510  0.1800
27210W        W43471   6.718   6.466   0.375 -0.0057  0.1700  0.0867
27211W        W43472  14.123   1.534  11.666  0.0493  0.3332  0.0752
27212W        W43473  14.561   8.151  15.381  0.1080  0.0120 -0.2695
27213W        W43474   1.041   9.918   1.037 -0.0699 -0.0943 -0.1043
27214W        W43475   9.631   9.157   1.882 -0.2710  0.1914 -0.1834
27215W        W43476  17.873  16.320   4.344  0.0804  0.3060 -0.1923
27216W        W43477  10.607   3.124   2.794  0.0942  0.3240 -0.0472
27217W        W43478  13.913   9.603  12.573 -0.3356 -0.0113 -0.0985
27218W        W43479   3.038   5.064   3.728  0.0378  0.0972  0.3001
27219W        W43480   0.073  15.065  11.474 -0.3463  0.0863  0.1814
27220W        W43481  15.564   8.745   0.134  0.0596  0.1949  0.0175
27221W        W43482  11.629  14.028  11.579 -0.1081  0.0488  0.0868
27222W        W43483   3.793  14.774   3.487 -0.1445 -0.0672  0.1376
27223W        W43484  13.906   6.222   3.416  0.1429  0.1332 -0.0915
27224W        W43485  14.523   3.093  15.779 -0.0513 -0.1965  0.2135
27225W        W43486   4.286   5.991  12.995  0.2389 -0.1149  0.2266
27226W        W43487   7.712   0.191  14.589 -0.0353 -0.1541 -0.2321
27227W        W43488  11.043   1.121  12.460  0.4777  0.1701  0.0134
27228W        W43489   3.721   7.953  11.933 -0.0042  0.2297  0.2551
27229W        W43490   7.274  12.340   1.680 -0.0330 -0.2123 -0.0621
27230W        W43491   9.460   4.612  13.361 -0.1700  0.0847 -0.0128
27231W        W43492  16.390  16.903   1.344 -0.0165 -0.0817  0.1093
27232W        W43493   7.399  17.351  16.140 -0.3234  0.1425  0.2081
27233W        W43494   5.997   6.232  13.512  0.1083 -0.4596  0.0508
27234W        W43495   5.639   7.161   0.350  0.1141 -0.0270  0.1916
27235W        W43496  12.154   2.570   0.333 -0.1167  0.0771 -0.0147
27236W        W43497   3.750   6.739   4.566  0.0724  0.2197 -0.1877
27237W        W43498  15.975  18.044  13.205 -0.2619  0.0936 -0.3695
27238W        W43499  14.413   7.474   0.567 -0.0884  0.0394 -0.5170
27239W        W43500   6.512  18.015   2.186 -0.3460 -0.1053  0.1715
27240W        W43501  12.206   7.553   4.238 -0.0877  0.4166 -0.4184
27241W        W43502   6.869  12.729   4.309  0.1794 -0.1183  0.1820
27242W        W43503   9.281   7.192  14.494 -0.1927  0.2664  0.0562
27243W        W43504  12.025  11.723   3.955  0.2189  0.1067  0.1639
27244W        W43505  13.385   5.546  14.153 -0.0966  0.0857 -0.0959
27245W        W43506  10.125  11.535  15.784  0.0392  0.1396  0.0354
27246W        W43507  13.411   6.557   6.427  0.1138 -0.2166 -0.0079
27247W        W43508  16.798  15.534  12.202 -0.0018  0.3379  0.0687
27248W        W43509   7.787   2.184  11.370  0.0643  0.1051 -0.1170
27249W        W43510  13.570   0.027  13.600  0.0635  0.0283 -0.0435
27250W        W43511  11.348   3.585  12.943 -0.1292  0.0949  0.3265
27251W        W43512   4.171  11.007   4.802 -0.2125  0.1568  0.2580
27252W        W43513  18.134  13.062  15.942  0.1245  0.0428  0.0122
27253W        W43514  15.162  12.175  10.626 -0.1990  0.2130  0.1730
27254W        W43515   1.037  17.908   2.945  0.0032  0.1092 -0.1025
27255W        W43516  14.081  11.882  15.238 -0.2777 -0.0538  0.0197
27256W        W43517  11.172   1.827   3.007  0.0392  0.2095  0.4118
27257W        W43518  15.846   1.895  11.728  0.0911  0.0705 -0.0160
27258W        W43519  14.017  15.318  13.047  0.2702  0.1785  0.1440
27259W        W43520   4.125   9.334  15.490  0.3280 -0.0322 -0.0871
27260W        W43521   5.656   0.029  13.655 -0.0744  0.2358 -0.0073
27261W        W43522  18.323   6.176   1.802 -0.0051  0.0191  0.3293
27262W        W43523   6.136   3.439  12.175  0.2684  0.2518 -0.0047
27263W        W43524   1.085  12.935   1.615 -0.1805  0.1032  0.1919
27264W        W43525  16.027  12.532   1.052 -0.0631  0.0702 -0.1157
27265W        W43526  16.762  18.484  12.909 -0.1250 -0.1226 -0.1778
27266W        W43527  13.567  15.222  10.831 -0.2251  0.0873 -0.2930
27267W        W43528   0.130  10.116   1.965 -0.0161 -0.1082  0.1768
27268W        W43529   4.660   7.185   0.629  0.0507 -0.3611 -0.1375
27269W        W43530  11.729   4.239  14.014  0.1766 -0.3047 -0.1222
27270W        W43531  13.724  14.226  10.511  0.0208  0.0579  0.3479
27271W        W43532  13.210  13.220  11.322  0.2302  0.1742  0.0068
27272W        W43533   9.642  10.822   0.701  0.0547  0.0081  0.2363
27273W        W43534   5.153  17.822  15.890  0.3881  0.0837  0.2026
27274W        W43535   0.116  17.081   4.025 -0.2784 -0.4154  0.2007
27275W        W43536   6.816  16.207  15.646  0.1852  0.0340  0.0871
27276W        W43537  16.265  13.539  10.799 -0.2278 -0.0808 -0.1821
27277W        W43538  10.999  11.859  11.796 -0.0724 -0.0001 -0.0821
27278W        W43539   8.378   3.674   1.099  0.1869 -0.3554  0.1270
27279W        W43540   6.425   3.691   5.163 -0.1756 -0.0019 -0.0060
27280W        W43541  11.988   8.013   1.892 -0.2691  0.0450 -0.0343
27281W        W43542   6.616  16.150   0.136 -0.0887  0.1467  0.3733
27282W        W43543  10.739   7.667  11.952 -0.0927  0.0847 -0.1729
27283W        W43544  12.442  12.208  15.525 -0.2622 -0.1555 -0.2080
27284W        W43545   4.475  13.767  12.542 -0.0476 -0.2773  0.1904
27285W        W43546  18.004  14.544  14.361 -0.1083 -0.0387 -0.1135
27286W        W43547  14.671   3.386   5.444  0.3713 -0.1090  0.0416
27287W        W43548   6.700  10.460   2.892  0.0808 -0.4534 -0.2415
27288W        W43549  14.381   5.281  11.289 -0.4883 -0.1007  0.2587
27289W        W43550  16.586   8.792  12.153  0.0993 -0.1545  0.1026
27290W        W43551   8.035   5.218   0.053  0.0851 -0.0882 -0.0064
27291W        W43552   3.413  10.161   1.246  0.0359  0.1617 -0.0855
27292W        W43553   6.858   4.868   1.911  0.3525  0.3182 -0.0014
27293W        W43554   1.086  16.787  12.044  0.0353 -0.2960 -0.2315
27294W        W43555   8.747  11.488   3.176  0.5642 -0.1607  0.0212
27295W        W43556  15.805  16.561   2.134 -0.4005  0.3024  0.1944
27296W        W43557  13.972   2.703   1.469 -0.1262 -0.1579 -0.1194
27297W        W43558  17.883  13.287  10.406 -0.0708  0.2419  0.1002
27298W        W43559   5.888  15.635   3.125  0.4051 -0.2496  0.0285
27299W        W43560   7.888   4.131  14.994  0.0478 -0.2010 -0.0755
27300W        W43561   6.614   1.010  12.001 -0.0001 -0.0257 -0.2455
27301W        W43562   5.169   8.405  11.953 -0.2151 -0.0748 -0.0845
27302W        W43563   6.373  15.337   0.367  0.0457  0.0310  0.0114
27303W        W43564  13.267   9.396   3.026  0.1588  0.0339 -0.0546
27304W        W43565  15.420   7.914  12.207  0.0150  0.0148  0.1106
27305W        W43566   9.679  16.827  15.780 -0.2054 -0.1054  0.2051
27306W        W43567   5.777   5.028  15.121  0.2063 -0.2056  0.0571
27307W        W43568  18.259  10.402  12.100  0.0455  0.1185 -0.0319
27308W        W43569   7.882   7.293   2.588 -0.1811  0.1636  0.1763
27309W        W43570  14.661  12.232  13.657 -0.0844 -0.0176  0.0919
27310W        W43571   2.003   7.579  15.740  0.0863  0.1677 -0.1079
27311W        W43572   9.044  10.645   4.041  0.0446 -0.0736  0.1746
27312W        W43573  12.072  10.107   5.669 -0.1046 -0.2304  0.1089
27313W        W43574   9.649  11.861   1.640  0.2553 -0.0472  0.2530
27314W        W43575  17.193  16.648  10.379 -0.1202 -0.1883  0.0823
27315W        W43576   6.271  10.623   3.239  0.1211  0.2267 -0.1241
27316W        W43577   5.567  15.532  14.988 -0.2917 -0.1576  0.0115
27317W        W43578   3.533  13.053  11.279  0.0778 -0.2518 -0.2827
27318W        W43579  14.650  13.993  13.355  0.0553 -0.0708  0.0240
27319W        W43580   1.932   6.880   0.606  0.0846 -0.2330 -0.0500
27320W        W43581  17.973  16.759  13.316 -0.3649  0.0393 -0.1040
27321W        W43582  13.539  15.981  10.284  0.1980  0.3104 -0.1007
27322W        W43583  10.936   7.865   4.681 -0.1664 -0.0703  0.0872
27323W        W43584   1.436   2.027   0.010  0.1286 -0.0399 -0.0820
27324W        W43585   0.150  15.792   0.736  0.0141  0.0254 -0.3119
27325W        W43586   9.412  16.628  12.759  0.1103  0.1758  0.0746
27326W        W43587  10.523  15.916  14.056  0.0979 -0.0651  0.0448
27327W        W43588  13.393   2.327  14.583  0.0312 -0.0441  0.3258
27328W        W43589  17.366  12.533  11.472  0.1731 -0.0776  0.2699
27329W        W43590   7.483  15.134  16.124  0.2550 -0.0680  0.0387
27330W        W43591  15.579   1.325   3.203  0.1146 -0.4568  0.1189
27331W        W43592   9.510   0.335   5.155 -0.1901  0.1311  0.0612
27332W        W43593  10.168   1.395  15.956 -0.0723 -0.0462 -0.1396
27333W        W43594  14.826   2.728   3.647  0.0360  0.1703  0.0991
27334W        W43595   1.718   9.554   1.146  0.1268  0.0922  0.0852
27335W        W43596   1.736  16.007   4.099  0.1175 -0.0911 -0.5059
27336W        W43597  11.264  10.721  14.066 -0.0504 -0.0745 -0.2385
27337W        W43598  13.394  16.893  10.922 -0.0140 -0.0736 -0.2399
27338W        W43599   7.530  13.868  15.100  0.0299  0.1882  0.0222
27339W        W43600  18.191   5.219   4.697 -0.0424 -0.1641  0.0266
27340W        W43601   6.974   7.332   0.967  0.3163  0.2399  0.0269
27341W        W43602   5.259  10.549   3.530 -0.1085  0.2959  0.0511
27342W        W43603   0.211   3.954   3.168  0.0063 -0.1704  0.0894
27343W        W43604  16.343   1.610  11.570 -0.5188 -0.0871 -0.0824
27344W        W43605   3.062  18.058   0.034 -0.2027  0.1715  0.4244
27345W        W43606   5.442   1.970  10.749  0.0099 -0.2258  0.0665
27346W        W43607   0.945  10.114  13.469  0.0433  0.0342 -0.0670
27347W        W43608   7.969   0.112   2.842  0.0196  0.0293 -0.0152
27348W        W43609  14.052  18.002  11.174 -0.1215 -0.3178 -0.0929
27349W        W43610  14.734   3.665  14.895 -0.0935 -0.0450 -0.1258
27350W        W43611   7.476   8.088   6.596 -0.0289 -0.0027 -0.1049
27351W        W43612  12.658   2.216  15.893 -0.1913 -0.0781  0.1662
27352W        W43613   4.984   3.306   5.522 -0.0565  0.3558  0.1580
27353W        W43614   7.473   8.961   2.592 -0.0382  0.2388  0.2670
27354W        W43615  11.137  15.233   2.038  0.0129  0.1508 -0.2021
27355W        W43616   8.582  17.587  11.428  0.3230  0.2003 -0.2158
27356W        W43617  17.272  16.914  12.026  0.0785  0.1154  0.2663
27357W        W43618  14.939   1.190   1.927  0.0549  0.0573 -0.4172
27358W        W43619  13.195   6.904   3.667 -0.0999  0.1613  0.0446
27359W        W43620   5.750   2.166  12.515  0.0991  0.0119 -0.1977
27360W        W43621  17.253   8.151  15.202 -0.0734  0.1523  0.0289
27361W        W43622  11.702   5.794   3.908 -0.1390  0.0346  0.0684
27362W        W43623   8.642   4.544   4.786 -0.3582 -0.0921 -0.1445
27363W        W43624   3.386  17.588  16.075  0.0896 -0.1580 -0.1755
27364W        W43625  10.834  14.155   5.242  0.0205 -0.1973 -0.1852
27365W        W43626   0.852   1.368  14.754  0.1809  0.0348  0.4681
27366W        W43627   5.216  12.690   0.529  0.0619  0.1278  0.0621
27367W        W43628   0.683  14.557  11.066 -0.2339  0.1012 -0.1135
27368W        W43629   8.485   1.778   4.105  0.1138  0.2440  0.1350
27369W        W43630   6.926   7.568   1.812  0.1054 -0.1922  0.2292
27370W        W43631   5.767   2.205   1.601 -0.0439  0.0160  0.3048
27371W        W43632   7.230   3.057   6.119  0.0834 -0.1235  0.0179
27372W        W43633  10.922   5.642   3.315 -0.2628 -0.0381  0.1936
27373W        W43634  14.229  11.910  11.424 -0.2583  0.0461 -0.0117
27374W        W43635  11.264  12.241   1.917 -0.1557  0.0640  0.0775
27375W        W43636   3.376  17.115   1.904 -0.1057 -0.3529 -0.0756
27376W        W43637   1.726   1.393   4.383  0.1990  0.1660 -0.1905
27377W        W43638  16.816  10.143   3.865  0.1206  0.3324  0.1487
27378W        W43639  17.871  12.245  13.795  0.1158  0.0923 -0.0723
27379W        W43640  10.720   9.440   4.056 -0.0501  0.2218 -0.0850
27380W        W43641   9.865  14.092   4.738  0.0631  0.1503 -0.0264
27381W        W43642   2.136  12.320   4.182  0.2658  0.2428 -0.1473
27382W        W43643   8.052   9.254   2.132  0.2437  0.0926 -0.3138
27383W        W43644  15.083  15.377  13.127  0.0045  0.1567 -0.2208
27384W        W43645  13.566  16.829   3.501  0.0832  0.2292 -0.3350
27385W        W43646   6.018   9.486  12.178 -0.1395 -0.0981  0.0199
27386W        W43647   4.083   0.134  15.155  0.1118 -0.0600 -0.0576
27387W        W43648   6.966   3.055   1.512  0.0089  0.0428  0.1417
27388W        W43649   9.702   6.936  12.431  0.0198  0.0729  0.2850
27389W        W43650  14.932   0.259  12.575 -0.3143  0.1586 -0.0378
27390W        W43651   7.674   6.464  14.779 -0.1362  0.0134  0.0936
27391W        W43652  14.437  10.693   4.354 -0.2966 -0.0170 -0.0059
27392W        W43653   1.237  18.041   1.368 -0.1427 -0.0724  0.1517
27393W        W43654   3.878   3.817  15.126  0.0501  0.0855 -0.0634
27394W        W43655  13.778   6.931   5.652  0.3595 -0.1361  0.0580
27395W        W43656  17.003   7.259  13.718 -0.0187  0.0692 -0.1260
27396W        W43657  12.613   1.892   1.662  0.1544  0.0132  0.0862
27397W        W43658   7.599   7.685   2.607  0.0610 -0.0009  0.1630
27398W        W43659   2.114  17.697  13.445 -0.0077 -0.3457 -0.0991
27399W        W43660   2.114   5.529   3.861 -0.2149  0.0118 -0.4020
27400W        W43661  15.054  12.213   1.430  0.1126 -0.0127  0.1832
27401W        W43662   4.829  18.194   6.194 -0.0945 -0.2312 -0.1804
27402W        W43663   2.462  16.184  12.473 -0.1501 -0.0108  0.3193
27403W        W43664  15.657  16.487  16.173  0.1062 -0.2131  0.0495
27404W        W43665   2.590  13.968  14.836  0.4431 -0.0707 -0.0407
27405W        W43666  16.768   1.447  12.901  0.0224 -0.2567  0.1120
27406W        W43667   8.517  12.456   4.944 -0.0480 -0.0480 -0.3388
27407W        W43668   7.808  15.595  13.962 -0.1928 -0.3136  0.0461
27408W        W43669   7.262   4.985   3.211  0.2095 -0.7656  0.1248
27409W        W43670   5.324   2.654  15.618 -0.1515  0.2852 -0.1941
27410W        W43671   3.587  17.056   0.635 -0.2059 -0.0414 -0.2508
27411W        W43672  15.014   9.341   3.192  0.0265 -0.2846  0.0564
27412W        W43673  15.780  17.166  13.168 -0.0871 -0.3086  0.0684
27413W        W43674   7.824   6.808  12.154  0.0181 -0.1347 -0.0030
27414W        W43675   0.592   1.236   1.620  0.1058 -0.1779 -0.1020
27415W        W43676  12.698  15.616  14.159 -0.1893  0.0329 -0.0197
27416W        W43677   5.164  13.604   5.893 -0.3704 -0.1669  0.2386
27417W        W43678   6.418   4.665  15.144  0.1278 -0.1283  0.0420
27418W        W43679   2.889  16.490   0.116  0.3079  0.0114 -0.2729
27419W        W43680  13.512  11.077   3.488 -0.2603 -0.1511  0.0900
27420W        W43681  16.998  11.011  12.359 -0.1156 -0.2248 -0.0908
27421W        W43682   7.952   4.474   3.789  0.2981  0.0163  0.1683
27422W        W43683   0.364   6.633   2.921  0.3434  0.0339 -0.0253
27423W        W43684   8.658  17.814  14.362  0.2942  0.2182 -0.2063
27424W        W43685   8.676   9.525   0.511  0.1557 -0.0776  0.2182
27425W        W43686  14.728   7.458  15.809  0.0600  0.1254 -0.1489
27426W        W43687  16.684  11.967  12.581 -0.0256 -0.2365  0.1172
27427W        W43688  14.068   1.258  12.372 -0.3007 -0.0959  0.0144
27428W        W43689   4.197  12.843   1.455 -0.1701 -0.1710  0.0265
27429W        W43690   9.455  13.640  11.915  0.1630 -0.0183 -0.2511
27430W        W43691   9.910   1.308   5.321 -0.1353  0.0706  0.2693
27431W        W43692  17.945   3.316   1.019 -0.0340  0.0401 -0.0702
27432W        W43693   1.077  14.967   3.229 -0.2911 -0.1350  0.0289
27433W        W43694  18.307  10.711  14.222  0.2489  0.2279 -0.1293
27434W        W43695   6.886   3.268  14.484  0.0769 -0.1627  0.3237
27435W        W43696   9.498  17.589   4.662  0.0784  0.0908 -0.0716
27436W        W43697  16.713  12.799   3.081 -0.0954 -0.1828  0.0093
27437W        W43698   4.529  16.126   2.252 -0.1628 -0.0751  0.0665
27438W        W43699   7.599   0.203   4.797  0.0998  0.0196 -0.3035
27439W        W43700   4.531   1.544  12.125 -0.2983 -0.0454  0.0822
27440W        W43701  17.214   1.710  13.629  0.1466 -0.0404  0.0678
27441W        W43702   9.014   9.763   4.549  0.1978  0.0998  0.1292
27442W        W43703  12.969   7.515  15.220  0.1724  0.2391  0.1692
27443W        W43704   9.265  14.978   0.917  0.0475  0.0258  0.2098
27444W        W43705   2.006   1.952  16.150  0.0443  0.0993  0.0865
27445W        W43706   4.402   7.378   0.211  0.2868 -0.0309  0.0423
27446W        W43707   1.836  11.290  12.955  0.0083  0.1912 -0.0488
27447W        W43708  15.344  17.564  13.678  0.2073  0.1972 -0.3172
27448W        W43709   9.472   4.287   1.387  0.0708 -0.1815 -0.1470
27449W        W43710   0.133   4.679   5.135  0.1735 -0.2422 -0.0125
27450W        W43711   5.681   5.402   4.806  0.1795 -0.0415 -0.0563
27451W        W43712   2.606  14.479  14.814 -0.1185 -0.0554  0.1165
27452W        W43713   2.182   7.638   0.021 -0.1185 -0.0138  0.2154
27453W        W43714  10.425  14.307   3.798 -0.0058 -0.1103 -0.0482
27454W        W43715   7.834  12.890   0.067  0.0808  0.1721  0.1660
27455W        W43716   2.802  16.394  14.849 -0.0211 -0.0514 -0.1081
27456W        W43717   8.061  11.128   1.289  0.1917  0.1264  0.2738
27457W        W43718   5.010   6.283   2.896  0.1294 -0.3288 -0.0574
27458W        W43719  10.088   3.913   5.831  0.1592  0.0153 -0.0825
27459W        W43720   8.825  14.921  13.580  0.2705 -0.3727 -0.0789
27460W        W43721   8.956   2.373   1.580 -0.1442 -0.0176  0.2768
27461W        W43722   1.237   7.914   5.654 -0.0060  0.1260 -0.1282
27462W        W43723  11.216   6.117   0.926 -0.0405 -0.1370  0.1440
27463W        W43724   9.825  18.072  12.576  0.2740  0.0633 -0.0742
27464W        W43725   7.850   8.564  15.557 -0.2254 -0.3895  0.1424
27465W        W43726  18.027   5.376   4.160  0.2758  0.1464  0.2003
27466W        W43727  14.501   6.883  14.285  0.0548  0.2345 -0.0302
27467W        W43728  12.733  16.856   3.769 -0.0737  0.1928  0.2581
27468W        W43729   1.637  13.431   0.950 -0.2718  0.0986  0.0018
27469W        W43730   7.092  12.024   2.072  0.1998  0.1068 -0.0848
27470W        W43731  15.190   3.065  13.078  0.0734 -0.1175 -0.0814
27471W        W43732   0.922   2.848  13.167  0.1693  0.2026 -0.1335
27472W        W43733  12.000  14.455   4.416  0.0531  0.1454  0.0171
27473W        W43734  18.039   8.642   4.044 -0.1259  0.2468  0.0382
27474W        W43735   4.797  11.848   0.584  0.2165 -0.0473  0.2731
27475W        W43736   2.518   7.619   2.419 -0.0722 -0.5896 -0.1963
27476W        W43737  11.686   3.818  14.636 -0.0650 -0.1664  0.2910
27477W        W43738   7.863  17.556  16.059 -0.2775  0.0363 -0.1429
27478W        W43739   7.433   8.534   1.810 -0.2493 -0.3215 -0.1586
27479W        W43740  12.895   8.892  14.368 -0.4623  0.2432  0.1534
27480W        W43741   5.611  10.621   2.778  0.0386  0.0316 -0.0477
27481W        W43742   8.741   6.053   4.760  0.0891 -0.0839 -0.3766
27482W        W43743  12.959   2.862   5.096  0.1988 -0.0711  0.3626
27483W        W43744   8.247  10.023   4.168 -0.3540 -0.1340 -0.2999
27484W        W43745   8.935  17.041   3.795 -0.1300  0.1762  0.1779
27485W        W43746  13.592   7.344   5.474 -0.1116  0.2199  0.2262
27486W        W43747  16.878  12.504  15.535  0.1055  0.1070 -0.2855
27487W        W43748   2.222   1.952   3.736 -0.1146 -0.1416 -0.2255
27488W        W43749   0.599  11.006   2.375  0.1289  0.2373 -0.0005
27489W        W43750   9.582   3.217   5.185  0.4535  0.1984  0.0099
27490W        W43751  12.682   0.210  12.456 -0.2784  0.1224 -0.0143
27491W        W43752   2.199  10.274  12.216  0.0434 -0.1368 -0.0077
27492W        W43753  11.870   8.086  15.992  0.1058  0.2023  0.0964
27493W        W43754   4.158   1.847  11.923  0.0814  0.1382  0.0498
27494W        W43755   7.616  16.968   6.015 -0.1569  0.2420  0.1098
27495W        W43756   1.298  15.731  13.846 -0.1031  0.1263 -0.0397
27496W        W43757  10.092   1.958   2.149  0.0431 -0.1408 -0.0328
27497W        W43758  14.565  17.129   2.588 -0.2683  0.0054 -0.1174
27498W        W43759   3.021  12.351   2.006 -0.2425 -0.2373  0.1167
27499W        W43760   0.233  16.311  15.074 -0.0651  0.1949  0.0538
27500W        W43761   3.665  13.463   2.919  0.1147 -0.1135  0.0129
27501W        W43762  10.270  12.162  12.052 -0.1866 -0.1571 -0.1728
27502W        W43763   7.365  15.284  12.628  0.0349 -0.0318  0.1121
27503W        W43764   1.389  10.512   1.972 -0.0388 -0.0773  0.2090
27504W        W43765   3.249   1.143  14.632  0.2186  0.0986 -0.3144
27505W        W43766  13.972  17.756  14.310 -0.0548 -0.0619 -0.1777
27506W        W43767   1.913   3.094  15.974 -0.2745 -0.0472 -0.1149
27507W        W43768  14.210  13.957  10.245  0.0182 -0.3819 -0.0858
27508W        W43769  14.519   4.825   4.436 -0.2253  0.0572  0.2402
27509W        W43770   9.252   9.357   4.311 -0.2437 -0.2902  0.0831
27510W        W43771   4.445   9.328   0.657  0.2159  0.0029  0.0853
27511W        W43772   8.104   2.080   0.799 -0.4296 -0.1773 -0.4458
27512W        W43773   2.368   3.466  15.280 -0.1773  0.0783  0.0866
27513W        W43774  10.349  15.480   4.174 -0.2105  0.0698 -0.1007
27514W        W43775   1.257  11.416   3.662 -0.1306  0.1111 -0.0854
27515W        W43776  18.435   4.195  11.489 -0.1046 -0.0026  0.0518
27516W        W43777   0.836  13.583   3.668  0.1623  0.1733  0.0876
27517W        W43778  14.840   7.173  12.821 -0.1065 -0.3634  0.2544
27518W        W43779   2.523   8.755   5.172 -0.4021  0.0894  0.1007
27519W        W43780  14.663  12.333  14.827 -0.0406  0.1223 -0.2543
27520W        W43781   3.973  12.537   4.873 -0.0330 -0.2228 -0.1571
27521W        W43782   7.666  16.457   5.466  0.2247 -0.0547  0.0057
27522W        W43783  12.069  16.169  11.487 -0.2852 -0.2263  0.1290
27523W        W43784   8.813  11.831   5.647 -0.3876 -0.2398 -0.2646
27524W        W43785  15.600  12.387  15.251 -0.1744 -0.1229  0.1047
27525W        W43786  15.307   4.932   1.224  0.0529 -0.1435  0.4358
27526W        W43787  14.051  14.137  15.413  0.1946 -0.2601  0.1820
27527W        W43788  15.222   7.602   2.225  0.0930 -0.1567  0.2448
27528W        W43789  13.621  16.617   1.171 -0.0005 -0.1097  0.2192
27529W        W43790   8.874   1.079   3.755 -0.2831 -0.2155  0.4732
27530W        W43791  15.014  12.260  13.141 -0.0854 -0.1142  0.0275
27531W        W43792  16.689  14.781   0.254 -0.0832  0.2410  0.2552
27532W        W43793   5.981   9.130  15.305  0.0468  0.1637  0.2176
27533W        W43794   1.095  17.107  13.467 -0.3255  0.3521  0.3908
27534W        W43795  13.911  10.322   1.564  0.0139 -0.0508 -0.3212
27535W        W43796   8.146  16.299  12.353 -0.1932  0.1072 -0.0308
27536W        W43797   3.311  15.807   6.268  0.0451  0.0010  0.0807
27537W        W43798  10.797  17.527  11.965  0.1385 -0.0391  0.1930
27538W        W43799   0.717   2.673   4.066 -0.0784  0.0629  0.1060
27539W        W43800  12.369   4.494   3.832  0.1331 -0.1347  0.2795
27540W        W43801  11.816  18.430  11.161 -0.2247 -0.1845  0.1368
27541W        W43802  15.470   0.565  11.113  0.0701  0.1583 -0.3102
27542W        W43803   4.116   3.851   2.517  0.1666 -0.1335  0.1430
27543W        W43804   0.791   1.316  11.655  0.2244 -0.0168  0.2347
27544W        W43805  15.042   3.029   3.330  0.0841  0.1958  0.0842
27545W        W43806   7.696  10.819   0.516  0.0313 -0.0466 -0.3905
27546W        W43807   5.548   7.327  13.224 -0.0263  0.1756  0.1838
27547W        W43808   7.282  17.900   4.160 -0.0135 -0.0698 -0.2457
27548W        W43809  14.584   0.675  15.151 -0.2002  0.0795 -0.3815
27549W        W43810   8.474  18.429  14.817 -0.3229  0.3434  0.1927
27550W        W43811  17.181   3.979   2.813  0.0144  0.1481 -0.2609
27551W        W43812   7.459   4.493  12.153  0.2072 -0.0949  0.0812
27552W        W43813   1.648  17.504   2.930  0.1104  0.0517  0.1296
27553W        W43814  18.207  14.615  10.460  0.1705  0.2748 -0.2078
27554W        W43815  14.019   4.108   4.503 -0.0070 -0.3389  0.2432
27555W        W43816   5.927   2.110   3.361  0.2526 -0.0155 -0.0362
27556W        W43817   1.452   3.215   1.116  0.0302 -0.0312 -0.1809
27557W        W43818   3.976   5.019   5.029  0.2236  0.1106  0.0152
27558W        W43819   0.482  13.532  15.140 -0.5091  0.1119 -0.0540
27559W        W43820   2.895   1.074   0.945  0.1232  0.0954  0.0497
27560W        W43821   5.650  10.735   4.853 -0.0109  0.1934  0.0215
27561W        W43822   7.090  11.885  13.346 -0.1985  0.0756 -0.5167
27562W        W43823  17.619   4.295  15.814  0.3221 -0.4517  0.0780
27563W        W43824   8.858   1.535  15.814 -0.0833  0.3058  0.0010
27564W        W43825   0.895   2.337   3.150 -0.1635 -0.2455  0.1287
27565W        W43826  13.808  17.181   3.720 -0.0286 -0.0543 -0.2268
27566W        W43827   8.185   0.647  14.865 -0.1017  0.1509 -0.0865
27567W        W43828  17.941   1.228  16.061 -0.0160 -0.0959  0.1923
27568W        W43829  11.520  14.641   4.278  0.0475 -0.1553  0.1721
27569W        W43830   7.346   4.310  13.422  0.0909 -0.2822 -0.0355
27570W        W43831  16.459   1.166  10.907  0.0136 -0.0283  0.0050
27571W        W43832   3.688   1.674   4.423 -0.0741 -0.0103  0.1856
27572W        W43833  15.212   3.229  15.309 -0.2799  0.1026  0.0627
27573W        W43834  15.961   1.988  14.280 -0.2368  0.2004 -0.0602
27574W        W43835  12.645   3.434  12.615  0.1865 -0.0197 -0.0661
27575W        W43836   0.939   2.099  13.083 -0.0208  0.1670  0.1097
27576W        W43837  18.244   7.732   5.077 -0.1573 -0.0802 -0.0919
27577W        W43838  12.077  13.603  13.462  0.0757 -0.2689  0.2972
27578W        W43839   6.389  12.972  15.243 -0.1307  0.1681 -0.0350
27579W        W43840  15.244  13.728   1.009 -0.1799  0.1365  0.1392
27580W        W43841   1.775  13.234  11.722 -0.1232  0.2035 -0.0360
27581W        W43842  17.886   2.047   1.261  0.2306 -0.0949  0.0530
27582W        W43843   8.160  15.445  11.591 -0.0869 -0.4044 -0.1559
27583W        W43844   4.175  13.813   0.758  0.2879  0.1006  0.4762
27584W        W43845  17.752  14.133  13.807 -0.2488 -0.2801  0.1370
27585W        W43846   2.158  18.123  14.379  0.0962  0.0337 -0.1068
27586W        W43847  12.449  13.796   0.316  0.1785 -0.1034  0.1216
27587W        W43848   5.774  10.112   2.806 -0.1267  0.0118  0.1243
27588W        W43849  14.981  13.583  12.894 -0.1926 -0.0943 -0.0982
27589W        W43850  12.513   4.035   1.335  0.1280 -0.2137  0.0003
27590W        W43851   1.917  16.989  15.187  0.0577 -0.1850 -0.2561
27591W        W43852   3.252   7.308   2.064 -0.4923 -0.0187  0.1033
27592W        W43853  16.978   6.693  12.319 -0.1898 -0.0173 -0.0469
27593W        W43854  16.238  13.135  15.316  0.0361  0.1631 -0.2253
27594W        W43855   4.522  15.021   3.494 -0.0139 -0.0766  0.0833
27595W        W43856   8.630  14.138   3.321  0.2702  0.0060  0.1459
27596W        W43857  14.368   3.752   3.571 -0.1556  0.0283  0.0056
27597W        W43858  14.819   2.134  11.510  0.1521  0.1520 -0.3120
27598W        W43859  14.194   7.965   4.129 -0.1131  0.0520 -0.1831
27599W        W43860   7.524   9.743   2.594 -0.0398  0.1503 -0.0262
27600W        W43861  17.511   2.325   2.269 -0.0541  0.3635 -0.0770
27601W        W43862  13.453  14.783  15.073  0.0587 -0.1994  0.2091
27602W        W43863   1.238  11.460   2.034  0.2566 -0.0412  0.1410
27603W        W43864   8.387   1.599   5.064 -0.0159 -0.0729  0.0245
27604W        W43865  10.145  13.224   3.586 -0.0159 -0.1891  0.2586
27605W        W43866   6.247   2.224  14.943  0.0931 -0.1776  0.1580
27606W        W43867   2.932  14.177  12.386 -0.1546 -0.2826  0.0779
27607W        W43868   3.775   2.656  13.434  0.2444  0.1145 -0.2420
27608W        W43869   2.838   5.490  16.077  0.1411 -0.3217  0.0373
27609W        W43870   9.073  10.248   3.315 -0.1128 -0.1196  0.1085
27610W        W43871   0.427  17.663   1.146 -0.3576 -0.0394 -0.1155
27611W        W43872  14.976  12.735   3.706  0.1808 -0.1119 -0.2172
27612W        W43873  13.826   9.874   3.495 -0.0770 -0.1636  0.2444
27613W        W43874  11.791  10.467   1.785  0.2464  0.3794  0.0669
27614W        W43875   3.296  15.089   4.212  0.2323  0.0368  0.1047
27615W        W43876  13.652  18.133   1.807  0.2008  0.0436 -0.1245
27616W        W43877  15.957  10.060  14.355  0.1649  0.2381 -0.0088
27617W        W43878   5.159  16.248   4.358  0.1153  0.1862 -0.0097
27618W        W43879   0.419   5.364  13.253  0.2199  0.3683 -0.1725
27619W        W43880  14.942   8.449  12.739  0.2317  0.1080 -0.3050
27620W        W43881   3.982   4.008   1.116 -0.2770 -0.1596  0.1079
27621W        W43882   9.033  14.106   0.870 -0.2759  0.1908 -0.2587
27622W        W43883   5.435   4.360   5.073 -0.2525 -0.1139  0.0809
27623W        W43884   5.224  13.052   1.041 -0.2233 -0.0607  0.0271
27624W        W43885  12.780  12.605  15.464  0.1761  0.2643  0.1071
27625W        W43886   3.961   5.084  11.754 -0.0447  0.1032  0.1102
27626W        W43887  13.797  12.162   3.029  0.0637 -0.0182  0.2462
27627W        W43888  14.134   6.100   0.717  0.3176  0.0398 -0.1466
27628W        W43889  13.392   4.197   3.805 -0.1743  0.2959 -0.1868
27629W        W43890   7.265  16.824   1.844 -0.1943  0.0672  0.0610
27630W        W43891   0.406   6.369   1.943  0.1112  0.2303 -0.1927
27631W        W43892  13.388  17.764   1.960  0.1910 -0.0971 -0.3143
27632W        W43893  12.853  10.420   0.518 -0.0298 -0.2356  0.1113
27633W        W43894   9.312  12.201  13.427 -0.3691  0.0132 -0.0120
27634W        W43895   8.630   2.371  14.903  0.0504 -0.0534  0.0302
27635W        W43896   4.446  10.446   3.580 -0.0278  0.0814 -0.1767
27636W        W43897  15.895   2.778  15.214  0.2590 -0.1121 -0.1055
27637W        W43898   6.785   3.289   0.432 -0.0973  0.1516  0.2660
27638W        W43899   7.862   2.649  14.909  0.0043  0.2668  0.0585
27639W        W43900  17.268   5.824  12.618 -0.0659  0.1946  0.1106
27640W        W43901  16.938   1.400   5.143 -0.1333  0.0238 -0.0985
27641W        W43902  12.312   6.390   3.488 -0.2965  0.2261 -0.0444
27642W        W43903   1.728   9.827  15.703  0.0704 -0.0404  0.0022
27643W        W43904  15.614   6.770   4.207  0.0512 -0.3279  0.0281
27644W        W43905  13.737   0.128   9.893 -0.1618 -0.0165 -0.1782
27645W        W43906   9.811  10.292   1.017  0.1578  0.0674  0.0158
27646W        W43907  16.269  17.360  13.109 -0.3909  0.0353 -0.3248
27647W        W43908  14.814   1.697   3.842 -0.2230  0.1441  0.0837
27648W        W43909   8.835   9.120   0.735 -0.0487  0.4542 -0.0923
27649W        W43910   4.165   6.928   3.068 -0.0165 -0.0832  0.0015
27650W        W43911  16.021  11.013   3.128  0.1312 -0.3639 -0.1541
27651W        W43912  13.238   7.021  13.402 -0.0634  0.2471 -0.3549
27652W        W43913   0.172  13.014  11.969 -0.0573 -0.1328  0.4996
27653W        W43914   2.614   6.031   4.437  0.1029 -0.1117  0.1883
27654W        W43915   8.199   3.786   3.130  0.3953  0.0249 -0.2365
27655W        W43916  17.196   4.699  14.387 -0.1437  0.1449 -0.1877
27656W        W43917  16.195   9.472  14.369  0.0054 -0.0302  0.1031
27657W        W43918  17.753  17.195  10.712 -0.0662 -0.2714 -0.0276
27658W        W43919  11.492   6.840   3.298 -0.1817  0.2965 -0.0905
27659W        W43920   1.635   8.296   5.897 -0.1712  0.2061  0.2833
27660W        W43921   4.348   2.481  13.848 -0.0966  0.0185 -0.1922
27661W        W43922  12.363   3.001  12.790  0.1391 -0.2579  0.0461
27662W        W43923  18.164   2.353  10.299 -0.2239  0.0955 -0.1757
27663W        W43924   4.243  11.963   4.749 -0.3039 -0.1321  0.1799
27664W        W43925   7.817  16.307   0.564  0.0912  0.0665 -0.1424
27665W        W43926   0.429  15.887  11.073  0.1598  0.0253 -0.0437
27666W        W43927  10.456  18.096   5.679  0.2677  0.0140 -0.1928
27667W        W43928   4.402   3.439   4.493  0.0520 -0.1443  0.1333
27668W        W43929   5.310  15.297  14.292  0.1111 -0.0680  0.0597
27669W        W43930  10.539  16.724  13.383 -0.0279 -0.1235  0.1309
27670W        W43931   9.560  13.136   1.907  0.0160 -0.0901 -0.0383
27671W        W43932   8.564   8.389  11.753  0.1142  0.2891  0.4137
27672W        W43933   3.700   1.456   3.968 -0.4341 -0.3157 -0.0047
27673W        W43934   8.897   5.891   3.519 -0.0808  0.0185  0.4063
27674W        W43935   0.280   8.815   0.040 -0.2502  0.2205  0.2203
27675W        W43936  17.386   5.445  13.558 -0.0752 -0.0610 -0.1593
27676W        W43937   5.934  12.784   1.684  0.3228 -0.0622 -0.1217
27677W        W43938   1.477   4.144  15.917  0.2496  0.2528  0.2649
27678W        W43939   4.946  12.711   0.100 -0.3012  0.2684 -0.0150
27679W        W43940  17.934  15.738  14.444  0.1081 -0.0198 -0.2911
27680W        W43941  17.707   7.615  11.522  0.3859  0.2234  0.1901
27681W        W43942   6.178  11.408  11.722 -0.0253  0.0510 -0.2640
27682W        W43943   2.057   3.957   1.835 -0.3388  0.1167 -0.0276
27683W        W43944   9.594  15.994   0.349 -0.1457 -0.0615  0.3187
27684W        W43945   0.105  12.773  13.660  0.0218  0.0875 -0.1613
27685W        W43946   0.096  16.565   4.120  0.0370  0.1016 -0.0303
27686W        W43947  18.481  15.270   0.116  0.1755 -0.1239  0.3582
27687W        W43948  10.593   9.641   1.152 -0.1150  0.2329 -0.0361
27688W        W43949   3.126   5.773  15.207  0.0906 -0.0974 -0.1949
27689W        W43950  14.932   0.695   1.527  0.1618  0.2169 -0.0168
27690W        W43951  11.217   5.821   4.059  0.2140 -0.1283 -0.3840
27691W        W43952   1.543  11.600   2.920  0.1050 -0.0147 -0.0052
27692W        W43953   4.834  15.227  11.108  0.1876 -0.0491 -0.0029
27693W        W43954   1.500   5.266   2.518 -0.1559  0.1403 -0.0930
27694W        W43955   7.255   3.084  13.726  0.1094 -0.2787 -0.2262
27695W        W43956  16.396  11.608  12.353 -0.2228 -0.1728 -0.2728
27696W        W43957   5.632   9.655  14.868 -0.1300  0.3648  0.1372
27697W        W43958  14.453   1.904   1.123  0.2010  0.2472 -0.1953
27698W        W43959  16.042   1.566  14.690 -0.1349  0.1351 -0.2125
27699W        W43960   5.861   7.975  14.929 -0.0020 -0.0062  0.0911
27700W        W43961  11.515   1.081   0.499  0.0308  0.0517 -0.0647
27701W        W43962   6.070   6.115  14.458  0.0593  0.1022  0.1140
27702W        W43963  18.403  16.398   0.954  0.0169  0.1677  0.1016
27703W        W43964  12.802   5.770   1.730  0.1421  0.1712 -0.1572
27704W        W43965   0.180  11.608  11.173 -0.4330  0.0765  0.1019
27705W        W43966   7.050   9.191  15.317 -0.0941  0.3562  0.3448
27706W        W43967   1.862   7.861  11.479  0.3241 -0.0892  0.0801
27707W        W43968   2.426   5.747   6.323 -0.0852 -0.0491 -0.1476
27708W        W43969  16.883  16.736   4.096 -0.3881  0.1191 -0.1158
27709W        W43970   9.101  11.193   2.780 -0.0475  0.1381 -0.1731
27710W        W43971   6.976  16.410   2.012  0.1403 -0.0630  0.4143
27711W        W43972  16.879   9.596   1.190  0.0874  0.4077  0.3691
27712W        W43973   9.171   4.157  13.278 -0.0633 -0.1815  0.1551
27713W        W43974  13.743  10.199  12.363  0.2553  0.1099 -0.2592
27714W        W43975  18.263   8.502   5.606  0.0455 -0.1159  0.2672
27715W        W43976   2.128   7.441  11.525 -0.4231 -0.0574  0.2894
27716W        W43977   5.829   4.810   1.069  0.2556 -0.1824  0.0960
27717W        W43978  15.777   4.130   3.689 -0.1881  0.0738  0.0769
27718W        W43979   6.575  11.734   4.531 -0.1215 -0.2183  0.0148
27719W        W43980   0.281  13.491  11.902 -0.1992 -0.1132  0.1922
27720W        W43981  16.755   6.196   0.589 -0.1533  0.0341 -0.1365
27721W        W43982   3.570  17.161   0.039 -0.3247  0.3250  0.1932
27722W        W43983  13.198  14.783   5.200  0.0882 -0.1857  0.2724
27723W        W43984  12.789   0.826  11.634  0.0060  0.2402  0.0051
27724W        W43985   1.042   8.134  13.580  0.1156 -0.0452 -0.2949
27725W        W43986   8.803   9.609  11.042  0.1410  0.3448  0.1494
27726W        W43987   1.558  14.872  11.551 -0.0754  0.2782  0.0267
27727W        W43988  11.551  14.096  14.636  0.1787  0.1250 -0.0296
27728W        W43989   7.196   7.238  13.489  0.2867  0.0548 -0.1901
27729W        W43990   3.515  13.142   1.337  0.3310 -0.3750 -0.1785
27730W        W43991   1.950   0.699   3.538 -0.1180  0.0270 -0.0093
27731W        W43992  16.714  13.301  15.545 -0.1732  0.0909 -0.1782
27732W        W43993  17.014   9.670   2.604 -0.1611  0.0185 -0.1614
27733W        W43994   9.128   0.688  14.491  0.1453  0.1215 -0.2767
27734W        W43995   1.871   3.228   0.677 -0.2975  0.2426 -0.1337
27735W        W43996  18.367   9.207   2.443 -0.1377  0.3549 -0.0990
27736W        W43997   3.723   3.735   3.568 -0.2140 -0.0992  0.1741
27737W        W43998   7.704  13.549  12.621  0.1537 -0.2064  0.0441
27738W        W43999   6.728   4.265  14.130 -0.1296 -0.1169 -0.1565
27739W        W44000  13.694   8.472  15.770  0.0521 -0.0550  0.3702
27740W        W44001  11.012   9.475   2.855 -0.2349 -0.1925  0.2019
27741W        W44002   4.932  10.406   2.238 -0.1513  0.1062  0.0627
27742W        W44003  14.007  15.102   3.414  0.2875  0.1836  0.1970
27743W        W44004   1.817   7.372   6.200 -0.3030  0.0600  0.0914
27744W        W44005   7.443   8.851   3.196 -0.6380 -0.1604  0.0842
27745W        W44006  16.052   5.620   1.572 -0.1331  0.1201 -0.1684
27746W        W44007   2.613   8.524   3.490 -0.0402  0.1915 -0.0774
27747W        W44008   2.000   2.902  15.085 -0.1772 -0.0365 -0.2162
27748W        W44009  10.570  18.311   4.238 -0.1754  0.1687  0.2619
27749W        W44010   2.448   5.166   5.636  0.0130  0.0919 -0.0518
27750W        W44011  12.650  15.146  13.935 -0.1511  0.0860 -0.3781
27751W        W44012   6.000   0.523  11.736 -0.0707 -0.0052 -0.0232
27752W        W44013  18.207   6.001   5.032 -0.0464  0.0319  0.2121
27753W        W44014  16.645   0.965   3.586 -0.0356 -0.0900 -0.1792
27754W        W44015  11.757   4.613  13.091  0.2236 -0.0921  0.0576
27755W        W44016   6.058   8.262  12.364 -0.2027 -0.0410 -0.0898
27756W        W44017   6.945  17.183  12.036 -0.0189 -0.0407 -0.0574
27757W        W44018   5.719  11.672  13.735  0.0911 -0.1663  0.0336
27758W        W44019  14.042   5.343  15.176 -0.1138  0.5166 -0.1712
27759W        W44020   8.793  11.117  14.684  0.3264  0.1605 -0.1173
27760W        W44021   1.220  16.161  10.531 -0.0960  0.3731  0.1805
27761W        W44022   7.928  15.666   1.109  0.0155 -0.1457  0.1801
27762W        W44023  13.926  11.359  13.913  0.3939  0.0207 -0.0167
27763W        W44024   7.837   1.006   2.867  0.1185  0.0261 -0.1766
27764W        W44025   0.960  12.866   0.122 -0.0057  0.3218  0.2460
27765W        W44026   0.977  14.306  13.513  0.1173 -0.1176 -0.1520
27766W        W44027   0.850  12.747  11.549  0.2376 -0.3419  0.2039
27767W        W44028   5.051   9.713  13.036  0.0850  0.2018  0.4228
27768W        W44029  17.263   5.790   5.283 -0.2755 -0.3926 -0.1117
27769W        W44030   4.025  17.584  14.295 -0.1273 -0.1383  0.1846
27770W        W44031  17.425   0.580  13.896 -0.2364  0.1887  0.1456
27771W        W44032   2.634   2.390   2.197 -0.0634  0.1203  0.3994
27772W        W44033  17.487  18.043   0.629  0.1083 -0.3099 -0.0734
27773W        W44034  14.745  13.284   3.426  0.3107  0.5176 -0.2907
27774W        W44035  14.575   9.041   5.599 -0.0713  0.1796  0.0840
27775W        W44036  15.895  16.671  13.276  0.0774  0.3304  0.1575
27776W        W44037   6.745   7.414  15.985 -0.2208  0.2939  0.0244
27777W        W44038  15.593   4.504   4.522 -0.0032 -0.1162  0.2716
27778W        W44039   8.849  12.567  13.316 -0.0571  0.1384 -0.1657
27779W        W44040   9.499   6.864  16.131  0.3742  0.0596  0.2652
27780W        W44041   9.006  13.953  11.917  0.0810  0.0170  0.1879
27781W        W44042  10.019   8.053  13.355 -0.0258 -0.0865 -0.2079
27782W        W44043   8.703   6.866   4.871 -0.4661 -0.3700  0.1080
27783W        W44044   8.184  17.717   2.497 -0.2176 -0.0674  0.2399
27784W        W44045   5.084  11.889   3.099  0.2856 -0.0067 -0.1115
27785W        W44046   2.407  18.262   5.244 -0.0539 -0.2157  0.2008
27786W        W44047  16.489  11.429   4.854 -0.3604  0.0851  0.1663
27787W        W44048   1.222   3.819   1.421 -0.1492 -0.1320 -0.2023
27788W        W44049   4.348   5.374  11.470 -0.2018 -0.2865 -0.1139
27789W        W44050  13.043  11.654   9.857 -0.0413 -0.2749 -0.0801
27790W        W44051  11.305  13.364  13.903  0.2372 -0.1168  0.2366
27791W        W44052  12.445  13.050   3.917  0.3241  0.2391  0.1440
27792W        W44053  17.183   2.421  15.016 -0.0204  0.2490  0.2473
27793W        W44054   8.152   1.485   0.060 -0.1631  0.0072 -0.1232
27794W        W44055  10.504  12.037  15.015 -0.2571  0.2952 -0.0830
27795W        W44056  13.556  12.274  13.288  0.2489 -0.1341 -0.1744
27796W        W44057   3.497  10.114   2.551 -0.2678  0.1573  0.1863
27797W        W44058   7.455   7.574   3.591 -0.3374  0.0001 -0.0067
27798W        W44059  10.703   9.994   1.767  0.2713  0.2697  0.0626
27799W        W44060  18.100  17.993  11.947  0.0723  0.0931  0.2883
27800W        W44061   6.522  16.695  15.600  0.2420  0.0144 -0.1006
27801W        W44062  11.420  15.154  15.483  0.0030 -0.2529 -0.1505
27802W        W44063  10.711   6.189  15.358 -0.0461  0.2771  0.2620
27803W        W44064   5.962   9.994  11.457 -0.2019  0.1824 -0.2193
27804W        W44065  17.537  14.904   0.866  0.1729  0.1186 -0.2558
27805W        W44066  12.138   6.672   2.145 -0.1214 -0.0508  0.1023
27806W        W44067  18.435   8.739  14.655  0.3391  0.0680  0.1081
27807W        W44068   8.919   1.274   1.015  0.0236 -0.2107  0.1912
27808W        W44069  17.940   4.895  11.511  0.5000  0.1436  0.3101
27809W        W44070  13.573   2.629   2.571  0.1073  0.2447 -0.1328
27810W        W44071  14.773   0.437   1.949  0.0331  0.2656 -0.1440
27811W        W44072   1.520   2.786   6.611  0.0784 -0.1390 -0.2265
27812W        W44073   2.030  11.702   1.807 -0.3803 -0.1963 -0.0390
27813W        W44074   9.678   3.420  13.589 -0.1059  0.2625  0.0145
27814W        W44075  13.774   3.436   0.586  0.0632 -0.0289 -0.6098
27815W        W44076   1.590   7.394   1.353 -0.1683 -0.2381  0.0415
27816W        W44077  17.890   5.035   3.433 -0.0208  0.1334 -0.0174
27817W        W44078   5.340   2.533  12.679  0.1742  0.1157 -0.2894
27818W        W44079  11.056   0.001   5.146  0.2410 -0.0119 -0.0412
27819W        W44080  13.641   6.569   3.807  0.2046 -0.1447  0.0729
27820W        W44081   8.942  13.742   1.424 -0.3457 -0.0506  0.4509
27821W        W44082  15.038   4.185  11.781  0.4029 -0.1713  0.0551
27822W        W44083  17.185   0.028   6.010 -0.0929 -0.2301 -0.0747
27823W        W44084   7.382  17.823   2.573  0.2958 -0.1323  0.0745
27824W        W44085  13.014   3.681  10.384 -0.0855  0.1478 -0.1390
27825W        W44086  17.399   1.430  12.394  0.2242 -0.0462  0.1497
27826W        W44087  11.011   0.884  12.904  0.2238  0.1715 -0.0731
27827W        W44088  18.199   8.166   1.693 -0.3729 -0.2198  0.1491
27828W        W44089  15.888   1.905  13.398 -0.1292 -0.0265 -0.1810
27829W        W44090   2.204   8.693   4.212 -0.2053 -0.1850 -0.0893
27830W        W44091  11.229   1.112   1.046 -0.3220 -0.1728 -0.0639
27831W        W44092  14.623  10.619  11.508 -0.0151 -0.0421  0.1616
27832W        W44093  18.447   4.550  14.950 -0.0444  0.0116 -0.1055
27833W        W44094  13.489   6.286   4.347  0.0939 -0.2287  0.1255
27834W        W44095  15.774   4.831   1.487 -0.0080  0.0399  0.1426
27835W        W44096  11.461  16.069   5.665 -0.2308  0.4482  0.1733
27836W        W44097   3.740  12.155   3.287  0.0773  0.1080  0.0634
27837W        W44098  13.109   8.957  11.303 -0.1808  0.1283  0.4843
27838W        W44099   3.154   1.114   6.130 -0.3629 -0.0401  0.0780
27839W        W44100   2.639  14.692  12.451 -0.1107 -0.3575  0.1976
27840W        W44101  12.402  12.575   2.429  0.1155 -0.1393 -0.2570
27841W        W44102   1.873   0.483  11.577 -0.1000  0.1693  0.1534
27842W        W44103  12.333  17.680  11.178 -0.3839 -0.1471  0.4932
27843W        W44104   4.996  15.286   1.996 -0.0919  0.0006 -0.1502
27844W        W44105  16.002   2.416   2.627 -0.0849 -0.0994  0.1106
27845W        W44106  15.891  17.051  13.649  0.1197 -0.0431  0.1722
27846W        W44107   7.729   8.188   1.617  0.2170  0.2558  0.0573
27847W        W44108   2.324  16.042  14.169 -0.2923 -0.0480 -0.0661
27848W        W44109  15.180   4.039  12.806  0.1023  0.1552  0.0424
27849W        W44110   1.937  17.316   2.551  0.1689 -0.0086  0.2656
27850W        W44111   0.649   8.481  12.810  0.3129 -0.2250  0.1831
27851W        W44112   1.048  16.645  14.127 -0.1705 -0.0042 -0.1105
27852W        W44113  15.568  14.317   5.140  0.0744 -0.3984 -0.2509
27853W        W44114   7.836  15.854   4.546 -0.1194 -0.2265  0.1278
27854W        W44115  18.450   0.326  13.638 -0.0036 -0.0782  0.0063
27855W        W44116  18.150  15.474   4.979  0.2488 -0.1993 -0.1663
27856W        W44117   7.938   9.129   4.049  0.0428 -0.2618  0.2207
27857W        W44118   0.935  14.102  11.317 -0.1273 -0.0911  0.0944
27858W        W44119   6.010   7.424  14.904  0.0188  0.0701  0.1879
27859W        W44120   2.174  11.985  11.825 -0.0262 -0.0345  0.1288
27860W        W44121   5.775  11.648  11.692 -0.0216 -0.0606  0.0980
27861W        W44122   9.191  12.902  12.772  0.0813 -0.2867 -0.2062
27862W        W44123   0.020   9.163  15.841  0.3307  0.0494  0.2859
27863W        W44124  11.057  16.213   0.310 -0.0419 -0.2265 -0.0406
27864W        W44125   1.966  16.516  15.065 -0.2610 -0.0054  0.0464
27865W        W44126  12.374  14.011  15.414  0.1210  0.0847 -0.1270
27866W        W44127   4.574   9.671   2.955 -0.2130  0.1133  0.0197
27867W        W44128  13.663  17.232   0.274 -0.3823 -0.0952  0.1331
27868W        W44129  17.876  16.004  12.368  0.2432  0.0061  0.0204
27869W        W44130   6.896  10.689  14.799 -0.0701 -0.0181 -0.0717
27870W        W44131  10.550  10.985   2.069 -0.0811  0.0016  0.2543
27871W        W44132   8.128  16.558  12.848  0.1963 -0.0345  0.0357
27872W        W44133  10.746   3.631  14.828 -0.0619  0.0022  0.3052
27873W        W44134   2.346   9.223  16.060  0.1063 -0.0030 -0.0419
27874W        W44135   9.615   1.580   0.677 -0.0004  0.1572  0.1091
27875W        W44136  11.571  17.733  15.678  0.0928  0.3294  0.3838
27876W        W44137   1.881  11.975  12.227 -0.0274 -0.5641 -0.0017
27877W        W44138   6.325   7.225   3.016 -0.1531  0.0444 -0.1263
27878W        W44139  15.254  11.244   3.220  0.0312  0.1962  0.2058
27879W        W44140  13.082   9.065   0.052  0.3816  0.0104  0.1209
27880W        W44141   8.694   1.090   1.866 -0.2529 -0.1381 -0.1461
27881W        W44142   2.237   9.700   0.827 -0.0565 -0.2028 -0.0432
27882W        W44143   8.777  17.779   2.208 -0.0828  0.1714  0.1603
27883W        W44144   9.090  17.031  14.374  0.4441  0.1768  0.0471
27884W        W44145  17.848  12.477  11.305  0.0280  0.2628 -0.1013
27885W        W44146   8.666  12.870  12.953 -0.0117 -0.2337 -0.2328
27886W        W44147   9.049   4.898   4.705 -0.6283 -0.2488  0.2583
27887W        W44148   6.586  17.655  15.523  0.0247 -0.0777 -0.1317
27888W        W44149   0.135   6.244   3.325  0.1012  0.0316  0.0994
27889W        W44150   6.585  13.136  14.833 -0.0980 -0.2083  0.2902
27890W        W44151   9.578   2.306   2.977 -0.1397  0.0033 -0.1126
27891W        W44152  10.484  13.217   1.415 -0.1201  0.3423 -0.2199
27892W        W44153   2.360  10.433  13.337  0.2274 -0.1887 -0.2393
27893W        W44154   3.826   4.074   0.310  0.0251 -0.3119 -0.0413
27894W        W44155   8.512   6.707   4.380  0.4777 -0.1114  0.0167
27895W        W44156  15.062   6.477  15.874  0.2284 -0.1077 -0.0875
27896W        W44157   3.911   9.064   3.439 -0.0266 -0.1990 -0.1246
27897W        W44158   8.165   9.091  11.142 -0.0691 -0.1371  0.0141
27898W        W44159   9.685   8.532  14.120  0.2683 -0.0289  0.1834
27899W        W44160   2.951  18.361   5.908 -0.1233  0.2967  0.0225
27900W        W44161   7.013   5.917   3.968  0.0492 -0.3306  0.0325
27901W        W44162   6.592   5.596   5.571  0.0654  0.3415  0.1062
27902W        W44163  14.778  14.408  15.265 -0.3964  0.0267  0.0152
27903W        W44164  10.094  14.294  13.798  0.2376  0.0085 -0.1285
27904W        W44165   0.776   7.449   5.181  0.0026  0.2028 -0.0447
27905W        W44166   1.470   0.553   3.782 -0.3600 -0.1597 -0.0927
27906W        W44167  10.007   7.051  12.930  0.0236  0.1315 -0.0207
27907W        W44168  14.438  14.181  10.683  0.1441  0.0932  0.0821
27908W        W44169   8.000  18.364  13.785  0.0271  0.2546 -0.2210
27909W        W44170  15.964  12.481   3.507  0.1465 -0.2355 -0.0966
27910W        W44171   3.640  13.340  14.758 -0.0252  0.0695 -0.1691
27911W        W44172  16.330  10.078   1.815  0.0267  0.0622  0.0421
27912W        W44173  15.196  15.876   3.574 -0.1554 -0.0381 -0.3457
27913W        W44174   2.941  10.468   3.319 -0.1551  0.2000  0.1376
27914W        W44175   3.777   4.822  13.522 -0.0408  0.2886 -0.1230
27915W        W44176  13.398   1.129   0.958 -0.1745  0.1378 -0.0032
27916W        W44177  14.523  17.009  13.033 -0.0446  0.0615  0.2720
27917W        W44178  11.269   1.025  14.383  0.1811 -0.1850 -0.1294
27918W        W44179   5.431  17.474   5.768  0.1916  0.0930 -0.0757
27919W        W44180   9.314   6.911   0.547 -0.2516 -0.0564 -0.0967
27920W        W44181   6.390  14.551   2.163  0.0574 -0.0720  0.1191
27921W        W44182   8.470  14.830   1.231 -0.1450  0.1301  0.1659
27922W        W44183   3.516  11.847  10.949 -0.3325  0.1368 -0.2672
27923W        W44184  17.846  15.061   2.266  0.1253  0.1572 -0.0611
27924W        W44185  16.909  14.047   3.794 -0.0654  0.0590  0.0763
27925W        W44186  16.550  11.107  11.547  0.2560 -0.0351  0.1255
27926W        W44187   4.514  15.165   4.071  0.0889 -0.3303 -0.1436
27927W        W44188  12.060  18.449  14.717 -0.2427  0.2936 -0.0543
27928W        W44189   1.863  17.399  13.033 -0.1467  0.0069 -0.0129
27929W        W44190   2.428   4.690   5.053 -0.1689 -0.0048  0.0703
27930W        W44191   0.655   0.015  15.813  0.3876  0.3247 -0.1097
27931W        W44192   5.333  16.521   3.495 -0.2101  0.3311 -0.2189
27932W        W44193  13.507   1.680  15.601 -0.0006 -0.0163 -0.0365
27933W        W44194   7.519   8.636   5.025  0.0922 -0.1357  0.1794
27934W        W44195  17.398  11.008  11.289 -0.1058 -0.0133  0.2470
27935W        W44196   1.366  17.055   2.909  0.0075 -0.2536  0.1301
27936W        W44197   1.209  12.347  11.762  0.2847  0.2979  0.3795
27937W        W44198   0.480   9.456   2.475 -0.0522  0.0645  0.3020
27938W        W44199   2.594   6.007  13.593  0.1091 -0.1359  0.0093
27939W        W44200   9.225  11.742  15.293  0.0487  0.3147 -0.2466
27940W        W44201   8.056   3.147   4.065  0.0810  0.2338 -0.0206
27941W        W44202   4.382   6.756  14.133 -0.2697  0.4885 -0.2199
27942W        W44203   0.631   6.960   3.196  0.0814 -0.0464 -0.0796
27943W        W44204   6.349   1.178  16.034  0.1041  0.0873  0.1454
27944W        W44205   2.200   2.686   2.107  0.0501 -0.4714  0.2434
27945W        W44206  16.833   6.151  11.395 -0.0534  0.4524 -0.0180
27946W        W44207  13.079  17.420  12.976  0.4269  0.0266 -0.3868
27947W        W44208   2.921   5.035   2.332  0.0913  0.0078 -0.1519
27948W        W44209  16.684  17.294  12.573  0.2742 -0.0562  0.3099
27949W        W44210   2.986  11.980   3.510 -0.3542  0.0139 -0.2433
27950W        W44211  18.415   4.536   4.649  0.1715 -0.1948  0.0752
27951W        W44212   9.992  14.859   0.862 -0.1306  0.0087  0.1553
27952W        W44213   6.334   9.664   3.191  0.4707 -0.3193 -0.0839
27953W        W44214  10.094   9.484   4.750 -0.2315  0.4140  0.0656
27954W        W44215  15.884  16.361  14.879  0.2120  0.0842  0.1257
27955W        W44216   4.676  17.452  13.957  0.1278  0.0170 -0.2253
27956W        W44217   9.585   9.387   1.272 -0.1115  0.0425 -0.0988
27957W        W44218  18.280   2.932  11.838 -0.1337 -0.1151 -0.2233
27958W        W44219   5.645   4.058  12.687 -0.1868  0.1019 -0.1056
27959W        W44220   3.496   6.012   3.918  0.3458  0.1323 -0.1254
27960W        W44221  11.675  16.480  12.905 -0.0014 -0.5113  0.0006
27961W        W44222  18.258  11.329   4.028 -0.2045 -0.1310  0.1238
27962W        W44223   3.860  17.679  12.482  0.0752 -0.1662  0.2172
27963W        W44224   8.782   8.656  15.115  0.0128 -0.4005 -0.1125
27964W        W44225  12.457   9.326   6.063 -0.2185 -0.0183  0.1021
27965W        W44226  14.147  12.260   1.074  0.2393 -0.0572 -0.1387
27966W        W44227  13.775   4.354  13.946  0.2385 -0.0722  0.0177
27967W        W44228  15.356   8.371   1.274 -0.1917 -0.0394 -0.2393
27968W        W44229   5.300   0.019   0.292  0.1961  0.0060 -0.3228
27969W        W44230  12.632  16.139   2.578 -0.2008  0.0693  0.0915
27970W        W44231   5.085   5.264   0.606 -0.2221  0.1247  0.1503
27971W        W44232  15.966   1.676   2.068  0.0588  0.4454 -0.1212
27972W        W44233   1.045   5.555  16.061 -0.3031 -0.1911 -0.0420
27973W        W44234  17.908  18.439  15.621 -0.0138 -0.1303  0.2737
27974W        W44235   3.448   8.200   2.077  0.3233 -0.2295  0.0687
27975W        W44236   6.319  13.532   5.223 -0.0359 -0.2000 -0.1999
27976W        W44237  13.926  11.211  15.327  0.0131  0.1444 -0.1416
27977W        W44238   2.598   0.417  11.355  0.1565 -0.2175  0.0072
27978W        W44239   1.288  17.076   0.319 -0.1691 -0.0525  0.3873
27979W        W44240  13.558   7.395   4.565  0.1740  0.0977  0.1800
27980W        W44241  12.720   8.258   5.384  0.0140  0.0190  0.1956
27981W        W44242  12.358  10.346  11.786  0.3002 -0.3265 -0.1593
27982W        W44243   9.433   0.005  13.747 -0.1208 -0.0476 -0.3139
27983W        W44244   3.448  12.010   5.971 -0.2041 -0.0392  0.1749
27984W        W44245   6.553  15.936  14.509  0.3640  0.3249 -0.0981
27985W        W44246  16.741  12.922  15.237 -0.3539  0.1462  0.1941
27986W        W44247   5.015   9.905  10.730  0.2496 -0.1025 -0.0828
27987W        W44248   7.715  14.097   0.717 -0.3665  0.0474 -0.2764
27988W        W44249   4.071  14.890   0.224 -0.1027 -0.0326  0.2778
27989W        W44250   0.039   2.277   2.277 -0.2065 -0.0065  0.2224
27990W        W44251  10.519   0.840  11.076 -0.0343  0.1309 -0.1418
27991W        W44252   3.670  14.275   0.881 -0.0786  0.0592 -0.2374
27992W        W44253   1.453   7.573   0.903  0.0338  0.0415 -0.2673
27993W        W44254  16.579  14.489   2.869 -0.1145 -0.0046 -0.1560
27994W        W44255  16.770  12.158   0.802  0.0201  0.2889 -0.1330
27995W        W44256   5.536  13.138  12.867 -0.2992 -0.1298 -0.2429
27996W        W44257  16.695   2.179   4.146  0.1730  0.0896 -0.0578
27997W        W44258   2.135   3.132   5.160  0.5159  0.0993  0.1923
27998W        W44259   5.534   5.555   5.314 -0.1627  0.2360  0.0425
27999W        W44260   0.809   9.060   1.319  0.0156  0.1002  0.0997
28000W        W44261   2.914   9.851  15.211  0.0451 -0.0977  0.0801
28001W        W44262   6.535   4.453  12.759 -0.0585 -0.0158 -0.1583
28002W        W44263   7.345   1.314  12.306  0.0624 -0.2001 -0.0422
28003W        W44264  17.432   1.097  13.690 -0.1545  0.2641  0.2649
28004W        W44265  13.955  14.829  15.131  0.2632  0.1466  0.2433
28005W        W44266   1.784  11.699   4.449  0.2799  0.0096  0.2815
28006W        W44267  11.561   1.486  11.292 -0.0911 -0.2130  0.0687
28007W        W44268   2.521   0.260   1.499  0.3365  0.0722 -0.0187
28008W        W44269  10.137   4.049  15.649 -0.2696  0.0082  0.2036
28009W        W44270   8.489   9.511  13.683 -0.2374 -0.0561  0.3093
28010W        W44271  15.569   4.937  11.830  0.2333 -0.1581 -0.1427
28011W        W44272   3.675   9.211  12.066  0.1432  0.2241  0.0417
28012W        W44273   7.666  15.158   2.676 -0.0696  0.2176 -0.1747
28013W        W44274  11.983   4.841   2.477  0.5850  0.0652  0.1064
28014W        W44275   8.407   5.477   3.225  0.0084  0.3871  0.0769
28015W        W44276   4.748   8.249   0.569 -0.3236  0.3566 -0.0186
28016W        W44277   3.299   5.050  14.763  0.1926 -0.1632  0.0828
28017W        W44278   0.816  17.021  16.067 -0.2606 -0.3326  0.0336
28018W        W44279   5.410  10.658   2.346  0.0977 -0.1155 -0.3351
28019W        W44280   6.682  10.101  11.999  0.0370  0.1321  0.1718
28020W        W44281   2.156  17.800   5.009  0.0566  0.1549  0.1700
28021W        W44282  17.586  10.233  11.623 -0.3003 -0.2523  0.0793
28022W        W44283   8.658   7.262  12.451  0.0516  0.2147 -0.2181
28023W        W44284   2.586  16.068  11.982  0.0614  0.0873  0.1257
28024W        W44285  16.067   5.731   3.483 -0.1488  0.0694  0.3460
28025W        W44286   5.576  17.729   3.588  0.2448  0.0196 -0.0950
28026W        W44287   5.662  13.865  15.385 -0.2601 -0.2088  0.0083
28027W        W44288   1.095   4.318  15.631  0.1194  0.1470  0.0038
28028W        W44289  15.652  10.692  11.328 -0.1170 -0.0158  0.2798
28029W        W44290  10.572  15.531   4.731  0.2987 -0.0286  0.1050
28030W        W44291   5.163  16.851  12.853  0.2586  0.1501 -0.0575
28031W        W44292   0.764  14.905  14.380 -0.2242 -0.0441  0.0327
28032W        W44293   2.023   9.779  11.686  0.2023 -0.1751 -0.0808
28033W        W44294   1.728   6.597   4.128 -0.1450  0.2689  0.1568
28034W        W44295   5.495  17.740   2.139  0.0770 -0.0048  0.0584
28035W        W44296   9.841  12.559   0.122 -0.2819 -0.2546 -0.1440
28036W        W44297  10.819  15.907   4.527 -0.3090  0.1339 -0.1146
28037W        W44298  13.842   5.664   4.178  0.0302  0.0830 -0.0996
28038W        W44299   6.758  18.081   0.714 -0.2295  0.1387  0.0073
28039W        W44300  14.380   9.905  15.024 -0.2450  0.2930 -0.2584
28040W        W44301  17.690   9.028   3.507 -0.5417 -0.2191 -0.0955
28041W        W44302   8.612  15.265  11.344 -0.3603 -0.0198  0.0527
28042W        W44303   6.945   0.207  14.331  0.0403 -0.0319 -0.1083
28043W        W44304   1.015   1.869  14.419 -0.0198 -0.4823 -0.3495
28044W        W44305  12.223  13.865  14.795 -0.1098 -0.0497  0.5308
28045W        W44306  15.904   1.528   4.179  0.2648 -0.2568 -0.2108
28046W        W44307   1.526   4.982  12.483  0.1107 -0.2466 -0.3045
28047W        W44308   0.899   6.204  15.235  0.2225  0.0584  0.0626
28048W        W44309   6.747  14.286   1.911  0.0130 -0.0098  0.1322
28049W        W44310   2.692   4.353   4.850  0.0303  0.0419  0.1260
28050W        W44311  16.210   2.530  14.407  0.0300 -0.1447 -0.1502
28051W        W44312  12.646   7.775   0.738 -0.0637 -0.0122  0.0911
28052W        W44313  14.861  10.712   4.095  0.0401  0.1747 -0.0149
28053W        W44314   2.080   3.273  12.265  0.0281 -0.0606 -0.2876
28054W        W44315   4.820   4.995  15.514  0.0210 -0.0165  0.0766
28055W        W44316   6.585  18.450  16.010 -0.1892  0.0724  0.0875
28056W        W44317  14.971   0.199   5.453  0.0480 -0.0061 -0.0583
28057W        W44318  11.578  17.876   1.424  0.1813  0.0445  0.0930
28058W        W44319  16.313   6.398   0.689 -0.0851 -0.1020 -0.1831
28059W        W44320   9.644   1.700   6.098  0.0489  0.2356 -0.0405
28060W        W44321   4.902  18.333  12.946 -0.1195  0.0901 -0.3192
28061W        W44322  15.574  17.754  12.529 -0.3067 -0.0672  0.0746
28062W        W44323  14.338   9.885  10.792 -0.0663 -0.0720 -0.0110
28063W        W44324   2.075  10.293   5.320  0.1327  0.1402 -0.3421
28064W        W44325   4.009   6.282   0.144  0.0382 -0.1835 -0.1242
28065W        W44326   1.310   6.170  14.989  0.1555  0.0512  0.0569
28066W        W44327  15.255  14.453  12.256  0.3898  0.0898  0.0531
28067W        W44328  17.632   2.895  13.961 -0.2360 -0.2330  0.2340
28068W        W44329   1.019   7.723   3.073  0.1024 -0.1436  0.2982
28069W        W44330   1.301   3.371  13.342  0.4094  0.0358 -0.1588
28070W        W44331  14.214   0.667   2.206  0.1901 -0.1891  0.5049
28071W        W44332  14.945   7.377   0.852 -0.0949 -0.1766 -0.0425
28072W        W44333   7.212   0.351  14.795  0.4173 -0.1492  0.2107
28073W        W44334   0.643   4.538   0.112  0.0633  0.1062 -0.1419
28074W        W44335   6.818   8.964   5.566 -0.0057  0.0898 -0.2084
28075W        W44336   3.348  15.299  15.237 -0.1176  0.0663  0.1925
28076W        W44337   4.074  18.431   4.428  0.1088  0.1767  0.1646
28077W        W44338   3.784   9.737  14.202 -0.2749  0.1147 -0.0608
28078W        W44339   0.557   3.507  14.138 -0.2753 -0.1099  0.1938
28079W        W44340   1.486  17.925   4.423 -0.0328  0.0943 -0.1248
28080W        W44341  12.865  12.255   0.246 -0.1744  0.2084 -0.0490
28081W        W44342  18.009   5.991   1.403  0.5050  0.1293 -0.2615
28082W        W44343   5.227   2.980   4.618  0.3058  0.2399 -0.1091
28083W        W44344  16.248   5.250  14.287  0.0841 -0.2102  0.5737
28084W        W44345   5.298  14.316   4.856  0.2504 -0.3101  0.5583
28085W        W44346   8.770   9.148   1.530  0.0297 -0.1171  0.1931
28086W        W44347   8.922   5.955  12.928 -0.0600  0.0639  0.0160
28087W        W44348  13.887   4.961   5.359  0.0598  0.0732 -0.0275
28088W        W44349  16.390  14.091   3.825 -0.0277 -0.0569 -0.0608
28089W        W44350   8.363  15.226  11.999 -0.1660 -0.2100 -0.3526
28090W        W44351  12.336   0.272   4.660 -0.2282  0.1070  0.0566
28091W        W44352  10.324   4.317  12.562  0.2842  0.0213  0.0610
28092W        W44353   8.904   7.207   5.472  0.0448 -0.0892  0.0207
28093W        W44354  18.332   7.423   2.991 -0.1494 -0.0744  0.1998
28094W        W44355  14.459   4.990  15.324  0.1343 -0.0829 -0.3531
28095W        W44356  10.144  12.571   3.358  0.0090 -0.0692 -0.5974
28096W        W44357   2.277  14.749  12.071  0.2071  0.3680  0.1715
28097W        W44358   5.351  17.331  12.785 -0.0107  0.0871  0.1333
28098W        W44359  12.617   5.366  15.886  0.0623 -0.1474  0.0540
28099W        W44360   1.436   9.768   0.793 -0.2888  0.1414 -0.0093
28100W        W44361  10.951   1.658   2.550 -0.0009  0.1526 -0.1438
28101W        W44362  11.195  10.506  12.850 -0.1089 -0.0453 -0.1168
28102W        W44363   5.953   0.114  14.650  0.4497  0.0322  0.2124
28103W        W44364   7.351  17.285   2.976 -0.1075  0.0388  0.0658
28104W        W44365   9.718  17.557  13.401 -0.0838  0.2022  0.0632
28105W        W44366  13.445   9.743  13.531  0.5861 -0.3097  0.1872
28106W        W44367   6.345   8.761   5.629 -0.2547  0.1400 -0.2039
28107W        W44368   5.184   3.167  12.769  0.0595  0.0996 -0.1666
28108W        W44369   7.376   0.513  15.629 -0.4511  0.0559 -0.2494
28109W        W44370   8.876   2.664  14.109 -0.4900  0.0024  0.0508
28110W        W44371  10.107   5.146   1.981  0.3236  0.0785  0.2467
28111W        W44372   9.619  14.080   1.783  0.3315 -0.1482 -0.3819
28112W        W44373  11.833   9.368  11.205 -0.1178  0.1062  0.2620
28113W        W44374   0.339   8.969   0.677 -0.0752 -0.0298 -0.2101
28114W        W44375   1.464  13.126  15.701  0.1177 -0.0958 -0.2095
28115W        W44376  12.032  17.275  11.001 -0.3091  0.0382  0.1220
28116W        W44377   6.717  14.651  15.123 -0.0030  0.3127  0.1697
28117W        W44378   0.332  13.960   0.247  0.2634  0.1400 -0.1063
28118W        W44379  18.481   3.299  15.416 -0.0783 -0.0271 -0.0976
28119W        W44380   5.729  15.311  14.571 -0.0993  0.0043 -0.4791
28120W        W44381  11.230   2.687  13.226 -0.1255  0.2140 -0.1069
28121W        W44382   4.109   6.088  13.474  0.1114  0.0346  0.1477
28122W        W44383   4.692  14.301   4.092  0.1308 -0.0297 -0.1726
28123W        W44384   9.655  15.285   0.949  0.0651 -0.0451  0.2967
28124W        W44385   1.050  14.039   2.765  0.1109 -0.0422 -0.0910
28125W        W44386  14.938   8.783  11.145 -0.0788 -0.2237  0.2019
28126W        W44387   8.836  10.473   0.333  0.3757 -0.1434 -0.3047
28127W        W44388  11.537  17.718   2.551  0.0636  0.2255 -0.0086
28128W        W44389  13.314   3.931   4.326 -0.0312 -0.1627 -0.1711
28129W        W44390   9.167  14.916   3.770  0.2652 -0.1161  0.0166
28130W        W44391   0.940  10.275  15.500  0.2901 -0.2104  0.1914
28131W        W44392  13.740   9.544   3.134 -0.1048  0.3128 -0.0918
28132W        W44393   8.895   1.760   0.108 -0.0368  0.2069 -0.1885
28133W        W44394   6.156   8.818  12.701 -0.2198  0.0916  0.0250
28134W        W44395   0.744  16.996   3.958 -0.1841  0.3182  0.2134
28135W        W44396  10.627   9.469  15.182 -0.0749 -0.2797  0.1027
28136W        W44397  15.951   7.620   3.841  0.1634  0.0232 -0.1498
28137W        W44398   5.519   5.692   3.037 -0.1447  0.1725 -0.2396
28138W        W44399  12.917  14.964  12.346  0.3721 -0.2538 -0.0581
28139W        W44400  18.131  13.553   1.202  0.0322  0.0538 -0.0209
28140W        W44401  15.201   1.759  10.365  0.3462 -0.0267 -0.0519
28141W        W44402   2.259   4.580   5.538  0.1738  0.0214  0.2124
28142W        W44403   9.445   2.301   3.881 -0.1049 -0.2167 -0.0999
28143W        W44404  15.033   1.184  12.575 -0.1081 -0.0968 -0.3806
28144W        W44405   6.101  14.684   2.590 -0.1586  0.0171  0.0233
28145W        W44406  17.043  17.066   3.293 -0.0642 -0.0949  0.0316
28146W        W44407   3.279  16.710  12.046 -0.1027 -0.0716 -0.0938
28147W        W44408   1.725   1.811  11.926  0.1283 -0.1957  0.0531
28148W        W44409  14.292  11.421   2.400  0.0067 -0.0665  0.0259
28149W        W44410   0.165   8.344   0.971  0.2437  0.3147  0.0977
28150W        W44411  11.665   9.335  12.389  0.2430  0.1660 -0.0561
28151W        W44412   2.918  13.296  12.706 -0.1849  0.0417 -0.0515
28152W        W44413   3.595  11.859   4.433  0.5064 -0.0735  0.1363
28153W        W44414   8.240  12.587  16.149 -0.1643 -0.3183 -0.0864
28154W        W44415  15.254  10.266  13.990  0.0605  0.1596  0.3568
28155W        W44416  13.830  11.222   1.490  0.1866 -0.0272 -0.0176
28156W        W44417   2.978  13.481   5.838 -0.0670  0.0844 -0.1056
28157W        W44418  16.438  12.887  14.827  0.2955 -0.1532  0.2624
28158W        W44419   6.439   2.854   0.272 -0.0755  0.2710 -0.0062
28159W        W44420  16.686   5.109   4.121  0.1133 -0.3529  0.0751
28160W        W44421  10.400   1.252  13.867 -0.1829 -0.1299  0.0432
28161W        W44422  15.111   1.168  14.775 -0.0434 -0.0421  0.5240
28162W        W44423   1.531   3.668  11.795  0.0777  0.1046  0.1185
28163W        W44424  13.189  17.900  11.844 -0.0576 -0.0296 -0.1285
28164W        W44425   5.322   4.197   1.384 -0.2608  0.0197  0.4418
28165W        W44426  17.120   7.305   3.252  0.0683 -0.2310  0.2496
28166W        W44427  14.954  10.705  14.120 -0.3241  0.1358 -0.2311
28167W        W44428  13.802  15.649  16.110  0.0970 -0.1904  0.1163
28168W        W44429   2.298  14.073   5.384 -0.2011 -0.1453  0.5838
28169W        W44430   6.157   8.256  15.652 -0.1681  0.0490  0.0830
28170W        W44431  14.251   6.901   2.926  0.1768  0.0668  0.0187
28171W        W44432   8.195  11.061  15.363 -0.1100 -0.1038  0.3435
28172W        W44433   0.910   5.256   4.982  0.0595  0.0339 -0.1020
28173W        W44434   4.125  14.208  14.934  0.0854 -0.3889  0.3133
28174W        W44435   8.199  12.012  12.146 -0.0931 -0.1655  0.1843
28175W        W44436   4.547   0.054   1.983  0.3617  0.0443 -0.5317
28176W        W44437   0.022   3.698   1.173 -0.1534  0.0541 -0.3970
28177W        W44438  17.777  12.042   3.577 -0.3690 -0.0760  0.1122
28178W        W44439  17.377   3.062   4.334  0.1451 -0.0955 -0.2845
28179W        W44440   6.495  13.403   2.078 -0.1242 -0.2455  0.2180
28180W        W44441   6.043  15.493   5.152 -0.0300 -0.2052 -0.0174
28181W        W44442  15.389   2.134  11.585  0.1789 -0.1570  0.2849
28182W        W44443   4.130   4.292   0.681 -0.2525 -0.3207 -0.1920
28183W        W44444  14.548   5.617   0.648  0.0903  0.1548 -0.2479
28184W        W44445  12.750   7.147   3.310 -0.0545  0.2295 -0.1348
28185W        W44446  13.490  11.725   3.114 -0.3092  0.5644  0.2509
28186W        W44447   5.148  13.746   2.159 -0.1124  0.0945 -0.0020
28187W        W44448   3.395   6.617   0.188  0.0623 -0.1679 -0.1176
28188W        W44449   4.084   1.555  15.750 -0.0968 -0.0882  0.1697
28189W        W44450   6.137  14.495   6.012  0.0020 -0.0300 -0.1645
28190W        W44451  10.515   3.163   1.123  0.2837  0.1883 -0.0794
28191W        W44452   6.256   6.326   5.115  0.1230  0.0125  0.0789
28192W        W44453   9.811  12.403   2.443 -0.1102 -0.2632 -0.2275
28193W        W44454   2.049  17.419   4.041 -0.2198  0.1917  0.0028
28194W        W44455   1.594  13.056  15.119 -0.0911 -0.2511  0.0001
28195W        W44456   7.711   9.576  15.128 -0.1919  0.0831 -0.3151
28196W        W44457   6.254   8.490   4.668  0.0344 -0.0165 -0.1786
28197W        W44458   7.340  17.240   0.910 -0.0561 -0.4257 -0.0575
28198W        W44459  15.507  15.157   4.685  0.0407 -0.1997 -0.1097
28199W        W44460   7.801   9.727  11.157 -0.3317 -0.1131 -0.0608
28200W        W44461   0.695   1.786  11.370  0.1391 -0.0834  0.0970
28201W        W44462   4.603  14.466  13.492  0.1901 -0.2875 -0.2803
28202W        W44463   6.510   4.932   2.914 -0.1024  0.0490  0.0135
28203W        W44464   0.824   1.596   2.636  0.1024 -0.2164 -0.1821
28204W        W44465   9.709   1.934   3.383 -0.1202  0.0475  0.1843
28205W        W44466  15.636  13.257   3.194 -0.1312  0.2306  0.1671
28206W        W44467  15.550  17.802   3.981  0.4430  0.0052 -0.2265
28207W        W44468   7.131   4.994  15.339  0.0130  0.2311 -0.1507
28208W        W44469  15.925  16.167  10.497 -0.2073 -0.0172 -0.0582
28209W        W44470   3.208   8.134   0.681  0.1617 -0.0890 -0.0051
28210W        W44471  14.244   0.247  10.497 -0.4828  0.0689  0.2213
28211W        W44472  11.767   7.370  12.702 -0.3337 -0.0517  0.2007
28212W        W44473   7.522   5.179   0.929  0.1551  0.0045 -0.2252
28213W        W44474   1.083   5.286  15.479 -0.0661  0.1488  0.0020
28214W        W44475   6.904  17.968   5.326 -0.2942 -0.2379 -0.3123
28215W        W44476   7.815  15.309   0.782  0.1378 -0.0872 -0.1234
28216W        W44477  11.429  11.553   2.138  0.1124 -0.0878  0.1999
28217W        W44478   9.364   4.444   5.324  0.3123 -0.0296  0.0486
28218W        W44479   7.089   2.974   3.991 -0.2256 -0.2973 -0.1481
28219W        W44480   7.178   3.154   2.531  0.3495  0.2597 -0.0525
28220W        W44481  16.217   8.169   0.306 -0.2141 -0.0998 -0.1083
28221W        W44482  11.755  12.960  15.659 -0.4235 -0.0093 -0.0137
28222W        W44483   6.827   4.406   4.497 -0.3750  0.0213  0.0826
28223W        W44484   3.707  17.539   0.468  0.1940 -0.2216 -0.2006
28224W        W44485  14.780  17.927   4.205 -0.1863 -0.1114 -0.1841
28225W        W44486  10.088   9.503   1.999  0.0750  0.3480 -0.1329
28226W        W44487   6.562  10.301  15.743  0.0391  0.1245  0.1095
28227W        W44488  16.857  13.903  11.254 -0.2605 -0.1978 -0.3069
28228W        W44489  16.173  16.741   9.472 -0.1377 -0.1674  0.1881
28229W        W44490   8.661  17.736   2.683 -0.2287  0.3245  0.0721
28230W        W44491   6.420   3.619  14.248 -0.3458 -0.1000 -0.1657
28231W        W44492  13.600  10.618  11.333 -0.4052 -0.1102  0.2000
28232W        W44493   3.271  14.787   2.380  0.1135  0.0856 -0.1155
28233W        W44494   8.302   7.190   0.388  0.0071 -0.0911  0.0770
28234W        W44495   2.603   1.448   4.189 -0.0311  0.1176  0.0245
28235W        W44496   3.682   3.196  12.496 -0.0702 -0.2185  0.2003
28236W        W44497  16.034  15.402  11.322  0.1986  0.1189  0.1181
28237W        W44498  10.585   9.792   4.868  0.0784 -0.1123 -0.0952
28238W        W44499   9.316  15.707   3.258 -0.1702 -0.0239 -0.0250
28239W        W44500   1.949  15.803   1.657 -0.1156 -0.0091 -0.0886
28240W        W44501  13.257   2.665   2.125  0.0101 -0.1290 -0.0775
28241W        W44502   8.385  10.342   1.629 -0.0731 -0.0041  0.2575
28242W        W44503   6.229   1.848  15.496  0.1586 -0.0409 -0.4024
28243W        W44504   5.206   8.669  12.728  0.2121  0.2728  0.0394
28244W        W44505  13.832   3.226   2.615 -0.0412 -0.0307  0.2002
28245W        W44506   3.130  17.587  10.468 -0.0436 -0.4988  0.4101
28246W        W44507  15.625  13.576  16.112  0.2311  0.3987 -0.0351
28247W        W44508  16.702  14.907   2.533  0.0865  0.0219  0.1200
28248W        W44509  16.336  13.398  12.765  0.0639  0.2916 -0.2125
28249W        W44510   3.986  16.915  15.376 -0.3146 -0.0157  0.0418
28250W        W44511  15.575  12.695  14.692 -0.0651  0.2669  0.2932
28251W        W44512  14.071   0.472   4.055 -0.2086  0.2254 -0.3295
28252W        W44513  12.588  12.995  13.017  0.4231  0.1232 -0.1866
28253W        W44514  10.958   9.313  11.374  0.0763  0.1871  0.2471
28254W        W44515  11.315   3.809  10.579  0.2097 -0.2617  0.0584
28255W        W44516  17.944  11.319   4.986 -0.3006  0.2832 -0.1776
28256W        W44517   5.907   8.690  15.549  0.3523 -0.0143 -0.2927
28257W        W44518   8.128  17.842  11.880  0.1595 -0.1920 -0.2987
28258W        W44519  16.983  14.137  16.076  0.2046 -0.1014  0.0650
28259W        W44520   6.119  12.860  12.913 -0.1089  0.2564  0.1606
28260W        W44521   0.156  12.343   4.885  0.0682 -0.1931  0.0502
28261W        W44522   0.122  11.659  12.313  0.4150 -0.0890  0.1213
28262W        W44523   1.806  17.306  11.774  0.0560 -0.2899  0.0655
28263W        W44524   0.898   8.146   1.235  0.0186  0.0634  0.3742
28264W        W44525   7.911   3.780   1.054  0.2375  0.4233 -0.4117
28265W        W44526  17.496  16.197  13.724  0.4340 -0.2712  0.0962
28266W        W44527   0.378   3.608   0.683 -0.0596 -0.1028  0.0180
28267W        W44528   4.119   1.349   5.762 -0.0419 -0.1524  0.0477
28268W        W44529   5.560   9.728  12.356 -0.2424  0.0578  0.0966
28269W        W44530  13.350  15.533  14.635 -0.1751 -0.2847 -0.3342
28270W        W44531  13.803   0.784  12.243 -0.0982  0.0756 -0.2588
28271W        W44532   9.211  18.332   4.819  0.1569 -0.2070 -0.0203
28272W        W44533   2.206   1.110   5.521 -0.1104 -0.3245 -0.1901
28273W        W44534  11.931   3.897  11.776 -0.0184  0.0129 -0.1489
28274W        W44535  15.989  10.046   3.126  0.2072  0.0601 -0.1576
28275W        W44536   5.908   0.480  13.522 -0.0699 -0.1767  0.3593
28276W        W44537   9.177   2.399   2.063 -0.1297 -0.2378 -0.0088
28277W        W44538   8.120  12.260   1.916 -0.1750  0.0469  0.0450
28278W        W44539  15.301   2.000  14.164  0.4151  0.1352 -0.1513
28279W        W44540   1.420  13.279   2.472 -0.3813 -0.0007  0.0739
28280W        W44541   3.787  17.635  15.663  0.2095 -0.2834 -0.0402
28281W        W44542  11.361   9.281  11.742  0.0442  0.1499 -0.2371
28282W        W44543  12.287  13.043  13.937 -0.0191  0.1791  0.0179
28283W        W44544  15.668   0.412  14.376 -0.0376 -0.3063  0.0197
28284W        W44545  15.327  16.773   5.060 -0.2049 -0.2138 -0.2793
28285W        W44546   2.888   2.431  12.212  0.0750  0.0434 -0.0282
28286W        W44547   1.686   6.428  15.103 -0.3980  0.0500 -0.1305
28287W        W44548   5.125  10.438  11.767  0.1564  0.2450  0.0785
28288W        W44549   6.598   1.301   3.513  0.2281  0.3184  0.5322
28289W        W44550  17.205  14.627  14.840 -0.1837 -0.0023 -0.0468
28290W        W44551   3.976   5.867   3.962  0.0212  0.1606 -0.1228
28291W        W44552   2.199   7.782  11.097  0.1696 -0.2454 -0.0549
28292W        W44553   6.738  11.759   6.566  0.0373  0.2066 -0.1844
28293W        W44554   5.820  14.433  11.506 -0.0948 -0.0703 -0.1366
28294W        W44555   6.442  10.972  12.567  0.0232 -0.0020 -0.1151
28295W        W44556  10.515  14.072   0.749  0.0066  0.1144  0.0130
28296W        W44557  10.683   4.789   3.322 -0.2419 -0.0715  0.3045
28297W        W44558  12.520  15.236  11.374  0.0416  0.1295  0.4262
28298W        W44559   9.487  13.617   2.013 -0.4924  0.5665  0.0755
28299W        W44560   1.613  12.429  12.221  0.0192 -0.0111 -0.0775
28300W        W44561  15.530   7.311  11.536  0.0276  0.1257 -0.1923
28301W        W44562   5.744   6.967  14.057 -0.0705 -0.1880  0.0260
28302W        W44563   7.969  13.663   4.307 -0.1174 -0.0815 -0.2295
28303W        W44564   9.845   7.576  15.680  0.0681  0.2945  0.1855
28304W        W44565   7.834  16.928  11.733 -0.0306 -0.0172  0.2525
28305W        W44566  11.776   3.704  15.598 -0.2627  0.1069 -0.1035
28306W        W44567   9.592   3.012  11.838 -0.0150 -0.1573  0.1860
28307W        W44568   2.645   1.323  14.278 -0.2235 -0.0436 -0.0061
28308W        W44569   9.254   8.081   2.216 -0.1306  0.0774 -0.3849
28309W        W44570   5.676  12.245   3.754 -0.5772 -0.2768 -0.2630
28310W        W44571   3.687  12.240  11.252  0.0796 -0.1415  0.1246
28311W        W44572   7.532  15.330   1.306 -0.1038  0.1641  0.3653
28312W        W44573   7.069  16.422   4.034 -0.0844 -0.1377  0.0942
28313W        W44574  17.875   8.436  15.819  0.3967  0.2150  0.1470
28314W        W44575   3.953  11.133   3.516  0.1963 -0.2627  0.0374
28315W        W44576   6.991   2.282  13.772 -0.1571  0.0002  0.1423
28316W        W44577   4.560  16.608   0.276  0.1553  0.0223 -0.1197
28317W        W44578   8.070   5.142  15.600  0.0720 -0.1193 -0.1830
28318W        W44579   4.952  11.391   3.002 -0.0627  0.2184 -0.2906
28319W        W44580  13.300  15.524  10.348  0.0062 -0.0610  0.0510
28320W        W44581  14.276  16.046  10.592 -0.3831  0.1027  0.3183
28321W        W44582  13.680   0.135   1.939 -0.0463 -0.1228  0.0812
28322W        W44583  12.596  18.469  14.871 -0.0815  0.1938  0.0183
28323W        W44584  16.219  15.159  10.103 -0.0615  0.0329 -0.0556
28324W        W44585   2.826   3.964  11.758 -0.0019 -0.2471 -0.1839
28325W        W44586   1.870  16.810  11.854  0.4419  0.1909 -0.1433
28326W        W44587  13.298   9.231   4.044 -0.1406  0.0842  0.0765
28327W        W44588  15.602  13.544  11.266 -0.1749 -0.0190 -0.1517
28328W        W44589  16.870   7.907   5.549 -0.1354 -0.0087  0.3129
28329W        W44590   0.226  14.974   5.528  0.0897  0.4669  0.5137
28330W        W44591   9.773  17.257  11.714  0.1274  0.1192  0.2469
28331W        W44592  12.913  16.854  15.145  0.2279 -0.2164 -0.0753
28332W        W44593   1.215  16.804  13.057 -0.1162  0.2392 -0.1632
28333W        W44594   4.751  13.665   3.475  0.3017  0.3984 -0.1705
28334W        W44595  14.123  15.135  14.269 -0.3323  0.1414 -0.1763
28335W        W44596   8.912   6.751   3.289  0.2311 -0.2108  0.3521
28336W        W44597   3.711   1.657  15.348 -0.3263 -0.6128 -0.1367
28337W        W44598   0.818   4.829  11.815  0.1550 -0.1267  0.0927
28338W        W44599  16.723   8.797   4.694  0.1028  0.0270 -0.3237
28339W        W44600  11.022  15.385   3.014  0.1536  0.1928  0.0295
28340W        W44601  17.118  17.368   4.670  0.0008 -0.1978 -0.1643
28341W        W44602   2.312  16.690  11.459 -0.1236 -0.1706  0.0490
28342W        W44603  13.581  17.342  12.823  0.2265 -0.2297  0.1423
28343W        W44604  15.017   1.015   3.267 -0.2509  0.0605  0.2012
28344W        W44605  13.695   7.466   2.532 -0.2433  0.1604 -0.1610
28345W        W44606  14.014  13.178   4.795 -0.1269 -0.0393 -0.2574
28346W        W44607  10.894  12.720  14.527  0.1778 -0.1145 -0.2440
28347W        W44608   5.017   1.786   2.193  0.1244 -0.0736  0.1154
28348W        W44609  12.219  10.372  15.993  0.0287 -0.2437 -0.0266
28349W        W44610   8.916  10.151   6.046 -0.2371  0.1088 -0.0875
28350W        W44611  14.884  11.176  10.670 -0.1339  0.2490  0.3515
28351W        W44612  18.310   1.404   5.386  0.2643 -0.0014  0.1590
28352W        W44613  13.767   8.101  13.077  0.0066 -0.1111  0.4007
28353W        W44614  15.438   0.962  12.365  0.0834 -0.2918 -0.1036
28354W        W44615   2.166   7.807   0.556  0.1926  0.2872 -0.1724
28355W        W44616   4.266   1.454   3.410 -0.1732  0.2423  0.1426
28356W        W44617  15.867   3.034   4.292  0.0748  0.0134 -0.0754
28357W        W44618  11.475  17.412  12.706 -0.4925 -0.1208 -0.2485
28358W        W44619  10.641  16.834  13.915 -0.2317 -0.0492  0.3739
28359W        W44620  10.828  16.601  11.904  0.1398 -0.2624  0.3077
28360W        W44621  14.590   9.828  11.273  0.1322 -0.0559  0.0483
28361W        W44622  16.266  15.559   4.786  0.1266  0.1052 -0.3836
28362W        W44623   8.212   6.099  13.127  0.0414  0.0432 -0.0066
28363W        W44624   5.506   0.156  15.737 -0.0698  0.1375  0.0941
28364W        W44625   1.379  11.249  15.748 -0.1082  0.1421  0.1158
28365W        W44626   0.343   1.808  16.075 -0.1895  0.1523 -0.1574
28366W        W44627   0.433   1.771  11.831  0.1664 -0.2133  0.1523
28367W        W44628   3.674   9.214  14.235  0.1800 -0.0053 -0.2758
28368W        W44629  14.925  14.535   3.714  0.1052  0.0964 -0.0310
28369W        W44630   3.057  17.117   2.348 -0.2139 -0.3874 -0.2460
28370W        W44631   1.418   8.413  15.301 -0.1090 -0.2073 -0.1791
28371W        W44632   8.653  17.211  13.496  0.2272 -0.1384  0.0227
28372W        W44633  17.912  15.780  13.678  0.0764 -0.3446  0.0759
28373W        W44634   4.515   3.381   2.638  0.1810 -0.1844  0.2029
28374W        W44635  10.570  17.771  14.418  0.1535  0.0808  0.0721
28375W        W44636   4.732  13.102   1.457 -0.0846 -0.2104  0.2213
28376W        W44637  11.797   4.177  15.002 -0.0626 -0.1746  0.1108
28377W        W44638  17.357  16.464  15.221 -0.1614 -0.1224  0.0282
28378W        W44639   8.894  14.164  14.743 -0.2772  0.0166  0.1791
28379W        W44640  11.119  12.948   1.256 -0.1976  0.0261 -0.0658
28380W        W44641   8.359   2.558  13.911  0.2641  0.0910 -0.0408
28381W        W44642  14.577   6.412  14.417  0.1824 -0.2064  0.1174
28382W        W44643  16.380   1.155  12.212  0.3120  0.0072 -0.4160
28383W        W44644  18.466  10.305   5.978 -0.2362 -0.0086  0.0406
28384W        W44645  17.607  17.366   1.922 -0.0110 -0.3465 -0.0060
28385W        W44646  18.425   6.743   4.003  0.4821  0.3734  0.0118
28386W        W44647  10.767   2.141  15.778  0.1472 -0.1147  0.0551
28387W        W44648   8.622  17.665   3.231  0.1160 -0.0668 -0.1771
28388W        W44649   8.435  10.172   3.442 -0.0350 -0.0265  0.0609
28389W        W44650   2.559   7.321  16.050 -0.3075 -0.1904  0.0346
28390W        W44651   4.092  15.359   0.894 -0.3331 -0.0218  0.1594
28391W        W44652   5.512  15.631  15.502  0.1105  0.3386 -0.2399
28392W        W44653  13.141   2.487   3.542 -0.1907 -0.0894  0.0236
28393W        W44654  17.785   1.648  13.774 -0.4916 -0.0277 -0.3341
28394W        W44655  12.290  18.122   2.540 -0.2175 -0.1705 -0.0318
28395W        W44656   4.519  12.632   5.241 -0.1159 -0.0582  0.1045
28396W        W44657   3.770   4.652  16.172 -0.1359 -0.0505 -0.1946
28397W        W44658   4.132  17.030  15.870 -0.2311  0.4085  0.1624
28398W        W44659   4.022   2.797  15.481  0.2060 -0.1597 -0.2408
28399W        W44660   3.802   4.128   2.749 -0.2728 -0.0656  0.1141
28400W        W44661   3.237   4.164   1.041 -0.1307  0.0898  0.3885
28401W        W44662   3.652  11.806  12.079 -0.0334 -0.0698 -0.0940
28402W        W44663   5.130   1.761  15.981 -0.1427 -0.1523 -0.2612
28403W        W44664  16.457  14.094  12.052  0.1112  0.3009 -0.0179
28404W        W44665  18.421  16.997  13.989  0.1009  0.1413  0.0639
28405W        W44666  16.701   6.872  15.173 -0.0090 -0.3759  0.1142
28406W        W44667   5.129   5.975  15.264 -0.1758  0.0314  0.2656
28407W        W44668   8.948  13.298   3.645  0.1757  0.4835 -0.1737
28408W        W44669  15.631  15.623  12.201 -0.0252 -0.1040 -0.1693
28409W        W44670   0.865   3.613  13.570 -0.2153 -0.0333  0.2079
28410W        W44671  10.985  15.509  16.066 -0.4415 -0.3049  0.3012
28411W        W44672   2.556  15.015   1.793 -0.0490 -0.0259 -0.1350
28412W        W44673  12.552   3.753  15.750 -0.2407  0.0810 -0.1772
28413W        W44674   1.823   8.810  11.926  0.2253 -0.2359  0.1087
28414W        W44675   3.241   9.086  15.097 -0.2047  0.1168  0.2721
28415W        W44676  13.574   0.592  15.433  0.1422  0.4255  0.1663
28416W        W44677   2.645   8.464   0.346 -0.1264 -0.2962 -0.3917
28417W        W44678  13.765  10.968   5.504  0.1675 -0.0751  0.0229
28418W        W44679   8.068  13.263  11.324 -0.0090 -0.1815  0.0517
28419W        W44680  17.694  16.821  15.375  0.1127 -0.2817  0.1753
28420W        W44681  15.613  14.620   0.055 -0.0781 -0.1471  0.1334
28421W        W44682  17.891   3.913   4.616  0.1178  0.0015 -0.0160
28422W        W44683   7.991  13.286  13.991  0.0558 -0.1599  0.0699
28423W        W44684   5.305   2.660   1.828 -0.3773 -0.2074 -0.0930
28424W        W44685   2.653   0.174   4.653  0.4459 -0.0397 -0.1855
28425W        W44686   1.341   8.587  12.081 -0.1470 -0.3049  0.2222
28426W        W44687  17.648   6.050  12.430 -0.1370  0.1503  0.2785
28427W        W44688  10.027  15.458  12.778  0.0326  0.2314 -0.1563
28428W        W44689   0.560   2.848  14.364 -0.1250 -0.0363  0.0839
28429W        W44690   2.476   0.685   3.357  0.3114  0.0062  0.0248
28430W        W44691  12.019  15.225  11.614  0.0990  0.1723  0.1172
28431W        W44692   7.398  13.927  13.946  0.1824  0.1955  0.3254
28432W        W44693  10.894  17.596  13.365 -0.1425  0.1247  0.3927
28433W        W44694  11.411   1.555   3.397  0.1239  0.1303  0.0394
28434W        W44695   2.966   1.087   2.420 -0.0326  0.0947 -0.0074
28435W        W44696  13.340  12.172  12.840 -0.1032  0.0523 -0.2941
28436W        W44697   7.348   6.041  11.025 -0.2891  0.0471 -0.4084
28437W        W44698  17.527   6.659  12.929  0.1334  0.0136 -0.1892
28438W        W44699  10.509  15.645   0.650 -0.0124 -0.2504 -0.1641
28439W        W44700   8.108  11.729  14.866  0.3131  0.2047  0.2282
28440W        W44701  17.373  18.158  13.254 -0.1135 -0.1104  0.0994
28441W        W44702  16.992   5.896   4.353 -0.0881  0.1650  0.1292
28442W        W44703   8.823   9.325   2.412  0.0927  0.1207 -0.3255
28443W        W44704   8.853   1.324  10.555  0.2025  0.0750  0.3160
28444W        W44705   1.794  17.252   1.222 -0.0819  0.1637  0.0385
28445W        W44706  10.750   1.461   4.840 -0.0448 -0.3291 -0.1666
28446W        W44707   2.033  11.328   2.760 -0.0116  0.3717  0.0501
28447W        W44708   5.978   6.426  11.224 -0.1720 -0.1566 -0.0720
28448W        W44709   8.359   6.799  12.280  0.2627 -0.0060  0.4478
28449W        W44710  17.630   1.675  11.618  0.2545 -0.0068  0.1670
28450W        W44711   2.265   7.425  14.057  0.1241 -0.0023 -0.0548
28451W        W44712   8.220  18.181   1.634  0.3661 -0.1251  0.4012
28452W        W44713  17.730  11.318   2.623 -0.1913  0.2115 -0.0653
28453W        W44714   1.742  16.521  12.750  0.0742  0.0908 -0.0400
28454W        W44715  11.494   9.277  13.554  0.0042  0.0176  0.1269
28455W        W44716  12.881   6.045   2.712  0.0830 -0.0778 -0.0390
28456W        W44717   3.405  17.003  13.893  0.0523 -0.1120 -0.1971
28457W        W44718  16.558   3.754   1.931 -0.3066 -0.4339  0.1240
28458W        W44719   3.825   3.463  15.783  0.1431 -0.1374 -0.2536
28459W        W44720  14.575   4.035   1.529  0.4906 -0.1611  0.0195
28460W        W44721   7.846   9.240  13.072 -0.1155 -0.1203 -0.4228
28461W        W44722  15.664   6.528  16.049  0.2169  0.1274  0.1778
28462W        W44723   4.839  12.873  11.599  0.1590 -0.2591 -0.0552
28463W        W44724   0.543  10.071   1.273 -0.0023 -0.2346  0.1448
28464W        W44725   1.034  15.124   2.726 -0.2875 -0.0012 -0.2974
28465W        W44726   6.690  14.987  11.589 -0.2962  0.0205 -0.1180
28466W        W44727   4.505   7.173   4.454 -0.0127  0.1718 -0.0115
28467W        W44728  13.646  16.953   4.152  0.1853  0.0819  0.0246
28468W        W44729   3.642   2.501  15.527 -0.0617  0.2197 -0.4362
28469W        W44730  14.249  13.335   0.282 -0.4299 -0.0872  0.0403
28470W        W44731  15.085  10.169   5.057 -0.0500 -0.1717  0.2564
28471W        W44732   2.750  12.744  11.749  0.1062  0.2549 -0.0737
28472W        W44733  13.319   9.014   1.112  0.0029  0.0955  0.1310
28473W        W44734  18.334   6.601  13.565  0.0272 -0.0702 -0.0058
28474W        W44735  12.426  13.138  11.999  0.1505 -0.2072 -0.1763
28475W        W44736  12.965   7.941  12.131  0.3069 -0.1882 -0.0529
28476W        W44737  13.872   1.892  15.320  0.2219 -0.1413  0.0543
28477W        W44738  16.307   5.895   3.058  0.0489  0.2035 -0.0537
28478W        W44739   8.501   7.259   5.107 -0.1857  0.0151 -0.1595
28479W        W44740   9.250   3.501   5.538  0.0881  0.0993 -0.0833
28480W        W44741   9.713  15.998  11.985 -0.1971  0.1162 -0.0566
28481W        W44742   9.229  12.226  14.149  0.3639 -0.1099  0.0844
28482W        W44743   6.508   1.681  15.861 -0.2854 -0.3439  0.0605
28483W        W44744   9.849  13.356   3.221 -0.0912 -0.1146  0.2068
28484W        W44745  12.961  15.830   2.190  0.0417 -0.0436  0.0057
28485W        W44746   1.123   5.178   4.197 -0.0486 -0.1829 -0.2557
28486W        W44747  18.046   7.575  14.414  0.0444 -0.0974  0.1044
28487W        W44748  16.086   1.613  12.082 -0.1826  0.1698  0.2970
28488W        W44749  14.281   3.414  12.002  0.1767  0.0153 -0.0712
28489W        W44750   6.843  12.197  14.681  0.0096 -0.2995 -0.5559
28490W        W44751  18.010   1.197  14.095  0.0460 -0.0160  0.2190
28491W        W44752  12.806   4.607  14.026  0.2416 -0.2398 -0.1591
28492W        W44753  11.907  17.102  16.156 -0.1447  0.2472 -0.2198
28493W        W44754   3.656   1.939  12.011  0.6437 -0.2871 -0.0866
28494W        W44755   7.191  16.482  13.362 -0.0775  0.0000  0.2256
28495W        W44756   9.996   3.980  11.757  0.0067  0.0278  0.2457
28496W        W44757  14.085   3.161   0.753  0.2755 -0.1061 -0.1203
28497W        W44758   4.038   9.480   2.251  0.0426 -0.0113 -0.0461
28498W        W44759  13.463   3.045   4.954  0.2210  0.2154 -0.0572
28499W        W44760   6.269  16.456   1.006  0.1042 -0.2581 -0.1350
28500W        W44761   5.559   1.491  12.892  0.0210  0.0756  0.1886
28501W        W44762   3.798  10.297  15.346  0.0359  0.0978 -0.1474
28502W        W44763   2.039   1.546   4.010 -0.2116 -0.0255 -0.1097
28503W        W44764   5.875  17.382   0.035 -0.2671  0.3183 -0.1893
28504W        W44765   3.089   3.087  13.685 -0.0540  0.3643  0.1862
28505W        W44766   5.302  17.035   0.923 -0.1077  0.0676 -0.2597
28506W        W44767   0.449  10.755  12.137 -0.1372  0.2607 -0.0681
28507W        W44768  13.274  12.669   1.178 -0.0888  0.1411 -0.1324
28508W        W44769  11.008  10.876  13.176  0.2538  0.2522 -0.0102
28509W        W44770   1.611  13.006  12.141  0.0254 -0.0836  0.2295
28510W        W44771  13.670   7.030  13.061 -0.0701 -0.3092 -0.3399
28511W        W44772   3.745   0.186   5.279  0.2201  0.1169  0.0792
28512W        W44773  11.014   1.696   0.260  0.0210 -0.0815 -0.2305
28513W        W44774  12.322   6.746   4.554  0.0886 -0.1451 -0.0833
28514W        W44775   7.159   9.754  12.139 -0.1139 -0.0646  0.0577
28515W        W44776   5.359   9.547   4.442  0.0215 -0.1012  0.0363
28516W        W44777   6.039   3.841  15.447  0.0607  0.1017 -0.2939
28517W        W44778  10.128   3.964  14.291  0.5357  0.1733 -0.3254
28518W        W44779   4.982  16.909   3.585  0.3487  0.1752  0.2701
28519W        W44780  12.791  14.325  14.074  0.1627 -0.1469  0.2185
28520W        W44781  16.597   3.584   1.227 -0.4016  0.4255 -0.0323
28521W        W44782   9.527  13.112  15.622 -0.1149  0.0233  0.0130
28522W        W44783   0.293   9.930   2.731 -0.1221 -0.0665 -0.2206
28523W        W44784   6.678   6.912   1.842 -0.1809  0.2981 -0.1451
28524W        W44785  16.881  17.922   1.856  0.2648 -0.1141  0.3354
28525W        W44786   8.922   0.647  12.217  0.1308 -0.2909  0.0226
28526W        W44787  15.355   2.708  15.850  0.0573 -0.1141  0.0606
28527W        W44788   0.307  16.920  11.402 -0.1063 -0.1060 -0.0908
28528W        W44789  13.807  10.773  14.488  0.0245  0.4792  0.0193
28529W        W44790   7.558  15.547  12.212  0.1029 -0.1734 -0.2180
28530W        W44791   3.062  10.410   4.740 -0.2415 -0.1342 -0.0832
28531W        W44792   8.009  10.840  13.372 -0.0547 -0.1541 -0.0084
28532W        W44793  13.247  16.612  15.579  0.0611 -0.2079  0.0771
28533W        W44794   9.088  11.190  12.871 -0.0359 -0.0175  0.2750
28534W        W44795   6.844  14.288   1.058  0.0934  0.1437 -0.1056
28535W        W44796  18.268   2.971  15.038 -0.2905 -0.1163  0.0659
28536W        W44797  17.993   6.163  13.416  0.2311 -0.0103  0.0699
28537W        W44798  11.730   9.688   1.401 -0.2548  0.4541  0.0495
28538W        W44799  13.465  11.605  13.698 -0.0284  0.1620 -0.1372
28539W        W44800   0.485   5.465   3.762 -0.1464 -0.1010 -0.1798
28540W        W44801   4.454   3.905   3.925  0.2845 -0.1006  0.1223
28541W        W44802  13.694  14.647   1.640  0.0234 -0.2005 -0.0270
28542W        W44803  11.909  14.501   2.177 -0.0431  0.0460  0.1131
28543W        W44804  15.282  15.237  15.556  0.2959  0.1767 -0.0372
28544W        W44805   1.070  12.296   2.362  0.3606 -0.1649  0.0654
28545W        W44806  13.303   9.125   1.626 -0.0364  0.1678 -0.2711
28546W        W44807  16.614   6.287  13.113  0.1779 -0.1167  0.0145
28547W        W44808   8.680   8.298   1.009 -0.0772 -0.4388  0.0349
28548W        W44809  11.067  14.599   0.210 -0.0080 -0.1680  0.2245
28549W        W44810   5.258   8.182  14.348  0.0303 -0.0500 -0.2478
28550W        W44811  11.208  12.647  12.841 -0.1359  0.0453  0.0618
28551W        W44812  10.519  11.187   1.571  0.0721 -0.1642  0.1031
28552W        W44813  15.593  11.384  14.793  0.4413 -0.1771  0.1620
28553W        W44814   4.862   2.099   1.783 -0.4201 -0.1556  0.1334
28554W        W44815   9.845  16.625   5.216  0.0008 -0.2260  0.3042
28555W        W44816  11.706  18.356  11.748  0.2172  0.0118 -0.2176
28556W        W44817   1.185  12.293   0.801  0.0579  0.1497 -0.2364
28557W        W44818  16.308   9.028  10.970 -0.0130  0.1887  0.1021
28558W        W44819   0.892  14.585   2.949 -0.1762  0.0488  0.3496
28559W        W44820   0.983  18.399   1.690  0.0390  0.1568 -0.1487
28560W        W44821  11.271  15.609   0.259  0.0869  0.2017 -0.0081
28561W        W44822   3.658   1.701   5.767  0.2229  0.2914  0.0849
28562W        W44823   7.144   7.229  12.545  0.0156  0.2022  0.0727
28563W        W44824   9.425   1.220  11.378  0.1351  0.1652 -0.2135
28564W        W44825   9.785   1.934  12.402 -0.0090  0.0781  0.2737
28565W        W44826   0.514  15.708   1.671  0.0271  0.0160  0.0120
28566W        W44827   0.539  10.723  11.600 -0.0443 -0.1582 -0.2743
28567W        W44828   5.191   3.320  15.052  0.3250  0.1131 -0.0210
28568W        W44829  14.933  12.354  11.517 -0.1090 -0.2049  0.1847
28569W        W44830   1.599  13.991  13.067  0.0817 -0.1179  0.1449
28570W        W44831   7.993  13.399   0.089  0.1496 -0.0035 -0.1416
28571W        W44832   3.235   2.116   1.425 -0.2491 -0.4302  0.1297
28572W        W44833  10.351   8.928  15.911  0.0838 -0.1849 -0.0177
28573W        W44834  13.414   7.601   0.427  0.1490 -0.3034  0.1940
28574W        W44835   6.051   0.842   0.011  0.2808  0.3033 -0.0254
28575W        W44836  14.534   7.745   3.769 -0.2996 -0.2289 -0.1666
28576W        W44837  14.584  14.357   3.246 -0.1000 -0.0504 -0.1699
28577W        W44838  11.977   4.064   0.190  0.0704  0.0350  0.4453
28578W        W44839  14.869   6.681   0.240  0.0991 -0.1572 -0.0829
28579W        W44840   0.884  17.807  12.241 -0.1317  0.2279 -0.3081
28580W        W44841   2.940   5.374   2.717  0.0998 -0.0235 -0.0999
28581W        W44842   0.731   5.651   0.748  0.2733  0.1235 -0.0723
28582W        W44843   2.782  16.743   5.359 -0.0116  0.0390  0.2745
28583W        W44844   0.941  14.313  12.236  0.0288  0.0540 -0.1569
28584W        W44845  17.589   7.735   1.173  0.1961 -0.2948 -0.1346
28585W        W44846   9.546   9.641   4.651 -0.4159 -0.0337  0.2278
28586W        W44847  16.254  11.880   4.013  0.2215 -0.2684  0.1072
28587W        W44848  15.720   2.290  15.187  0.0406 -0.4001 -0.1066
28588W        W44849   7.904   3.162  15.148 -0.2233 -0.0467 -0.1974
28589W        W44850   0.915  12.852   4.832 -0.0509 -0.0037 -0.2306
28590W        W44851   3.216   4.080  13.885  0.3808  0.0986 -0.0176
28591W        W44852  10.108  13.244  12.961  0.0540  0.1661 -0.1113
28592W        W44853   1.287  17.114  14.411  0.2159 -0.1706  0.0548
28593W        W44854  15.991  16.801  14.659  0.0264  0.0483 -0.0305
28594W        W44855   4.996  10.035  14.376 -0.2505  0.2866 -0.0094
28595W        W44856  14.220  10.628   0.044  0.0802 -0.3552  0.1225
28596W        W44857  12.775  16.505  13.443  0.1417 -0.2431  0.0501
28597W        W44858   2.937   2.922   4.034 -0.0290  0.0676  0.1188
28598W        W44859  18.439  12.202   0.146  0.0544 -0.1293 -0.2442
28599W        W44860  18.433  13.818  12.514 -0.0503 -0.2132 -0.4724
28600W        W44861  15.598  15.685  14.183 -0.0627 -0.1071 -0.0119
28601W        W44862   5.970  16.551   4.036  0.0346 -0.2563 -0.0127
28602W        W44863   8.965  17.998   0.811  0.2332 -0.2458 -0.0605
28603W        W44864   8.430  13.895  13.216  0.1388  0.0634 -0.0399
28604W        W44865   0.105  13.778  16.019  0.0799  0.0559  0.1057
28605W        W44866  17.831   5.233  13.593  0.1077  0.1014 -0.1278
28606W        W44867   5.994   5.431  12.735 -0.0902  0.0313  0.2568
28607W        W44868  18.077  10.796   3.268 -0.1070 -0.1507  0.0019
28608W        W44869  13.059  11.140  15.907 -0.2683  0.1174 -0.1593
28609W        W44870   3.737   4.120  11.865  0.0745  0.1031 -0.0715
28610W        W44871   8.071  16.633  15.342  0.1072  0.2389  0.1596
28611W        W44872   7.732  18.176  12.068 -0.1243  0.1105  0.0961
28612W        W44873  16.070   7.369  15.877 -0.0036  0.2431  0.2559
28613W        W44874  16.493   0.156  14.528 -0.2492 -0.2416  0.0018
28614W        W44875  16.375   4.810  11.570  0.0718  0.0264 -0.1247
28615W        W44876  11.190   8.402   1.311  0.0755 -0.3476  0.1655
28616W        W44877   1.989   6.821  15.209 -0.2411  0.0499 -0.0455
28617W        W44878  17.276  11.516   1.291 -0.1260 -0.2324  0.1231
28618W        W44879  13.033   2.269  11.524 -0.0751  0.0802 -0.0136
28619W        W44880  14.557  12.826  11.886  0.2185 -0.1251  0.2666
28620W        W44881   5.295  11.366  15.495 -0.0526 -0.0933  0.0881
28621W        W44882  15.878   8.041   1.449  0.0058  0.0424  0.1065
28622W        W44883   5.152   8.261   5.806  0.1951  0.0213  0.0681
28623W        W44884   8.115   8.814  13.368  0.0883 -0.1944 -0.1568
28624W        W44885   7.268  14.651  14.935 -0.0079  0.0399 -0.1217
28625W        W44886   9.802   7.865   2.151 -0.0004 -0.0939  0.3659
28626W        W44887   9.850   4.410  11.974  0.0447  0.1065  0.0323
28627W        W44888   2.197  15.235   0.277  0.0222  0.1317  0.1262
28628W        W44889  17.288   6.322  15.724  0.1142  0.0356 -0.0325
28629W        W44890  10.926  13.327  15.819 -0.1956  0.3498  0.0366
28630W        W44891  11.433   2.624  11.950 -0.3661  0.1903  0.0933
28631W        W44892   9.091   5.226  15.276 -0.0215  0.1715 -0.0621
28632W        W44893  13.059   5.238  16.066  0.0933  0.1001  0.3034
28633W        W44894   8.791  11.702   0.939 -0.1839 -0.0667  0.0334
28634W        W44895   2.785  15.752  12.537  0.4812  0.2676  0.1823
28635W        W44896  14.949  16.130   1.301  0.1008  0.0952  0.0045
28636W        W44897   1.982  11.388   0.748 -0.1562  0.0559  0.2942
28637W        W44898   0.361  13.925  14.068 -0.0803 -0.1251  0.6743
28638W        W44899   1.676   4.749   2.103  0.0591  0.2586 -0.1955
28639W        W44900  13.736  13.020   2.453 -0.1630 -0.1007 -0.2055
28640W        W44901  11.244  12.259  11.520  0.0202 -0.0252  0.1154
28641W        W44902   6.832   8.935  11.858  0.0066  0.2008 -0.1294
28642W        W44903   9.151   8.727   0.943 -0.2992 -0.0827  0.0360
28643W        W44904   1.790  12.134   3.117 -0.0011  0.2996  0.0940
28644W        W44905   4.022   7.741   6.680  0.0541  0.1747 -0.0228
28645W        W44906   1.190  17.070   3.509  0.1031 -0.0062  0.1438
28646W        W44907   8.305  10.547  15.305 -0.0742 -0.2882  0.1265
28647W        W44908  11.628   2.489   0.522 -0.2262 -0.0706 -0.1399
28648W        W44909   2.656   8.560  11.544 -0.0632 -0.3238  0.5139
28649W        W44910   1.507   0.955  10.515  0.2171 -0.0657  0.0822
28650W        W44911   6.216   4.170   1.848 -0.5490  0.0342  0.0478
28651W        W44912  15.939   0.466  11.019 -0.0505 -0.0283 -0.1191
28652W        W44913   3.945   7.943   4.337 -0.1509  0.0684  0.1261
28653W        W44914  10.288  13.695   1.578 -0.2112 -0.2220 -0.0921
28654W        W44915   5.651  12.590   5.236  0.1335 -0.0826  0.3956
28655W        W44916  17.846  10.197  11.156  0.1097  0.3868 -0.1953
28656W        W44917   0.056   6.616   4.499 -0.0182  0.1428  0.2369
28657W        W44918  18.278  16.869   1.446  0.5157  0.0782 -0.3267
28658W        W44919  12.259   4.671  13.059  0.0786  0.1691  0.1920
28659W        W44920  15.389   8.958  11.306  0.3327  0.0846  0.2653
28660W        W44921   1.494  14.693   4.191 -0.1260 -0.1564 -0.1694
28661W        W44922  14.629   8.079   3.386 -0.5200  0.2497  0.0032
28662W        W44923   2.802   3.073  14.087  0.0028 -0.0046  0.2158
28663W        W44924   7.100   1.816  13.584 -0.1009 -0.6754  0.0038
28664W        W44925   1.302  12.138   0.346  0.2862  0.0368 -0.0773
28665W        W44926  10.438   6.205   2.495 -0.2040 -0.0272  0.4670
28666W        W44927  17.106  16.158   2.790  0.1368 -0.1118 -0.2769
28667W        W44928  12.892   5.588   3.512  0.0003  0.3183  0.2631
28668W        W44929  12.030   3.676   1.564  0.0658 -0.0424 -0.1688
28669W        W44930  10.137   1.182   1.466 -0.1085 -0.1839  0.0394
28670W        W44931  10.322   1.985  12.283 -0.0411  0.1272 -0.1675
28671W        W44932  13.412   3.654   5.222  0.2222 -0.2821 -0.1683
28672W        W44933   1.088   3.836  12.562 -0.0086  0.0434  0.1565
28673W        W44934  12.668   1.746   4.293 -0.0074  0.1367 -0.1489
28674W        W44935   0.863   9.830  15.754 -0.1640  0.1726  0.0561
28675W        W44936  10.073  15.113  14.905 -0.1595 -0.1033  0.0639
28676W        W44937  17.242   3.140   2.007 -0.0757  0.0058 -0.2285
28677W        W44938  10.795  14.517   0.716  0.1301 -0.2136 -0.0416
28678W        W44939   9.944  16.969  12.030 -0.1481 -0.1491 -0.2069
28679W        W44940  16.129  15.709   1.771 -0.3474  0.2065 -0.1294
28680W        W44941   3.506   5.252  15.319  0.1194  0.2597  0.0435
28681W        W44942  13.649   4.515  15.726  0.1378 -0.1893  0.3070
28682W        W44943  16.567   6.812  12.071  0.0817  0.2785 -0.2804
28683W        W44944   0.229  13.680   5.902 -0.0516 -0.1032 -0.0080
28684W        W44945  18.405   3.918  13.242 -0.2073 -0.0911  0.0190
28685W        W44946  10.547  15.001   3.513 -0.2704  0.2156  0.4028
28686W        W44947   1.318   9.888   0.344 -0.3272  0.0092  0.3009
28687W        W44948   1.357  10.251   2.355 -0.2956 -0.0047 -0.4135
28688W        W44949  13.602   3.149  13.462  0.0646  0.0946  0.1230
28689W        W44950   7.614  18.187   4.959  0.0294  0.0311 -0.0838
28690W        W44951   4.997   7.638   3.843 -0.1273 -0.1398  0.2556
28691W        W44952  10.291   6.934  15.317 -0.2060  0.1848  0.2885
28692W        W44953   0.464  17.614  13.116  0.1283 -0.3550 -0.0196
28693W        W44954   8.605   1.601  15.383 -0.1508  0.1027 -0.1052
28694W        W44955   1.562   3.719   1.866 -0.4915 -0.4143 -0.0211
28695W        W44956   6.115   9.600  15.103  0.0917  0.2421 -0.2187
28696W        W44957   0.722  13.848  13.599 -0.1118 -0.1307 -0.0036
28697W        W44958  14.611  17.722   4.636  0.0269 -0.1141  0.2512
28698W        W44959   8.813   8.179  14.333  0.1384  0.1622  0.0598
28699W        W44960  15.159   1.609  12.797  0.0167 -0.1235  0.3588
28700W        W44961  15.462   8.767   3.506 -0.1383 -0.3436  0.1821
28701W        W44962   4.738  15.126   1.470 -0.0860  0.1848  0.3554
28702W        W44963  17.485   1.984   4.841 -0.0740  0.0048  0.1100
28703W        W44964  12.737   6.975  13.523  0.3863 -0.2605  0.2021
28704W        W44965   1.475  17.040  15.413 -0.1921 -0.0361 -0.0870
28705W        W44966   5.693   9.016   1.634  0.1066 -0.3570 -0.0631
28706W        W44967  13.261  10.724   1.299 -0.1841 -0.0050  0.3728
28707W        W44968  16.344  13.625  15.593  0.0554  0.2856  0.1793
28708W        W44969  10.200   8.718   1.153 -0.2367  0.0325  0.2003
28709W        W44970  12.100   2.297  11.272  0.1623  0.1977 -0.0786
28710W        W44971   0.058   4.179   2.014 -0.0177 -0.0860 -0.0257
28711W        W44972   4.050   9.618   3.478  0.1088 -0.1406  0.0325
28712W        W44973  12.370   1.145  11.709  0.1362  0.0661 -0.0914
28713W        W44974   2.541   2.294   4.732  0.1234  0.0679 -0.1999
28714W        W44975   8.349   7.149  15.118  0.1013  0.1174  0.1428
28715W        W44976  13.259  15.176   4.559  0.0914 -0.1873 -0.0936
28716W        W44977  16.634  13.352   0.864 -0.4035  0.1520  0.2356
28717W        W44978   2.684  11.577  14.595 -0.4950  0.3433  0.2541
28718W        W44979  18.113   4.602   5.401  0.1373 -0.0157 -0.0588
28719W        W44980   7.592   0.394  14.130 -0.1395 -0.1040 -0.1229
28720W        W44981   3.267   2.945   2.913  0.1891 -0.1535 -0.0587
28721W        W44982   7.663   2.403   3.066  0.2642  0.2206  0.2292
28722W        W44983   8.108   1.496   6.400  0.1636 -0.1266 -0.2746
28723W        W44984  10.114  14.991  13.012  0.0164  0.3341 -0.0312
28724W        W44985   7.906  12.511   3.737  0.1374 -0.2186 -0.1992
28725W        W44986   8.814  18.313   0.439 -0.0157 -0.4467 -0.4524
28726W        W44987  15.153  17.269  14.315 -0.2883  0.1839  0.2854
28727W        W44988   9.941  14.514  11.345  0.2437  0.0486 -0.4061
28728W        W44989  10.578   2.232   0.687 -0.3993  0.0364 -0.0622
28729W        W44990   1.794  11.591   5.443 -0.0904 -0.3080 -0.2809
28730W        W44991  16.260   0.026   3.992 -0.1236 -0.3518 -0.1486
28731W        W44992   3.045  15.320  12.723  0.1793 -0.2554  0.0156
28732W        W44993   5.559   5.311  14.403 -0.0595 -0.2331  0.3983
28733W        W44994   5.081  16.747   1.248 -0.0408  0.0383 -0.0102
28734W        W44995   9.006   1.484   0.574  0.1461 -0.0770 -0.0642
28735W        W44996  17.274  12.690   3.246  0.2529 -0.0311  0.2274
28736W        W44997   2.994  16.654   4.535  0.0546  0.3170  0.4590
28737W        W44998  12.421  17.115   2.531 -0.2944  0.2307  0.1361
28738W        W44999  15.991  11.300  12.053 -0.1308 -0.0514 -0.4108
28739W        W45000   3.772   6.134  11.771 -0.0758 -0.0679  0.1983
28740W        W45001  16.933   9.441   0.665 -0.1708 -0.2555  0.1125
28741W        W45002  15.420  11.521  15.420  0.3670 -0.1786 -0.3648
28742W        W45003   4.691  17.890  14.895  0.0558 -0.1835 -0.2210
28743W        W45004  18.322   7.659   3.685  0.0935 -0.0518 -0.1533
28744W        W45005  18.251  10.082   1.512 -0.0829 -0.0335  0.0736
28745W        W45006  17.317   1.092  13.213 -0.0589 -0.4031  0.2932
28746W        W45007   6.487  12.702   5.070  0.2327  0.0485 -0.0024
28747W        W45008  10.755  18.182  12.084 -0.1472  0.0252 -0.3597
28748W        W45009  13.925  16.878  10.108  0.0849  0.0467 -0.1660
28749W        W45010  12.303  18.476  13.730 -0.0170  0.3762 -0.3630
28750W        W45011  12.960   3.341  11.171  0.1317  0.2276 -0.1892
28751W        W45012   8.930   1.265   5.179  0.1672 -0.0518  0.3472
28752W        W45013   9.603  14.092   0.374 -0.0382 -0.1048  0.0089
28753W        W45014  15.640   5.734  14.751 -0.0380  0.0802 -0.1615
28754W        W45015   3.421  15.077   5.453  0.0906  0.0758  0.0995
28755W        W45016  13.464   8.885  13.110  0.2998  0.1507 -0.0581
28756W        W45017  10.819  14.731  15.073 -0.0961 -0.2260  0.1014
28757W        W45018   0.598   1.359   5.693  0.1071 -0.2716  0.1127
28758W        W45019   2.236  13.792  12.543 -0.0379 -0.1874 -0.2610
28759W        W45020  16.839   7.313  15.032 -0.0012  0.2192  0.0561
28760W        W45021   9.221   1.800   3.870  0.5790  0.0947  0.1325
28761W        W45022  15.735  13.524   0.987  0.3935 -0.0325 -0.1844
28762W        W45023   3.951   9.700  13.775 -0.2254  0.1052  0.1615
28763W        W45024  13.136   7.394   3.158  0.1509 -0.0085  0.0072
28764W        W45025  18.024   4.743   6.037  0.0599 -0.2534 -0.2306
28765W        W45026   8.562  17.882   5.566 -0.3814  0.2898 -0.1101
28766W        W45027   1.817  15.197  14.443  0.1672  0.1200 -0.0258
28767W        W45028   0.537  15.704   1.143 -0.3826  0.3920  0.1616
28768W        W45029  10.819  10.975  11.297 -0.0494  0.0012 -0.1756
28769W        W45030   2.052  13.752   5.045 -0.2866  0.5333 -0.1438
28770W        W45031   4.318  13.793  11.665 -0.0429 -0.2867  0.2173
28771W        W45032   5.420   2.485  12.201  0.1703  0.0289 -0.0237
28772W        W45033  12.399  13.534   0.746 -0.0718 -0.1596  0.1791
28773W        W45034  10.534   8.992   3.307 -0.0219 -0.0463  0.0372
28774W        W45035   3.441   6.565   5.263  0.1549  0.4066 -0.0632
28775W        W45036  11.378  16.728  14.679  0.0131  0.1220  0.0475
28776W        W45037   4.086  13.688   2.893 -0.1528  0.0235 -0.0671
28777W        W45038   6.919   6.861   1.096  0.0609  0.2871 -0.0582
28778W        W45039  15.139   2.281   1.974 -0.2186  0.2747  0.4378
28779W        W45040   6.131  14.738  13.123 -0.5230 -0.1570 -0.1971
28780W        W45041  15.073  10.299  13.101  0.0784 -0.4525  0.1106
28781W        W45042   3.810   9.389  13.405 -0.0530  0.0740 -0.0338
28782W        W45043  16.852  15.703  13.224  0.3601  0.1186  0.1655
28783W        W45044  10.511  17.523  10.940 -0.3162 -0.0858  0.1077
28784W        W45045  12.825   9.509   5.357  0.0181  0.1005  0.0262
28785W        W45046   0.461  11.328   3.308 -0.1647  0.2091 -0.1605
28786W        W45047   8.432  14.532  15.888 -0.2355 -0.2501 -0.1977
28787W        W45048  14.064  13.295   2.152  0.1453  0.0227  0.0385
28788W        W45049   9.593  12.431  11.482  0.2480  0.0459  0.0918
28789W        W45050  12.950   9.603   4.394 -0.0856  0.0502  0.1170
28790W        W45051   4.150   8.136   5.286  0.1370  0.3372  0.1041
28791W        W45052   8.876  12.027  15.101 -0.0905  0.0316  0.0771
28792W        W45053   5.652   0.809  11.969 -0.2241  0.0578  0.1076
28793W        W45054  10.026  17.139  13.382  0.0324  0.0245 -0.1333
28794W        W45055   4.806   2.318   6.627  0.3838 -0.2689 -0.0038
28795W        W45056  12.713  14.949   0.748 -0.5088  0.2686  0.1134
28796W        W45057  10.575   6.224   6.305 -0.1255 -0.2051 -0.0137
28797W        W45058   3.147  10.332  13.810  0.2301  0.1164 -0.1992
28798W        W45059  12.088   0.646  11.747  0.2368  0.0020  0.1440
28799W        W45060  17.948   3.196   1.906 -0.1516  0.1815  0.2262
28800W        W45061   3.700   6.463   6.200 -0.0504  0.1211 -0.0081
28801W        W45062   8.601   0.863  14.961  0.3784  0.0326  0.0208
28802W        W45063  14.436  18.111   2.068 -0.0019 -0.0116 -0.0293
28803W        W45064   7.012   7.378   3.757 -0.2266  0.4592 -0.1105
28804W        W45065   3.821   0.884  13.378 -0.4252 -0.0691 -0.1944
28805W        W45066  18.394   6.179  13.822  0.2752  0.0098  0.1419
28806W        W45067  16.124  17.405   1.243 -0.2610 -0.0976  0.0359
28807W        W45068   2.465   8.338   5.493  0.1747  0.0083 -0.1001
28808W        W45069   4.890  17.856   0.559 -0.0538  0.2858  0.4634
28809W        W45070  11.656   9.843   0.649  0.0600 -0.1696 -0.1305
28810W        W45071  17.249   8.560   4.763 -0.1559  0.1182 -0.1075
28811W        W45072  14.776   0.596  14.582 -0.1257  0.3170 -0.0700
28812W        W45073  14.284   4.096  10.386  0.3794  0.1636  0.1048
28813W        W45074  18.377  12.859  14.473 -0.0404 -0.1954 -0.0318
28814W        W45075   7.208  11.272   1.705  0.2641  0.1543 -0.1649
28815W        W45076  11.020   7.800   6.055 -0.0584  0.3376 -0.1061
28816W        W45077   4.236  13.333   4.691 -0.0324 -0.0608  0.1391
28817W        W45078   4.945  12.579  13.545 -0.0183  0.1788 -0.0499
28818W        W45079  15.993  12.275  12.234  0.1323 -0.1261 -0.0720
28819W        W45080   2.103  11.270  14.495  0.2053  0.2061  0.0786
28820W        W45081   8.233  12.804  14.685 -0.1145 -0.1847 -0.2633
28821W        W45082  17.418  12.814   0.797 -0.2335  0.1542  0.0505
28822W        W45083   9.698   2.416   4.740  0.0716  0.1485  0.4056
28823W        W45084   4.990  16.632  15.522 -0.0773 -0.1469 -0.0947
28824W        W45085  13.192  14.414   1.330  0.2042  0.1691  0.0511
28825W        W45086   8.900   9.136  13.512 -0.0309 -0.2754 -0.0018
28826W        W45087  15.522   0.814   2.969 -0.1130  0.0943 -0.0673
28827W        W45088   3.522   3.142  16.166 -0.5565 -0.0792 -0.1175
28828W        W45089  13.958  16.853   1.938 -0.1464  0.0870 -0.0178
28829W        W45090  16.715  17.742   0.409 -0.2315 -0.1369  0.3614
28830W        W45091  18.363   9.714  14.012  0.0316  0.0725 -0.1732
28831W        W45092  15.441   3.066   1.374 -0.1380  0.2321  0.0401
28832W        W45093   7.350   2.224   5.550  0.1629  0.1391 -0.1365
28833W        W45094   0.473  13.375  15.809 -0.1322  0.0792  0.2091
28834W        W45095   9.983   5.278  12.444  0.0738 -0.0795  0.0695
28835W        W45096  14.589   1.631   0.602  0.2386 -0.0408 -0.0649
28836W        W45097   5.567   8.759   4.253  0.1960  0.0607 -0.1846
28837W        W45098  10.235  15.369   2.257 -0.2490 -0.0331  0.1227
28838W        W45099  13.719   8.287  11.730 -0.1783 -0.0576 -0.0309
28839W        W45100  13.428  11.256   3.023  0.0780 -0.4163 -0.0351
28840W        W45101   8.489   5.950   1.832 -0.0193 -0.0379 -0.1340
28841W        W45102  14.293  11.564   0.327  0.0927 -0.2135 -0.2336
28842W        W45103  13.129   9.253   2.184 -0.0278 -0.1433  0.0971
28843W        W45104  16.463   0.891   1.007 -0.0845 -0.1934 -0.3594
28844W        W45105  10.384   3.738   1.766  0.0345  0.3200 -0.0578
28845W        W45106  16.569   8.785   2.703  0.0229 -0.1998  0.1480
28846W        W45107   4.662   3.429  15.225 -0.1230  0.0454 -0.4144
28847W        W45108   7.583  16.306   3.345  0.0437  0.2822  0.0063
28848W        W45109  13.744  13.927  12.205  0.2101  0.1815  0.1327
28849W        W45110   2.799   5.105  13.708  0.2185  0.0057  0.0990
28850W        W45111  16.548   8.628   5.205 -0.1966 -0.1316 -0.1602
28851W        W45112   5.849  13.541  12.402  0.1737  0.2315 -0.3029
28852W        W45113  13.866   7.334  11.505 -0.0323 -0.0780 -0.0957
28853W        W45114  15.132   8.270   3.179 -0.3055  0.3274 -0.0246
28854W        W45115  17.503   1.055   3.573  0.0572 -0.0885  0.0968
28855W        W45116  14.204  16.515  15.242  0.1694 -0.2902 -0.0708
28856W        W45117  12.514   3.110   2.650  0.1237 -0.1785 -0.0589
28857W        W45118   2.044   1.536   3.483 -0.1568 -0.0675 -0.0182
28858W        W45119  11.849   0.523  11.270 -0.0258  0.0409  0.0659
28859W        W45120  10.408  17.270   5.647  0.2009  0.1842 -0.1853
28860W        W45121  14.810   7.810  14.287 -0.0139 -0.1443  0.1041
28861W        W45122   2.899   3.456   5.556  0.1794 -0.2680  0.2041
28862W        W45123  18.484  13.731  14.899 -0.1037  0.1576  0.1080
28863W        W45124  18.039  13.884  11.787 -0.1827  0.1956  0.1929
28864W        W45125   4.778   2.857   3.748 -0.0381 -0.1356  0.0979
28865W        W45126  12.430  15.743   4.750 -0.0136  0.1204  0.0736
28866W        W45127  17.922  12.930  14.647  0.2120 -0.2445  0.2793
28867W        W45128   0.529  14.229   4.123  0.2295 -0.1759 -0.1409
28868W        W45129  17.654  18.020   4.480  0.1638 -0.1663  0.1960
28869W        W45130   3.459  16.688   4.242 -0.0040 -0.1096  0.0971
28870W        W45131   4.937  16.293   3.344 -0.0991 -0.1116  0.2790
28871W        W45132   5.538   9.338   3.993  0.2335 -0.1865  0.0507
28872W        W45133   8.311  16.066  15.148 -0.2027 -0.1260 -0.0507
28873W        W45134  13.437   7.833  13.565 -0.0413 -0.1366  0.3445
28874W        W45135  15.149   1.771  11.887 -0.1974  0.0478 -0.1741
28875W        W45136   0.758  11.701   3.956 -0.1308 -0.2627  0.0507
28876W        W45137  13.259   1.944   2.558  0.2857 -0.3023 -0.1709
28877W        W45138   3.081   0.593   3.810 -0.0451  0.3776 -0.0958
28878W        W45139   0.023  15.778   2.969  0.1054 -0.1141 -0.0495
28879W        W45140  17.262   1.837  12.673  0.1366  0.2403  0.1520
28880W        W45141   8.206  14.865   5.378  0.2368  0.2281 -0.1186
28881W        W45142  16.588   8.673   2.139  0.2796  0.1051 -0.3479
28882W        W45143   2.742  11.853   1.251  0.2600  0.0394 -0.1053
28883W        W45144  10.180  11.773   0.715  0.0173 -0.0948 -0.0553
28884W        W45145  16.226   9.003   5.348  0.2684 -0.1624 -0.4032
28885W        W45146  10.874  11.861  14.560 -0.0279  0.2144 -0.1701
28886W        W45147  14.119   2.206  13.135 -0.0215 -0.3306  0.1227
28887W        W45148   9.853   8.674  11.523  0.0595  0.3007 -0.0454
28888W        W45149  15.292   0.094  15.321 -0.1158  0.0781 -0.1870
28889W        W45150   4.527   9.759  13.041 -0.2364 -0.0105 -0.0120
28890W        W45151   3.293   7.491   0.845  0.0243  0.0298  0.0852
28891W        W45152  11.765  11.873   5.805 -0.3925 -0.2331 -0.4138
28892W        W45153  11.112   8.991   2.668  0.1594  0.0094 -0.1634
28893W        W45154   7.662   4.106  14.535 -0.2485 -0.1629 -0.2145
28894W        W45155  10.827   4.744  14.118  0.1937 -0.2200 -0.0839
28895W        W45156  10.059   5.031  14.662  0.0257 -0.3215  0.0448
28896W        W45157  11.532  16.057   4.097  0.0656 -0.1087 -0.1546
28897W        W45158   8.026  17.409   4.177 -0.1481 -0.1904  0.0739
28898W        W45159  14.217  13.002   1.242 -0.0570 -0.2524  0.0423
28899W        W45160   8.305  17.278  15.955 -0.1100 -0.1761  0.0626
28900W        W45161  10.472  12.839   3.935  0.3398 -0.0911 -0.0097
28901W        W45162   0.570  14.450   1.840 -0.5066 -0.0783  0.3207
28902W        W45163  17.828   7.215   1.081 -0.2731 -0.1422 -0.0193
28903W        W45164   1.780   0.510   4.760 -0.0982 -0.2369 -0.3709
28904W        W45165   0.587  10.533  12.644  0.1202  0.1083 -0.3500
28905W        W45166   2.151  17.445   3.520  0.0412 -0.0273 -0.0128
28906W        W45167  12.303   1.645  10.508  0.0519 -0.2534  0.3324
28907W        W45168   3.951  13.222   2.562 -0.0498  0.0809  0.3157
28908W        W45169  15.066   6.259   5.414  0.1043 -0.2363 -0.0763
28909W        W45170  13.251   5.667  16.169  0.1167 -0.0751  0.2372
28910W        W45171  13.585  12.587   3.823  0.2284  0.1832 -0.0131
28911W        W45172  14.459  18.454   4.850 -0.3724 -0.0857 -0.0308
28912W        W45173  16.261   5.447   0.412 -0.7159  0.1357 -0.0666
28913W        W45174  11.017  15.260  15.073 -0.1312  0.2039 -0.0591
28914W        W45175   2.031   8.264  11.831 -0.0158  0.1208 -0.0059
28915W        W45176   2.289  13.051   3.178 -0.1328 -0.2018 -0.3393
28916W        W45177   8.149   8.911   1.795 -0.0253 -0.0671  0.1602
28917W        W45178  17.434   5.725   1.415  0.0274 -0.4493  0.0052
28918W        W45179   6.234   8.665   1.033  0.1793 -0.0237  0.0052
28919W        W45180   5.016  11.334   5.224  0.2485 -0.4276 -0.0514
28920W        W45181  15.539  14.934  10.633 -0.0843 -0.3049 -0.1469
28921W        W45182  14.088  12.487   3.305  0.0067 -0.0204 -0.4672
28922W        W45183   6.894   3.864   4.319  0.1726  0.2069  0.0754
28923W        W45184  12.383   0.566  13.624  0.2219 -0.0700 -0.1368
28924W        W45185   7.594  10.941  14.246  0.0336  0.0369 -0.1444
28925W        W45186   5.117   6.677  12.665 -0.2762  0.0134 -0.1901
28926W        W45187  12.618  15.555   2.433  0.3369 -0.4959 -0.1391
28927W        W45188   3.188   0.825  15.518 -0.0359  0.0399  0.3800
28928W        W45189  14.221   2.245  12.178 -0.2687 -0.0923 -0.0037
28929W        W45190   4.729   0.887   0.104  0.0502  0.5667  0.0655
28930W        W45191   4.443  13.237  12.501 -0.0656 -0.3175 -0.2665
28931W        W45192   1.078  12.517  13.879 -0.0424  0.3897  0.2782
28932W        W45193  14.947  13.144   4.486 -0.2662 -0.0371  0.5430
28933W        W45194  14.790   6.844  14.708  0.3133  0.1837 -0.2491
28934W        W45195   3.024  13.138   0.886 -0.1401 -0.1276 -0.1600
28935W        W45196  10.054   4.995   5.556 -0.2592  0.0315  0.0435
28936W        W45197   8.665   1.068  11.924  0.1314 -0.0526  0.3435
28937W        W45198   3.560  11.969   0.782  0.1000 -0.0503 -0.0445
28938W        W45199  18.336   2.677  15.996 -0.0686 -0.1476  0.1919
28939W        W45200   1.997   4.008  13.804 -0.2997 -0.0194  0.2442
28940W        W45201   1.625  13.179   4.279 -0.0005 -0.2362  0.0682
28941W        W45202   1.896  14.007  11.041 -0.0714  0.0572  0.0312
28942W        W45203   2.333   4.257   1.026 -0.3073  0.0952 -0.0209
28943W        W45204   5.691   3.274   4.104  0.1124 -0.0622 -0.0173
28944W        W45205  14.495  10.815  11.904 -0.2493 -0.1426  0.0072
28945W        W45206  10.819   7.130  13.530  0.1071  0.1723  0.0238
28946W        W45207   3.577  16.467   5.099  0.0590 -0.2874 -0.0381
28947W        W45208  10.457   0.173  13.869 -0.0676 -0.2176  0.2526
28948W        W45209   7.050   1.220  11.890  0.0032 -0.0808 -0.0454
28949W        W45210  17.100  15.220  13.036 -0.2065  0.1672  0.1966
28950W        W45211  17.767   1.186   1.134 -0.0380  0.4794  0.0194
28951W        W45212   4.064   0.049   5.655  0.1034 -0.1058 -0.0078
28952W        W45213   7.983  16.159   2.434 -0.2693 -0.2586 -0.2045
28953W        W45214   5.469  13.569   4.165  0.1177 -0.0819 -0.0391
28954W        W45215   1.392  15.727  15.783  0.1045 -0.2047 -0.2048
28955W        W45216  16.945   6.632  16.093 -0.2630 -0.3163 -0.1657
28956W        W45217   3.347   4.227  13.364  0.1562 -0.2791 -0.1923
28957W        W45218   0.543   4.506  15.812 -0.3425 -0.1380  0.0401
28958W        W45219   8.253   6.107   4.426  0.1529  0.2821  0.1454
28959W        W45220  17.265  13.629  16.167  0.0768  0.0106  0.0272
28960W        W45221   2.210   6.351   4.739 -0.0534  0.2245  0.0731
28961W        W45222   0.548  13.501  14.675 -0.0363 -0.2111  0.0677
28962W        W45223  14.248   6.456   2.504 -0.5092  0.2974  0.3347
28963W        W45224  17.463  12.670   1.349  0.2045  0.3457 -0.1453
28964W        W45225   2.065   4.520   1.671  0.2729  0.2939  0.4541
28965W        W45226  13.947   7.839   1.436 -0.0170  0.3305 -0.0793
28966W        W45227  14.614  12.140   4.578 -0.2591  0.1133 -0.0994
28967W        W45228   9.149  16.441   4.568  0.0528 -0.0013 -0.0109
28968W        W45229   9.326   1.726  16.023 -0.3240 -0.0518 -0.1563
28969W        W45230  16.261  12.479   2.188 -0.2705  0.1435  0.0076
28970W        W45231   0.517   2.812   6.134  0.0647 -0.2769  0.0398
28971W        W45232  11.994  14.542  14.003 -0.0587 -0.2821  0.1093
28972W        W45233   1.654   4.585   1.342  0.1868 -0.0660  0.1000
28973W        W45234   9.709  12.900   3.326  0.0857  0.0803 -0.0197
28974W        W45235   6.605   3.683   0.042 -0.0501 -0.1635  0.2266
28975W        W45236  12.844   7.396   2.233  0.2927  0.1085  0.0184
28976W        W45237  10.182  13.746  14.844  0.1365 -0.1136 -0.2373
28977W        W45238   4.592  16.047   0.393 -0.0249 -0.1224 -0.1547
28978W        W45239  11.060  12.190  13.017  0.1572 -0.1409 -0.1895
28979W        W45240   5.624  15.666  13.108 -0.1858  0.0276  0.2316
28980W        W45241   8.030   9.251  13.987  0.2057 -0.1278 -0.1224
28981W        W45242  11.830   0.072  13.592  0.0866  0.0589 -0.1017
28982W        W45243   5.815   2.427   4.760 -0.2408  0.4295 -0.1490
28983W        W45244   2.042   6.321   1.374  0.2081 -0.4141  0.2499
28984W        W45245  13.835   6.633   4.273  0.3548  0.3258  0.0455
28985W        W45246  16.330   4.626  10.148 -0.4549  0.3030 -0.0240
28986W        W45247  10.168  12.711  14.759  0.2653 -0.0544  0.1820
28987W        W45248  12.919  17.959  14.989 -0.1251  0.1944  0.0274
28988W        W45249   5.440  11.094   2.924  0.1563  0.0597  0.0369
28989W        W45250   8.127  15.767   0.585  0.0182 -0.2079 -0.2132
28990W        W45251   8.488   0.520   6.148  0.3402  0.1916 -0.3190
28991W        W45252  12.796  12.032  13.572  0.0748  0.2144 -0.2193
28992W        W45253  11.668  16.331   4.851 -0.1880  0.0990  0.0441
28993W        W45254   1.626   5.135   6.079  0.0883 -0.2744  0.1154
28994W        W45255   1.825  14.213   5.167  0.0925 -0.2285 -0.1580
28995W        W45256  17.392  11.395  15.708 -0.1183  0.0499  0.0728
28996W        W45257   9.621   8.527   5.812  0.1280 -0.1851 -0.1121
28997W        W45258   3.171   6.289   1.291  0.1182 -0.3359  0.0370
28998W        W45259  12.036  18.035  10.823 -0.1468 -0.0419 -0.0378
28999W        W45260   4.513  11.183   5.156 -0.2107  0.0786  0.2516
29000W        W45261  13.621  14.916   1.121 -0.0325  0.0176  0.1776
29001W        W45262  10.596   6.852  16.095  0.0699  0.3945 -0.3374
29002W        W45263  17.761  11.289  12.093 -0.2578 -0.0026  0.0331
29003W        W45264  12.706   1.406  10.872 -0.0200  0.0462  0.1545
29004W        W45265   6.039   4.580  12.152 -0.0479 -0.1301  0.3170
29005W        W45266  15.025  16.635   4.225  0.0836 -0.0940  0.0484
29006W        W45267   9.204   5.578   4.973  0.0384 -0.1445 -0.0836
29007W        W45268   8.232  14.949   3.249 -0.0009  0.2012  0.0405
29008W        W45269   2.460   5.936   2.517  0.2714  0.1137  0.0430
29009W        W45270   3.773   7.814   4.797 -0.0365 -0.0894  0.3793
29010W        W45271   8.682  10.865  11.635  0.1713 -0.2114 -0.0796
29011W        W45272   8.291  17.844   3.914  0.0464 -0.2685 -0.3369
29012W        W45273  15.588  10.383  14.430 -0.0941 -0.0011 -0.1640
29013W        W45274  10.012   4.184   1.469 -0.0877 -0.1683  0.3588
29014W        W45275   7.632   0.017   2.454 -0.5071 -0.1128 -0.1186
29015W        W45276   2.921   0.880  11.493  0.2517 -0.1115  0.3001
29016W        W45277   0.751   5.363  15.092 -0.0675  0.1820 -0.0085
29017W        W45278   3.805   0.216   4.759  0.1256  0.3294 -0.1877
29018W        W45279   2.150  10.658  10.354  0.0705  0.0588 -0.1158
29019W        W45280  11.464   5.708  12.205 -0.2858  0.2421 -0.3976
29020W        W45281  10.565  17.644  15.455 -0.1420 -0.1075  0.1463
29021W        W45282  12.192   6.298  13.576 -0.0078 -0.0846 -0.1217
29022W        W45283  16.594  13.999   2.601  0.1273  0.2972 -0.0165
29023W        W45284   2.162   3.835  12.917  0.0985 -0.1341  0.0479
29024W        W45285  16.112  10.025   4.859 -0.3261  0.0380  0.1086
29025W        W45286  11.630   2.320  14.751  0.0627  0.1539  0.0051
29026W        W45287  13.328   8.879   5.755 -0.3608 -0.1164 -0.0306
29027W        W45288  12.886  13.398  12.140 -0.0161 -0.2541  0.0523
29028W        W45289   6.007   0.099   1.721 -0.3126 -0.2712  0.0333
29029W        W45290   9.537  18.059   4.582 -0.1999 -0.2289  0.4594
29030W        W45291   8.701  15.915  13.790  0.3367 -0.1787 -0.2076
29031W        W45292   0.338   8.926  13.039  0.2084  0.1597  0.0135
29032W        W45293   5.792  16.036  15.695 -0.2970  0.2339  0.0166
29033W        W45294  13.570   0.566   2.975 -0.0259  0.1916 -0.0576
29034W        W45295  17.063   6.123  12.978  0.0530 -0.0407  0.1973
29035W        W45296  13.629   6.301   2.853  0.2053 -0.0626  0.1970
29036W        W45297  15.501   1.530  10.775  0.1175  0.1657  0.2525
29037W        W45298   3.322  17.200  13.402  0.1013  0.1038  0.0257
29038W        W45299  17.293  12.395   4.670 -0.0962  0.1853  0.0691
29039W        W45300   3.868  11.720   2.291  0.0604 -0.1551  0.0030
29040W        W45301   0.671   3.317  12.046  0.1853 -0.0903  0.1256
29041W        W45302  10.367  15.928  14.879 -0.2260  0.1728  0.0110
29042W        W45303   7.459  16.874  15.931  0.2025  0.1055  0.0164
29043W        W45304   7.353  10.448   0.715  0.1842 -0.0472  0.4642
29044W        W45305  13.293  15.193  12.054  0.1180 -0.0324 -0.1562
29045W        W45306  16.170   5.127   1.354 -0.0556 -0.2643 -0.1282
29046W        W45307  12.576   2.695   4.739 -0.1082  0.2527  0.0861
29047W        W45308   7.617  17.594   1.308 -0.1229 -0.0171 -0.0785
29048W        W45309   0.965  17.283  12.119  0.0546 -0.0289  0.0542
29049W        W45310  12.304   1.879   0.683  0.0374 -0.2985  0.2308
29050W        W45311   6.457  12.537   4.593  0.2506 -0.2465  0.1619
29051W        W45312   0.076   3.466  14.934  0.0526 -0.0242  0.2738
29052W        W45313   1.351   6.743   1.802 -0.1839  0.0075 -0.2391
29053W        W45314  17.131  16.013  14.363 -0.1417 -0.0371  0.1263
29054W        W45315   0.364   1.980  15.575  0.0030 -0.0137 -0.0471
29055W        W45316   9.607   5.912   0.743 -0.2645  0.0792 -0.0051
29056W        W45317  14.727   5.540   5.181 -0.2878  0.0748  0.1218
29057W        W45318  16.752  18.242   0.647 -0.0906  0.0732 -0.0757
29058W        W45319  14.971   4.864   3.216 -0.2765  0.3010 -0.0751
29059W        W45320   7.353  10.050   1.040 -0.0880 -0.0342 -0.2798
29060W        W45321  16.624   9.772   2.185 -0.4519 -0.3115 -0.0096
29061W        W45322  13.277   0.661   0.659  0.1975  0.0662 -0.0240
29062W        W45323  17.009   4.316   5.782 -0.1221 -0.1073 -0.0206
29063W        W45324  14.031  12.191   4.521 -0.2766 -0.1451 -0.2643
29064W        W45325  10.247   1.497   4.795  0.1188 -0.1978 -0.1514
29065W        W45326   4.140  16.497  15.176 -0.0165  0.0204  0.0965
29066W        W45327   9.904   6.925   4.512 -0.1096  0.0376 -0.2676
29067W        W45328  10.031  14.185  13.278 -0.0806 -0.1749 -0.1093
29068W        W45329   0.002  15.960   4.122 -0.1879  0.0776  0.1192
29069W        W45330   5.488  17.905  12.103 -0.2184  0.1070  0.5537
29070W        W45331   2.065  15.640  12.900 -0.1627 -0.3458 -0.2933
29071W        W45332  10.450  12.854   0.739 -0.0849 -0.1130 -0.0579
29072W        W45333   2.369  15.653   0.563 -0.2457 -0.0779 -0.1763
29073W        W45334  12.890   8.153  11.063 -0.2281  0.0210  0.2007
29074W        W45335   4.668  14.719  16.182  0.1818  0.0491  0.0751
29075W        W45336  10.941   5.682  11.671 -0.1404  0.0147 -0.1418
29076W        W45337  11.539  15.544  13.009  0.0750 -0.2844 -0.0553
29077W        W45338   1.856  11.913  10.987  0.0196 -0.0142  0.2546
29078W        W45339  14.477   4.119  10.847  0.1398 -0.2716 -0.0047
29079W        W45340  10.638   4.210  15.535 -0.1712 -0.1616 -0.0632
29080W        W45341   5.482  12.577  14.894 -0.1848  0.0663  0.0132
29081W        W45342   2.719  17.967  11.749 -0.2098 -0.1542 -0.0986
29082W        W45343   8.826  12.744  16.160  0.0797 -0.0093  0.1025
29083W        W45344  12.143  17.030   2.059  0.0059 -0.0251  0.0914
29084W        W45345   9.712   5.701  11.512 -0.1528  0.0350 -0.0078
29085W        W45346   2.033   1.170  15.519  0.0143 -0.0709  0.0784
29086W        W45347  10.959   6.193  13.384  0.2555 -0.1383 -0.2108
29087W        W45348   0.109  15.269  10.997 -0.4561 -0.0203  0.1037
29088W        W45349  15.944   5.466  12.058 -0.0022  0.0129  0.3720
29089W        W45350   0.241  11.182  16.109  0.0381  0.5807 -0.1623
29090W        W45351   8.928   5.777  13.966  0.1105 -0.0781  0.0267
29091W        W45352   2.264   8.774   0.109  0.1966 -0.4109  0.2075
29092W        W45353  15.186   4.346  15.186  0.1324 -0.0581 -0.5479
29093W        W45354  10.484  10.547  11.386 -0.0768 -0.0415  0.0627
29094W        W45355  10.882   9.761  11.844  0.1893  0.1230 -0.2765
29095W        W45356  11.993  16.708  12.240  0.1681 -0.0177 -0.0707
29096W        W45357  18.272  15.420   1.951 -0.0646  0.0498 -0.0337
29097W        W45358  17.795  10.413  12.419 -0.0056 -0.0087  0.4167
29098W        W45359   2.706   1.177  12.846 -0.1310  0.1086  0.2130
29099W        W45360   0.730  18.295  12.136  0.4580  0.0893 -0.0599
29100W        W45361   8.850   2.247   0.367  0.0717  0.1512  0.0683
29101W        W45362   0.096   1.288  12.429 -0.3833  0.1052 -0.0237
29102W        W45363   5.269   2.981   2.240 -0.0941 -0.1126 -0.3100
29103W        W45364  12.678   6.896  11.478 -0.3445  0.0030 -0.3923
29104W        W45365   1.851   8.669  14.212  0.0770 -0.1417 -0.0096
29105W        W45366   0.695  12.319   3.844 -0.3524 -0.0072 -0.0956
29106W        W45367   5.890  15.869   3.593  0.0296  0.1302 -0.0926
29107W        W45368   5.228   5.393   3.422 -0.2452 -0.0754  0.3321
29108W        W45369   5.590   1.318  11.977  0.0622  0.1519  0.0583
29109W        W45370   8.670   0.523   4.733 -0.0660  0.2723 -0.4926
29110W        W45371  17.013   5.300   1.127 -0.0054  0.0148  0.2546
29111W        W45372   9.158   5.034   3.883  0.0090 -0.1780  0.1752
29112W        W45373   3.603  18.158  12.544  0.1056  0.4624  0.0947
29113W        W45374  10.373  11.318   4.638 -0.0207 -0.0570  0.0056
29114W        W45375  15.128   3.954  13.434 -0.1946 -0.2267  0.2447
29115W        W45376   7.738   9.005  13.642  0.0865 -0.1909 -0.0949
29116W        W45377  13.676  16.209   0.067  0.4967 -0.1272 -0.0312
29117W        W45378  11.134  16.365  12.705  0.1254 -0.0219  0.1777
29118W        W45379   7.418  17.810  11.979  0.2242 -0.1225 -0.0525
29119W        W45380   5.009  17.635   6.103 -0.0017  0.1902  0.3166
29120W        W45381   8.963   6.400   3.667  0.0098  0.3005  0.1343
29121W        W45382   0.091  14.750  13.689  0.3593 -0.0651 -0.3739
29122W        W45383  10.194   8.635   0.599  0.0341  0.1091  0.1155
29123W        W45384   0.388   4.067   0.173  0.3366 -0.0857 -0.1013
29124W        W45385  14.404   2.536   0.288  0.1289 -0.0085  0.1311
29125W        W45386  17.924   6.908   0.270  0.1491  0.0995  0.3039
29126W        W45387   1.140  16.689  15.638  0.0077  0.1504 -0.1770
29127W        W45388   8.223   9.373  15.144  0.0916  0.1274 -0.1955
29128W        W45389  15.958  15.649  13.155 -0.0691  0.1115 -0.1960
29129W        W45390  15.423   0.306  13.410  0.1158  0.0022  0.3119
29130W        W45391  12.541   8.270  13.220  0.0960 -0.0513 -0.0976
29131W        W45392  15.313  14.466  15.430 -0.1700 -0.2051 -0.0666
29132W        W45393   8.775  15.978  15.169  0.1638  0.2154 -0.1258
29133W        W45394   0.763   0.332   0.239  0.0280  0.0602  0.0499
29134W        W45395   4.976   6.354   2.046 -0.2239 -0.0857 -0.2590
29135W        W45396   1.178   9.996   1.966 -0.0449  0.0983 -0.0068
29136W        W45397   4.460  16.007  12.557  0.0312  0.4448  0.0836
29137W        W45398   4.173   7.709   5.054 -0.2255  0.3837  0.2532
29138W        W45399  10.857   5.061   4.371  0.0648  0.1034  0.0301
29139W        W45400  18.312   0.705   4.652  0.1131 -0.3561  0.0621
29140W        W45401   4.869   0.546  15.355  0.1307  0.0994  0.0300
29141W        W45402   3.894  12.911   4.582  0.0295  0.2241 -0.0786
29142W        W45403  13.815   5.251   0.894 -0.0858 -0.3416 -0.2409
29143W        W45404   5.060   6.957   4.853  0.1004  0.0566  0.0123
29144W        W45405   5.171  15.833  13.061 -0.2218  0.0718 -0.1473
29145W        W45406  13.912   3.106   0.250  0.3996 -0.0816  0.0041
29146W        W45407  16.324   2.431   5.074 -0.0157  0.0835  0.0081
29147W        W45408  15.542   9.965  13.762  0.1002  0.0603  0.2829
29148W        W45409   8.601  16.501   3.340 -0.0883  0.1350 -0.1462
29149W        W45410   1.621  10.135   1.687  0.0691 -0.1858 -0.3660
29150W        W45411   0.004  14.949  12.340 -0.1643  0.1122 -0.1562
29151W        W45412   8.807  17.021   0.520 -0.1795 -0.1315  0.2201
29152W        W45413  10.618  17.769  12.389 -0.0153 -0.1543  0.1400
29153W        W45414  16.843  10.446  14.027 -0.1600  0.0875 -0.0369
29154W        W45415   6.436   5.330  12.513 -0.0866 -0.0423 -0.0235
29155W        W45416  12.854   4.418   0.066 -0.0123  0.0395  0.0916
29156W        W45417  13.842   9.678  15.279  0.0924  0.0833  0.1943
29157W        W45418   2.126   7.238   4.571 -0.2512 -0.0582 -0.0220
29158W        W45419  10.378  18.169  13.914 -0.5205 -0.0304 -0.0994
29159W        W45420  11.186  12.810  10.873 -0.1679 -0.1665  0.2018
29160W        W45421  12.241   8.088   0.812 -0.1224  0.0152 -0.1346
29161W        W45422  17.983  14.998   0.297 -0.5753 -0.0582 -0.0837
29162W        W45423  15.391  16.672   1.276  0.2384  0.1027 -0.1673
29163W        W45424   0.625   9.459  13.998  0.0315  0.2123  0.2086
29164W        W45425   8.203  12.575   5.695 -0.2378  0.2320 -0.1171
29165W        W45426   2.981   1.256  13.310 -0.2791  0.0370  0.0698
29166W        W45427  13.654   2.178  13.338  0.1372 -0.0463 -0.1222
29167W        W45428   3.093  14.792  13.926 -0.0968  0.1134  0.2096
29168W        W45429  15.535  10.195   0.648 -0.1399 -0.0341  0.0026
29169W        W45430  17.070   6.065  12.258 -0.0662  0.1364 -0.1271
29170W        W45431  10.928   8.857   2.146 -0.2790  0.0553  0.0480
29171W        W45432   5.622   6.210   4.265 -0.1683 -0.0886  0.1635
29172W        W45433   3.327  10.938  11.293 -0.2864  0.2298 -0.0858
29173W        W45434  15.296  14.550   2.708 -0.1826 -0.0227 -0.1851
29174W        W45435   2.238   2.402  15.186  0.1098 -0.0112 -0.0969
29175W        W45436  11.862  16.916  15.464 -0.0632  0.2349  0.1237
29176W        W45437  18.458  14.544   5.297 -0.0909 -0.0860  0.1125
29177W        W45438   2.436  13.056   2.108 -0.0198 -0.1213 -0.0217
29178W        W45439   2.556   6.996   5.308  0.2664 -0.1128  0.1331
29179W        W45440   3.292  11.772   1.285  0.0336 -0.2188  0.0153
29180W        W45441   2.191  17.548   1.247  0.3378 -0.1764  0.1802
29181W        W45442   1.142  10.640   4.233 -0.1105 -0.1480  0.0425
29182W        W45443  10.199   5.771   0.194  0.1669  0.0922 -0.0331
29183W        W45444  12.775  11.392   4.832 -0.0289  0.2201 -0.3011
29184W        W45445   4.325  13.675  11.186  0.0036  0.0539 -0.3174
29185W        W45446   5.508   8.099   1.180 -0.1762 -0.1280 -0.2816
29186W        W45447  16.420   4.025  14.261 -0.0228  0.0776  0.1563
29187W        W45448   4.604  15.183  15.185  0.2001  0.1670  0.0805
29188W        W45449  17.790   9.788   0.661  0.0053 -0.0696  0.2572
29189W        W45450   5.786  18.283  15.430 -0.0459  0.4602  0.4348
29190W        W45451  11.619   9.831   0.158 -0.1994  0.0092 -0.2796
29191W        W45452  11.704  11.471  15.602 -0.0698  0.0411  0.0991
29192W        W45453  10.913  17.864  11.551  0.0445  0.1734  0.2810
29193W        W45454  10.515   6.440  14.429  0.0413  0.1900  0.0827
29194W        W45455   3.777   3.188  14.795  0.0629 -0.0226 -0.1597
29195W        W45456   9.402   4.898   0.414  0.0810  0.0214 -0.1655
29196W        W45457   4.526  15.939   3.122 -0.1344  0.0080  0.2084
29197W        W45458  15.695  14.598  11.315 -0.1436  0.0592  0.2492
29198W        W45459   2.153  15.611  16.165 -0.0878  0.4665  0.0399
29199W        W45460  12.440  15.125  12.327  0.1223 -0.4004  0.0618
29200W        W45461  14.446   7.294   4.336  0.1309  0.0555  0.0893
29201W        W45462  11.124  12.787   0.762 -0.1477  0.0286  0.0373
29202W        W45463  17.602   6.604  14.197 -0.1696 -0.2183  0.0561
29203W        W45464  13.981   4.975  16.072 -0.1918 -0.1924 -0.0660
29204W        W45465   5.757   6.297   5.304 -0.0984 -0.0885 -0.4933
29205W        W45466   1.774   5.848   5.291  0.3660 -0.0575  0.0717
29206W        W45467   8.036  17.160   2.435  0.0277 -0.1816 -0.1344
29207W        W45468   4.947   8.402  13.209  0.0944  0.3631 -0.0973
29208W        W45469   0.425  17.486  11.941 -0.1571 -0.0191  0.0423
29209W        W45470   4.989  18.011   4.321 -0.1066 -0.0217  0.0756
29210W        W45471  14.626  10.941   1.162  0.1846  0.1337  0.0719
29211W        W45472   5.195  17.430   3.063  0.2566 -0.0301 -0.4452
29212W        W45473   9.464   6.341  13.315  0.1828 -0.1079 -0.1302
29213W        W45474   3.156  10.618   0.768 -0.1095 -0.0577 -0.3522
29214W        W45475  15.567   1.926   4.399  0.0502 -0.1255 -0.1657
29215W        W45476   4.258   7.847  12.074  0.0666  0.1889  0.1545
29216W        W45477   7.787   5.393   2.702 -0.2026 -0.2854  0.2739
29217W        W45478   6.223  17.779  12.256 -0.0941 -0.1468  0.1043
29218W        W45479  11.493  15.153   1.751 -0.0660 -0.0903  0.1618
29219W        W45480  11.579  12.906   1.018 -0.0924 -0.0665 -0.1518
29220W        W45481   1.209   9.359  13.981 -0.2829  0.0401 -0.0710
29221W        W45482   4.580   6.783   5.974  0.2728 -0.2176  0.1154
29222W        W45483  13.694  12.234   0.962 -0.0320 -0.0836  0.1707
29223W        W45484  12.446  17.426   3.130 -0.0816 -0.1367  0.1860
29224W        W45485   7.783   7.926   3.544 -0.0342 -0.2405  0.0092
29225W        W45486  12.311   6.133  15.605 -0.0300 -0.1551  0.3317
29226W        W45487  17.316  15.687  13.032 -0.4515 -0.2504 -0.0794
29227W        W45488  10.619   8.306   4.468 -0.0141  0.0385 -0.0946
29228W        W45489   9.750  12.528  14.314  0.1551  0.0049  0.3090
29229W        W45490  16.030   5.912  15.112  0.1039  0.1162  0.2014
29230W        W45491   1.417   8.203  11.754  0.0829  0.4885  0.1143
29231W        W45492   7.247  12.081  15.075  0.0123  0.1332 -0.0507
29232W        W45493  16.277  18.482   2.353 -0.1501  0.3491  0.0057
29233W        W45494   4.300   3.753  12.969 -0.1780  0.1130 -0.2354
29234W        W45495   8.418   7.579  12.038 -0.1253  0.1801  0.0133
29235W        W45496  11.530  17.657   5.223 -0.1222 -0.0946  0.0108
29236W        W45497  15.144   0.733   2.272 -0.0475  0.1647 -0.3212
29237W        W45498   8.767   3.617   5.660  0.0665 -0.5874  0.0446
29238W        W45499   3.847   0.092  15.872 -0.0282 -0.2246  0.0549
29239W        W45500   3.956  10.053   2.127 -0.1506  0.1396 -0.1036
29240W        W45501   4.958  13.267  11.904 -0.2769  0.0377 -0.0956
29241W        W45502   1.701  10.261  14.940  0.1712 -0.1168  0.1476
29242W        W45503   0.115  10.402   3.699  0.2949  0.2042 -0.4149
29243W        W45504   1.938   7.976  12.878 -0.0753  0.3555  0.0567
29244W        W45505   9.918   4.150   4.667 -0.1607 -0.1123  0.2861
29245W        W45506  10.475   5.873  11.510 -0.2692  0.0874 -0.0758
29246W        W45507  18.214   4.312   5.038  0.0030  0.0039  0.0678
29247W        W45508   2.384   0.455   2.894 -0.0755 -0.0989 -0.3404
29248W        W45509   5.471   4.908   0.703 -0.0036 -0.0870  0.2905
29249W        W45510   4.055  12.631   4.201  0.0626  0.3387 -0.0222
29250W        W45511  13.514   2.705   3.366 -0.1608  0.1424 -0.2732
29251W        W45512   7.112  14.624  15.962  0.1131 -0.0621  0.0874
29252W        W45513  17.363  17.704  15.283  0.2183 -0.0610  0.1552
29253W        W45514  17.434  15.153  10.130  0.2421 -0.2068  0.1319
29254W        W45515  12.841  16.731   2.824  0.1397  0.0563  0.1935
29255W        W45516  12.485   9.154  10.595 -0.0407  0.1826  0.2381
29256W        W45517   4.388   1.950  13.522 -0.3447  0.1811 -0.1532
29257W        W45518  17.109   6.102   2.890  0.0042 -0.2140 -0.1251
29258W        W45519   1.601  13.864  13.913  0.1991  0.1788  0.2483
29259W        W45520  14.381   7.667  14.096 -0.3992  0.1211  0.2662
29260W        W45521   2.952  18.078  11.324  0.1880 -0.4816  0.0245
29261W        W45522  16.518  10.859  14.141 -0.1854 -0.2001  0.1010
29262W        W45523  11.021  16.712  14.209  0.2963 -0.3355  0.0450
29263W        W45524   4.175   1.228   2.066 -0.0205 -0.1534 -0.1712
29264W        W45525   3.233   5.911   5.891  0.0295  0.2547 -0.3376
29265W        W45526   3.539  16.134   1.988  0.2010  0.1821 -0.2651
29266W        W45527  17.555  16.130  11.360 -0.0233 -0.0466  0.0345
29267W        W45528   0.710   7.037  15.250  0.1561  0.0416  0.1249
29268W        W45529   3.742   4.844   5.928 -0.1971  0.0313 -0.0527
29269W        W45530  13.329  14.697  12.404  0.1114 -0.0470  0.1532
29270W        W45531  12.345  10.977   2.783  0.2103 -0.0209 -0.0225
29271W        W45532  13.972   0.305  10.899 -0.0162  0.0011 -0.0920
29272W        W45533  16.455   6.260   0.152  0.0238  0.1878  0.0146
29273W        W45534  16.173  16.258  11.718 -0.1889  0.0769 -0.0251
29274W        W45535  11.117   4.293   2.081 -0.0648 -0.1518 -0.0625
29275W        W45536  11.068   1.978   4.267  0.1687  0.1175 -0.0301
29276W        W45537  16.901   2.778  12.530  0.1376  0.0611 -0.1464
29277W        W45538  12.663   4.257  13.171  0.0994  0.3729 -0.3203
29278W        W45539   3.725   3.302   2.891 -0.3484 -0.0062 -0.0225
29279W        W45540   9.695   5.066   5.228  0.0881 -0.0206  0.1432
29280W        W45541   6.503   7.264  15.193  0.3314  0.0036  0.1043
29281W        W45542  12.627   8.498  13.709 -0.2191 -0.0901  0.1164
29282W        W45543   7.332   6.524  11.755  0.0965  0.2502  0.2192
29283W        W45544   1.655   8.365   1.833  0.3221  0.0482  0.1772
29284W        W45545   0.567   1.974   4.878 -0.2071 -0.2001  0.2928
29285W        W45546   7.023  18.422  12.554  0.1493 -0.1554  0.1270
29286W        W45547   0.035   9.168  12.666  0.0738  0.1380 -0.4303
29287W        W45548   9.862  15.005  11.743  0.3149  0.0280  0.3107
29288W        W45549  17.397   6.208   1.386  0.4324 -0.1842 -0.1848
29289W        W45550  13.758   9.425  11.384  0.3830 -0.0642 -0.4642
29290W        W45551  11.585   2.015   4.161  0.1172  0.0874 -0.0954
29291W        W45552   9.949  15.865  15.616 -0.2373  0.1898  0.2900
29292W        W45553   4.574  14.795  11.089 -0.2384 -0.2025  0.0646
29293W        W45554  17.982  10.466   5.915 -0.1667 -0.2260  0.0045
29294W        W45555  15.842  14.203  13.105  0.2264 -0.0944 -0.2717
29295W        W45556   7.380   0.046  12.218  0.1059 -0.1867  0.3772
29296W        W45557   0.513  13.220   4.850  0.0824  0.1004  0.2471
29297W        W45558  15.141   1.359  15.680 -0.0458  0.3959 -0.3381
29298W        W45559   5.844   7.625  15.701  0.2997 -0.1730 -0.2042
29299W        W45560  10.323   7.862   4.639 -0.2293  0.1555  0.2102
29300W        W45561   9.406   6.959   4.180  0.2214 -0.2196 -0.6324
29301W        W45562  10.230  10.502  10.809 -0.0980 -0.1970  0.0601
29302W        W45563   7.190  14.365   6.293  0.0045  0.0819  0.1243
29303W        W45564   9.483   3.033  13.282 -0.1409 -0.0251 -0.2994
29304W        W45565   0.092   0.098   1.034 -0.0142 -0.1755  0.1938
29305W        W45566   9.800  11.547   0.397  0.0204  0.2392 -0.1686
29306W        W45567  15.933  18.048  15.593 -0.1384 -0.2848  0.1455
29307W        W45568   2.028  15.674  10.351 -0.1609 -0.0917  0.0371
29308W        W45569  15.170   1.890   4.866  0.1673  0.0619 -0.0015
29309W        W45570   0.405   0.694  15.485  0.0629 -0.0462  0.0678
29310W        W45571  18.233  16.095  11.546  0.0323 -0.0972 -0.1620
29311W        W45572   9.862  12.237  12.768 -0.2145  0.1098  0.0109
29312W        W45573  13.500  13.737  14.275  0.1696  0.0537  0.2062
29313W        W45574   5.227  16.731  12.027  0.1314 -0.0087  0.2110
29314W        W45575  12.184  12.290   2.054  0.0332 -0.4361  0.1531
29315W        W45576   9.851  11.839   4.155 -0.0754 -0.2286  0.1950
29316W        W45577   2.955   6.291   4.769 -0.0521  0.1525 -0.2310
29317W        W45578  14.467  17.686   0.914  0.0906 -0.0462 -0.0184
29318W        W45579  17.946  18.236   2.170  0.0345 -0.0498 -0.2143
29319W        W45580   9.198  11.019   3.317  0.0915  0.2409 -0.2964
29320W        W45581   7.864   9.774   1.903 -0.0689  0.0905 -0.0433
29321W        W45582   3.842  14.520   0.455  0.4110  0.4969  0.3406
29322W        W45583   0.101  12.074  11.900 -0.3581 -0.1128 -0.2420
29323W        W45584   4.956  10.771   1.193  0.0065  0.3572 -0.0413
29324W        W45585   0.021  17.798  15.436  0.1243 -0.0117 -0.0514
29325W        W45586  11.960   2.980   5.895  0.2395  0.0389 -0.1774
29326W        W45587  14.348  13.662   0.665  0.1717 -0.3286  0.0801
29327W        W45588   5.363  11.767  11.475  0.1939  0.1057 -0.1043
29328W        W45589  11.173   5.585   0.236  0.3342 -0.0723 -0.2050
29329W        W45590  14.421  18.202   4.458  0.2342  0.1805  0.3970
29330W        W45591   0.909  16.496  11.467  0.0288  0.2326  0.0075
29331W        W45592   0.453   0.518  14.955 -0.0553 -0.0915  0.0452
29332W        W45593  15.619   8.673   2.566 -0.0539  0.2049 -0.0474
29333W        W45594  15.752   3.504  14.751 -0.0627  0.3005  0.2696
29334W        W45595  10.621   5.412   0.232 -0.2500  0.1560 -0.2905
29335W        W45596  13.737   3.013  12.546  0.0586  0.3150 -0.3936
29336W        W45597  14.414  11.093  12.969 -0.1809 -0.3303 -0.0437
29337W        W45598  16.907  16.995  15.099 -0.1876 -0.2536 -0.3456
29338W        W45599   9.058   8.802  11.301 -0.2232 -0.3706  0.1526
29339W        W45600   0.725   2.591   0.877  0.2482  0.0426 -0.1663
29340W        W45601  16.926  10.460  15.988  0.0831  0.0703 -0.1237
29341W        W45602  15.878  11.658   0.631  0.1101  0.0798  0.2281
29342W        W45603   0.232   8.330   4.097  0.1001  0.1390 -0.0542
29343W        W45604  10.612   2.981   5.165  0.1827 -0.2394 -0.0350
29344W        W45605   1.009   8.470  15.740 -0.3110  0.2838 -0.2335
29345W        W45606   0.276  16.759   1.339  0.1394 -0.1160  0.1567
29346W        W45607   0.744  18.300   4.246  0.2690  0.0244 -0.2184
29347W        W45608  15.115   5.624  15.958  0.1299 -0.0493  0.1877
29348W        W45609   8.983   3.048   4.599 -0.1208 -0.1258 -0.0659
29349W        W45610   8.984  13.359  12.945  0.0260 -0.1194 -0.0739
29350W        W45611  13.485   0.671  10.497 -0.2526  0.3087  0.1203
29351W        W45612  18.288   1.749  14.775 -0.0884  0.1845  0.0238
29352W        W45613  17.716  14.511   0.181 -0.3743 -0.0501 -0.3615
29353W        W45614   1.526  12.104  14.669  0.0481 -0.1668 -0.1729
29354W        W45615   2.610   2.262   2.716  0.0019 -0.1988 -0.3131
29355W        W45616  12.070   8.046   0.316 -0.0055  0.1144 -0.3443
29356W        W45617  17.150   3.910  11.542  0.1768  0.0925 -0.1966
29357W        W45618   5.136  15.786  15.804 -0.3778  0.5795 -0.0156
29358W        W45619   4.092  10.010  12.168  0.0746  0.0983 -0.0328
29359W        W45620  13.081  16.078  13.070  0.0427 -0.0580 -0.1301
29360W        W45621  10.341  13.473  16.070  0.3224  0.3654  0.0350
29361W        W45622  16.129  12.368  11.257 -0.3538 -0.2453 -0.0552
29362W        W45623   5.687   8.114  15.672  0.0004  0.1797  0.0842
29363W        W45624   2.292  15.133   1.345  0.1930  0.1903 -0.0589
29364W        W45625   6.725   0.212  13.713 -0.0831  0.2316 -0.0537
29365W        W45626   5.014   3.266   3.488  0.0234 -0.1046  0.2443
29366W        W45627  16.621  10.889   4.965 -0.0445 -0.1810  0.1474
29367W        W45628  16.694   2.680   0.560 -0.0551 -0.0346  0.1183
29368W        W45629  18.340  13.978   1.357 -0.1716  0.1816  0.5154
29369W        W45630  11.713   1.759  15.598  0.3950 -0.0198 -0.1831
29370W        W45631  11.220  12.268   3.453  0.1312  0.4436  0.0730
29371W        W45632  13.936   1.501   4.007  0.1712 -0.5315  0.4059
29372W        W45633   1.551   6.349   1.433  0.3187  0.1622 -0.2232
29373W        W45634  17.654   8.139   2.563 -0.2112  0.2981  0.1198
29374W        W45635   2.367   0.586  14.812  0.1311  0.1792 -0.0168
29375W        W45636   4.322   9.067   5.238  0.2646  0.0496 -0.2529
29376W        W45637   9.717  13.484  14.707 -0.0672  0.0528 -0.2679
29377W        W45638   8.289  13.133  15.982 -0.1623  0.2829  0.1982
29378W        W45639   8.134  10.701   2.506  0.0113 -0.2143 -0.0667
29379W        W45640  17.347   7.699  12.876 -0.1232  0.2730  0.0545
29380W        W45641   5.365  16.207  12.286 -0.3519  0.0226 -0.0962
29381W        W45642  17.155  13.010  14.288 -0.1347 -0.0782 -0.2316
29382W        W45643  11.496  14.944   2.289  0.1736 -0.2795 -0.2044
29383W        W45644   0.012   4.059  14.949 -0.1063  0.2405  0.2234
29384W        W45645  14.581   0.599  12.862  0.4168 -0.1010 -0.1869
29385W        W45646   8.591   6.427   1.783  0.0083 -0.0104  0.1404
29386W        W45647  12.358   0.607  15.826  0.1138 -0.1180 -0.1059
29387W        W45648  12.728  14.400   1.595 -0.0363 -0.1047 -0.0427
29388W        W45649  11.216  11.174   3.515  0.1922  0.3937  0.0174
29389W        W45650   7.961   7.746  15.171 -0.1810  0.0735 -0.2253
29390W        W45651  14.703   1.077  14.315  0.2564  0.1666 -0.0374
29391W        W45652   3.749   2.092   6.026 -0.3052 -0.0149  0.1106
29392W        W45653   6.479   0.147   4.755 -0.2705 -0.0210 -0.0110
29393W        W45654  17.196  13.635   3.895  0.2993  0.0252 -0.2357
29394W        W45655  17.941   4.423   4.618 -0.0256  0.1163  0.3137
29395W        W45656   8.772   6.091   0.818 -0.0955 -0.1069 -0.3584
29396W        W45657   5.809  15.255   4.710 -0.2304 -0.0006  0.0799
29397W        W45658  10.070   5.742  12.372 -0.3468  0.3258 -0.0758
29398W        W45659  11.633   4.086   1.221  0.0005 -0.1812 -0.1254
29399W        W45660  18.162   0.694   0.566  0.2097 -0.0765  0.0687
29400W        W45661   4.660  10.427   2.646 -0.3187 -0.1478 -0.0444
29401W        W45662   2.396   3.327   5.586  0.1907  0.4266 -0.2556
29402W        W45663  17.882   0.683  15.324 -0.2385  0.2316 -0.3418
29403W        W45664  12.105   1.552  15.914  0.0695  0.0407 -0.0613
29404W        W45665   5.112  13.074  15.990 -0.1475 -0.0618 -0.1704
29405W        W45666  12.802  12.466  13.828  0.1762 -0.0726  0.3607
29406W        W45667  12.653  14.971   2.340  0.1684  0.0438  0.2555
29407W        W45668  15.140  10.135   3.966  0.1017  0.0539  0.0062
29408W        W45669   5.874   1.574   3.392  0.1897 -0.3423 -0.3318
29409W        W45670   1.903   6.403   6.072 -0.1546 -0.1443  0.2545
29410W        W45671   0.052  16.999   2.752 -0.2523 -0.0437 -0.1267
29411W        W45672  10.739  10.211  14.750 -0.0020  0.1997  0.0327
29412W        W45673  12.778   9.495  11.081  0.1094  0.1695 -0.0193
29413W        W45674  13.018  13.333   1.638 -0.0044  0.3148  0.0082
29414W        W45675  12.104   4.555  13.530  0.2085  0.1620  0.1520
29415W        W45676   5.731   7.341  11.361  0.1029  0.1125 -0.2025
29416W        W45677   6.990  13.492  15.349 -0.3253 -0.2289  0.1250
29417W        W45678  17.406   5.211  11.573 -0.2533  0.1145  0.0029
29418W        W45679  11.112  14.625   2.241 -0.5552  0.1239  0.1458
29419W        W45680  12.331   7.297   5.948  0.0539 -0.0653  0.1575
29420W        W45681   3.171  12.811   5.407  0.0909 -0.4844  0.2051
29421W        W45682   9.046  15.893   3.851  0.1773 -0.5148 -0.0174
29422W        W45683  13.668   0.109   0.044 -0.0555 -0.0439 -0.0155
29423W        W45684   1.214   5.388  13.181  0.1351 -0.0169  0.2531
29424W        W45685  16.443  17.368   2.609 -0.0375  0.0907  0.1498
29425W        W45686  11.030   4.708  13.656  0.2014 -0.1460  0.0265
29426W        W45687   8.043  15.928  11.672 -0.1105 -0.0291  0.0180
29427W        W45688   9.868   4.040   0.622 -0.0750  0.0627  0.2014
29428W        W45689   0.846  12.457  10.980  0.1158 -0.3842 -0.1365
29429W        W45690  18.131  10.355  11.579 -0.1755  0.1880  0.0830
29430W        W45691   8.573   3.904   4.991 -0.0938  0.0050 -0.2689
29431W        W45692   1.945  12.804  11.517 -0.0340  0.0823  0.1313
29432W        W45693  11.471   0.232   1.692  0.2644 -0.0132 -0.3807
29433W        W45694   6.616  10.514  10.602  0.0071  0.2451  0.0219
29434W        W45695   1.855  10.034   0.033  0.0644  0.1357  0.0949
29435W        W45696  13.845  15.864   2.272 -0.0954  0.2153 -0.1782
29436W        W45697  13.056  11.093   2.186 -0.1221 -0.0097 -0.4352
29437W        W45698   5.876   3.822   2.129  0.1479 -0.2079 -0.1791
29438W        W45699  14.585  17.910  11.460  0.0080  0.0603 -0.0319
29439W        W45700   0.970  10.941   1.386 -0.0318  0.0745 -0.0571
29440W        W45701  15.123  15.174  14.774  0.4049  0.1442  0.1992
29441W        W45702  14.308   2.805   5.383  0.1526 -0.0658  0.3167
29442W        W45703   3.517   4.202  14.837  0.1244  0.1429  0.0046
29443W        W45704   9.562   4.284  13.022  0.0793  0.0906 -0.1247
29444W        W45705  11.750  15.821   2.639  0.0915 -0.0060  0.0458
29445W        W45706  10.890   7.379   5.647  0.0656  0.2882  0.0029
29446W        W45707   9.260  10.845  13.865  0.1982 -0.1714 -0.0379
29447W        W45708  15.684  18.357  15.914  0.1132 -0.2156  0.0610
29448W        W45709   1.314  17.117  15.866  0.1661  0.0082 -0.2105
29449W        W45710  15.186  15.537  15.110  0.2934  0.1185  0.1056
29450W        W45711   5.940  14.536   0.645 -0.0461  0.1128 -0.1683
29451W        W45712  18.385  10.814  11.748 -0.3171 -0.1489  0.3455
29452W        W45713  11.190  13.991   2.650 -0.1233 -0.2363 -0.0012
29453W        W45714   6.549   3.077  14.872  0.2401 -0.2253  0.2235
29454W        W45715   3.232   7.296   3.410  0.1662 -0.0312 -0.0547
29455W        W45716   8.579  15.791   4.000 -0.0103  0.0218  0.2441
29456W        W45717  11.419   9.345   4.077 -0.0564 -0.1048  0.0350
29457W        W45718  12.521  11.457   4.093  0.2033  0.2186  0.0975
29458W        W45719  15.395   0.523   3.777 -0.0320  0.0911  0.1995
29459W        W45720  15.804  10.898  13.324  0.3144  0.0001  0.0901
29460W        W45721  17.686  12.358  13.325 -0.1779 -0.0517  0.0156
29461W        W45722   9.603   0.177  12.120  0.1711  0.2000  0.1645
29462W        W45723   2.694  12.141  14.598  0.0682  0.1243  0.0282
29463W        W45724   2.122   8.903   2.867 -0.3365  0.0733 -0.0457
29464W        W45725  16.326   4.099   4.976  0.1557  0.1135  0.1129
29465W        W45726  17.697  13.255   0.025  0.2940  0.0127  0.2679
29466W        W45727   1.179  14.518  11.444  0.4513  0.0627  0.1401
29467W        W45728  16.344   0.405  13.723  0.2127 -0.0277 -0.0323
29468W        W45729   5.726  12.360  15.545 -0.2386 -0.1904  0.1502
29469W        W45730   9.672   3.575   0.684  0.3006 -0.2078 -0.0654
29470W        W45731   4.561   7.357   2.517  0.1784  0.0615  0.2287
29471W        W45732  11.356   3.574  15.931  0.0957 -0.0418  0.1766
29472W        W45733  13.465  11.108   1.046 -0.0070  0.1295  0.1773
29473W        W45734   7.307  13.937   6.013  0.0431  0.1408  0.1291
29474W        W45735  14.916   0.051   9.759 -0.1480 -0.3285  0.0433
29475W        W45736   6.814   5.458   4.857 -0.0985 -0.1049  0.0211
29476W        W45737   3.838  11.945   3.858  0.1992 -0.1416 -0.1656
29477W        W45738   0.014   6.338  13.102 -0.1769  0.0567  0.0286
29478W        W45739  10.937   4.800   1.519  0.1365 -0.1911  0.0210
29479W        W45740  10.401  14.501  12.954 -0.1074 -0.0790 -0.1957
29480W        W45741  13.400  17.358   5.490 -0.0170 -0.1896 -0.1622
29481W        W45742   9.803   0.573   6.120  0.3623  0.1249 -0.2597
29482W        W45743   8.799  10.178  13.302  0.1042 -0.2623 -0.1797
29483W        W45744  14.379   9.526  16.082 -0.0892 -0.3779  0.0703
29484W        W45745   0.486  10.400  14.406  0.1411 -0.1170 -0.2342
29485W        W45746   3.473  11.605   3.958  0.4111 -0.1863  0.3147
29486W        W45747   8.948   3.524  14.036 -0.2713  0.1147  0.3204
29487W        W45748  18.253   4.362  11.931  0.0247 -0.5063 -0.1574
29488W        W45749   5.579   0.128  12.228 -0.0932  0.0088  0.3033
29489W        W45750  14.786   7.877   0.048  0.2005 -0.1197  0.1664
29490W        W45751   9.533  14.339  15.401 -0.0848  0.0378 -0.2473
29491W        W45752  13.203  14.306  15.038  0.0558 -0.1687 -0.1316
29492W        W45753   3.453   4.994   1.271  0.3180  0.0531  0.0528
29493W        W45754  14.559  16.197   0.929  0.2178  0.1260 -0.0984
29494W        W45755  17.896  15.050  13.584 -0.0244  0.0758  0.0318
29495W        W45756   0.534  11.984   5.724 -0.0877 -0.1399 -0.0108
29496W        W45757  17.716  13.954  16.159  0.3386 -0.3808  0.0517
29497W        W45758  16.728  14.576   3.381 -0.1996 -0.1522  0.1458
29498W        W45759   5.880  16.177   0.638 -0.2262 -0.1012  0.0126
29499W        W45760  13.836  17.826  12.947  0.0761 -0.3168  0.0859
29500W        W45761  15.239   1.329  11.601 -0.1080 -0.2209 -0.2706
29501W        W45762  13.215   0.222   2.263  0.1413 -0.0945 -0.1678
29502W        W45763  12.600   2.238   0.563  0.1039  0.2258  0.0693
29503W        W45764   3.037  17.661   2.556  0.1600 -0.3111 -0.1992
29504W        W45765  10.378  11.798  11.104  0.0767 -0.3482 -0.1498
29505W        W45766  17.772   0.030  14.681 -0.1069 -0.1140  0.1213
29506W        W45767   5.343  12.359  13.853  0.1403 -0.3454  0.2042
29507W        W45768  18.231   3.435   2.743 -0.0099  0.1897  0.1282
29508W        W45769  13.094   9.321  11.849 -0.1971 -0.3110 -0.0816
29509W        W45770   9.804   4.291  12.446 -0.1750 -0.0434  0.1522
29510W        W45771  10.464  13.165  13.811  0.2054 -0.0454 -0.0033
29511W        W45772   9.415  11.989  12.956  0.1476  0.3134  0.1204
29512W        W45773  16.864  11.765   2.046 -0.1463  0.3194  0.1175
29513W        W45774   9.441  11.280   0.808  0.0463  0.3048  0.0267
29514W        W45775  13.860  13.748   1.960  0.0395 -0.2344  0.2740
29515W        W45776   9.572   6.190   3.101  0.1677  0.0230 -0.0358
29516W        W45777  12.173  11.849  12.790  0.2670  0.1399 -0.1274
29517W        W45778   3.315  15.909  11.592  0.2988 -0.1735 -0.1597
29518W        W45779   2.197  11.739  11.379  0.0793  0.0382 -0.2697
29519W        W45780   2.291   9.280   4.335  0.4317 -0.1625  0.0415
29520W        W45781   9.278  17.349  15.202  0.1761  0.0519  0.0616
29521W        W45782   5.487  17.158   3.617  0.2076  0.0304  0.0652
29522W        W45783  14.805  11.624  12.860  0.1389 -0.1734 -0.3136
29523W        W45784  15.230  13.567  14.796  0.1049 -0.0693  0.2781
29524W        W45785   8.703  14.422  14.337  0.1667 -0.2021  0.0280
29525W        W45786  10.747  14.745  15.642  0.2373 -0.4213  0.0828
29526W        W45787  11.281  11.780  12.822 -0.0161 -0.2832 -0.0081
29527W        W45788   3.237  10.290  11.260 -0.1171  0.1948  0.0993
29528W        W45789  16.374  13.596  14.050 -0.2885  0.0577  0.2076
29529W        W45790  18.341   7.183   3.786  0.0955 -0.1869  0.0293
29530W        W45791  15.193   0.534   4.683 -0.0167  0.2825 -0.0175
29531W        W45792  17.443   3.153   1.161 -0.2493 -0.1767  0.2063
29532W        W45793   0.417  16.342   1.020  0.1228 -0.2335 -0.1447
29533W        W45794  17.484  15.869  15.885  0.0580  0.0458  0.1702
29534W        W45795   8.257   1.177  14.772 -0.0723  0.0680  0.2414
29535W        W45796  13.223  12.473   0.520 -0.3754  0.0392  0.1537
29536W        W45797   3.743   9.768   0.009  0.0947  0.2164 -0.2875
29537W        W45798   8.471   0.790   5.712  0.1909 -0.1126 -0.2330
29538W        W45799  10.749   7.585   2.030  0.2263  0.2425 -0.2601
29539W        W45800  13.747   4.670  14.662 -0.1750 -0.2050 -0.0171
29540W        W45801  13.864   8.649   3.469  0.0755  0.1393 -0.3521
29541W        W45802   7.770   8.841  14.137  0.1009 -0.3935 -0.0221
29542W        W45803   2.673  10.242   5.578 -0.2111 -0.2855  0.1431
29543W        W45804   8.181   1.688  14.449 -0.1755  0.1443 -0.3272
29544W        W45805   5.692  15.224   0.526  0.1699 -0.1946 -0.0008
29545W        W45806   5.192   2.460  13.578 -0.1117 -0.1279 -0.2098
29546W        W45807  13.992  14.204  14.594  0.1272  0.0093  0.1958
29547W        W45808   8.642   9.884  15.218 -0.0425  0.2280 -0.0022
29548W        W45809   1.025   3.582  14.018 -0.0550 -0.3662  0.0758
29549W        W45810   4.339  10.870  14.128 -0.4416 -0.0291 -0.1127
29550W        W45811   2.974  10.517   1.256 -0.1707  0.1135  0.1024
29551W        W45812  11.624   4.598  15.335 -0.1396 -0.1399 -0.0324
29552W        W45813  17.604  17.148  13.397 -0.2297  0.0748  0.3562
29553W        W45814   2.152   7.651   5.729 -0.1567  0.0502  0.1794
29554W        W45815   2.154  16.537   5.201 -0.0099 -0.0724 -0.0466
29555W        W45816   7.591   8.382  14.294  0.0264 -0.0976  0.0453
29556W        W45817   9.438   5.902   3.577 -0.3188 -0.4502 -0.0508
29557W        W45818   4.286   1.067   0.311  0.0713 -0.3254 -0.0787
29558W        W45819   4.680  10.677  11.884 -0.0794 -0.2176 -0.0921
29559W        W45820   3.615  15.219   4.940  0.0206  0.1502  0.0838
29560W        W45821  14.912  13.346   1.833  0.2088 -0.1246  0.1568
29561W        W45822   9.300   1.653  15.500  0.2888  0.0882  0.0374
29562W        W45823  11.360  14.353  13.370 -0.3311 -0.2918 -0.0454
29563W        W45824  16.144   1.952  11.278 -0.1097 -0.1864 -0.0316
29564W        W45825   6.237   8.209  12.807  0.0749  0.0969 -0.1040
29565W        W45826   0.575  11.507   4.882 -0.3461 -0.3206  0.2256
29566W        W45827   3.308  16.121  14.750  0.0187 -0.0816  0.4240
29567W        W45828   6.611   9.919  12.749  0.0396  0.0105  0.2270
29568W        W45829  16.560   2.074   1.331 -0.0865  0.1612 -0.2162
29569W        W45830  15.099  12.301  12.343 -0.0130 -0.1429  0.0677
29570W        W45831  10.180   2.794   0.180  0.1783 -0.2884 -0.0166
29571W        W45832   0.157  17.663   0.340 -0.1870  0.1121 -0.0505
29572W        W45833  10.960   5.423  12.166  0.1278  0.0018 -0.2354
29573W        W45834   4.292  18.115   3.485  0.1281  0.0201  0.4775
29574W        W45835  17.650   0.415  12.821 -0.2311 -0.2148 -0.0038
29575W        W45836  12.828   9.443   2.738 -0.3147  0.1465  0.0432
29576W        W45837   0.672  10.528   4.577 -0.0299 -0.1034 -0.1600
29577W        W45838  18.077  13.473   3.761  0.3236  0.0063 -0.2002
29578W        W45839  17.592   0.266  15.273  0.0125 -0.0346  0.0401
29579W        W45840  10.655  10.722  14.824 -0.3198  0.0677  0.4278
29580W        W45841   1.605  11.828   1.998 -0.0204  0.1667  0.1946
29581W        W45842  14.589   6.386  16.076 -0.5616  0.2219  0.1392
29582W        W45843   3.972  15.155  14.052  0.0510  0.2517 -0.2897
29583W        W45844   3.286  11.625  11.768 -0.2404  0.0684 -0.1954
29584W        W45845  13.389  10.045   3.243 -0.0838  0.2232 -0.0225
29585W        W45846  15.307  14.855  15.125 -0.1058  0.2324 -0.1521
29586W        W45847   9.759   4.753   3.639  0.1186  0.3107 -0.3407
29587W        W45848  17.060   9.692  10.815  0.1824  0.0345 -0.3381
29588W        W45849   7.753   1.752  15.284  0.1774  0.4227  0.0694
29589W        W45850  11.015   7.257  15.922 -0.0955 -0.1595 -0.0860
29590W        W45851  11.231   0.596  12.523 -0.0363  0.1534 -0.0768
29591W        W45852  10.162   4.045   6.546  0.0336 -0.0831 -0.0780
29592W        W45853   1.330  17.604  11.872  0.3439 -0.2457  0.0179
29593W        W45854   3.532   7.328   3.886 -0.2493 -0.3926  0.0006
29594W        W45855  12.121  10.180   2.057 -0.1602  0.0812  0.2254
29595W        W45856   4.526  13.719   0.267  0.3839  0.0842 -0.3051
29596W        W45857   6.826   0.824  11.599  0.0986  0.4020  0.1208
29597W        W45858  12.247  17.549  12.195  0.0320 -0.0402 -0.0368
29598W        W45859  10.029  14.452  14.396 -0.0490 -0.1575  0.0325
29599W        W45860  17.001   8.483   1.427  0.3266 -0.2870  0.1532
29600W        W45861  18.252   3.507  13.483  0.1362 -0.1278  0.1433
29601W        W45862   4.273  10.803   3.330 -0.2114  0.1087 -0.2321
29602W        W45863  11.478   5.565  15.036 -0.1149 -0.2085 -0.1413
29603W        W45864  12.422   5.608  14.857 -0.0895  0.3128  0.1180
29604W        W45865   9.758   0.133   3.422 -0.1161  0.2352 -0.0607
29605W        W45866   7.551   7.076   3.543 -0.2364  0.4323 -0.0992
29606W        W45867  11.602   3.513  11.585 -0.3296  0.3449 -0.0836
29607W        W45868  10.734   9.050  12.687 -0.2049 -0.2619 -0.1476
29608W        W45869  17.722   3.626  14.766  0.0313  0.0214  0.0644
29609W        W45870   5.551  11.496  13.229  0.1607  0.2401  0.2380
29610W        W45871   1.222   4.575   3.032  0.0778 -0.1696 -0.0121
29611W        W45872  18.163  10.349   0.899 -0.3075 -0.1638 -0.1314
29612W        W45873  12.004   5.511  13.321  0.1812 -0.2240 -0.0148
29613W        W45874   7.265   5.958  12.156  0.0921 -0.1719 -0.3374
29614W        W45875  14.104   9.791  11.613  0.0075  0.2321 -0.2864
29615W        W45876   8.239  17.128  15.477 -0.0493 -0.1171  0.3460
29616W        W45877  13.566   4.813   4.497  0.0742 -0.3025  0.3337
29617W        W45878   2.595  17.206   5.072  0.0856  0.0329 -0.4206
29618W        W45879   6.712   6.961   2.370 -0.1445  0.1132  0.1612
29619W        W45880   9.892  16.735  11.344 -0.0784 -0.2726 -0.0376
29620W        W45881  17.524   5.741  14.510  0.0244  0.2583 -0.0665
29621W        W45882   4.933   3.544   1.750 -0.3436  0.5006 -0.2464
29622W        W45883   2.312   3.059   0.793 -0.0404 -0.2346  0.0631
29623W        W45884   3.670   5.875   2.281 -0.0634  0.1217 -0.0965
29624W        W45885  10.082  11.042   1.351 -0.0041  0.0577 -0.1335
29625W        W45886   5.911  12.183  14.420  0.3975  0.1131 -0.0350
29626W        W45887   0.633  11.213   5.297  0.0095  0.1035  0.0317
29627W        W45888   8.353   5.558  12.836  0.0644  0.4414 -0.3112
29628W        W45889   8.717   8.302   2.367 -0.0835  0.2196  0.1537
29629W        W45890   6.991   6.247  13.656 -0.2147  0.2273 -0.0914
29630W        W45891  11.787   0.265  12.084 -0.1075 -0.1440  0.0091
29631W        W45892  12.808   5.125  11.265 -0.0286  0.0518  0.2447
29632W        W45893  15.252   7.022  11.900 -0.1720 -0.2379  0.0092
29633W        W45894  13.227   2.669  11.833  0.0539  0.3649 -0.2780
29634W        W45895  10.771  15.665   2.301 -0.1533  0.1202  0.2534
29635W        W45896  10.951  13.038   3.631 -0.0221  0.2049 -0.0281
29636W        W45897   3.752   9.049   2.748  0.0815  0.2135 -0.2673
29637W        W45898  10.900   0.289   2.385  0.0389  0.0201 -0.0980
29638W        W45899   9.909   3.147   2.222  0.0533  0.2742  0.2835
29639W        W45900   5.147  15.626  14.776  0.0991 -0.0517 -0.0845
29640W        W45901  15.947  12.650  14.027  0.1331 -0.3139 -0.0244
29641W        W45902   9.116   1.338  12.858 -0.1778  0.4293 -0.1122
29642W        W45903  12.410   7.370  13.533 -0.0166 -0.2796  0.0572
29643W        W45904   2.334   2.846  12.711 -0.2539 -0.0809  0.2938
29644W        W45905   8.002   7.063   3.052  0.2733 -0.0251 -0.0686
29645W        W45906   3.079  12.857   2.814  0.0031 -0.0258 -0.4819
29646W        W45907  17.643  14.398   1.117  0.0812 -0.0052  0.2886
29647W        W45908   7.286  14.595  12.302  0.2669 -0.1606 -0.1275
29648W        W45909   9.670   7.485  14.770  0.1051 -0.2932 -0.1940
29649W        W45910  14.793  16.060  11.346 -0.3162  0.0793 -0.1144
29650W        W45911  11.433   6.194  11.724  0.1237  0.1613  0.0243
29651W        W45912   4.259  15.743   0.631 -0.1232  0.4324  0.1209
29652W        W45913   0.704  10.548   3.686  0.1550 -0.1728 -0.0607
29653W        W45914   4.080  12.159   0.023  0.0914  0.0414  0.0561
29654W        W45915   4.458  12.664  13.412 -0.0803  0.0249  0.0775
29655W        W45916   9.296  15.206   4.178 -0.1491 -0.0072 -0.1117
29656W        W45917   9.966   0.763  13.157  0.0208 -0.0715  0.3269
29657W        W45918  13.943   4.601  12.533  0.1713  0.2224 -0.0444
29658W        W45919  17.361   3.200  11.254  0.0767  0.0310  0.0082
29659W        W45920   2.439   4.829   6.804  0.1608 -0.1167 -0.0081
29660W        W45921   8.117   7.136  11.817  0.1769 -0.1415  0.0270
29661W        W45922   0.998   3.064  15.718  0.1271 -0.2656 -0.2760
29662W        W45923   2.617  16.159   2.242 -0.0688  0.0026 -0.0756
29663W        W45924  10.720  17.145  15.323 -0.1140  0.0847  0.1665
29664W        W45925  11.050   3.061  14.660  0.0174  0.1598  0.1911
29665W        W45926   1.092  11.142   2.360 -0.1424 -0.0260  0.3106
29666W        W45927  11.781   7.340   0.849  0.0382  0.0055 -0.0443
29667W        W45928   3.839  12.984  13.832 -0.0597 -0.0443 -0.0801
29668W        W45929   0.908   2.671  16.157  0.0907 -0.0868 -0.5860
29669W        W45930   0.995  14.962  15.417  0.1729  0.1396 -0.1787
29670W        W45931  12.730  18.128   0.258 -0.0920 -0.2828 -0.0720
29671W        W45932  17.139  16.113  13.110 -0.1475 -0.3037 -0.0774
29672W        W45933  13.320  16.687   0.829 -0.1207 -0.0009 -0.0015
29673W        W45934  12.329   9.587   2.797 -0.0524 -0.1417  0.0100
29674W        W45935   6.523  13.868   0.599  0.1071 -0.0478  0.3350
29675W        W45936   6.348   7.274  12.646  0.2969  0.2891  0.3036
29676W        W45937   5.180   4.736   0.349  0.0585  0.2885 -0.0076
29677W        W45938   8.489   5.982  13.987  0.0134  0.1778 -0.1441
29678W        W45939   5.587  17.928  15.079 -0.0787  0.0958 -0.0879
29679W        W45940   2.700   1.221   3.265  0.0240  0.2554  0.3252
29680W        W45941  10.496   4.432  13.656  0.0973 -0.0676  0.0276
29681W        W45942   8.357  15.933  13.393 -0.2028  0.1275 -0.0867
29682W        W45943  11.323  16.255  15.013 -0.0136  0.0382  0.1421
29683W        W45944  10.139  13.264  14.751 -0.1687 -0.0011  0.0534
29684W        W45945   1.086   2.937   0.976  0.1787  0.2298 -0.0165
29685W        W45946   4.245  15.389  14.940 -0.2311 -0.0779 -0.2876
29686W        W45947   5.391   1.648  11.634 -0.1662 -0.0391  0.0013
29687W        W45948   3.967   9.308   1.410 -0.1321  0.0494 -0.4872
29688W        W45949   7.817   6.354  12.440 -0.1478 -0.4199 -0.0822
29689W        W45950   9.686   5.971   5.417 -0.0994  0.0561  0.1011
29690W        W45951  17.071  13.054  13.237  0.0436  0.2154  0.0530
29691W        W45952   4.155   0.943  15.672 -0.3139 -0.0970 -0.0012
29692W        W45953  11.069  14.785  13.508  0.2399 -0.0574 -0.1483
29693W        W45954   5.334   0.399  14.823 -0.0596 -0.1917 -0.1607
29694W        W45955  17.418   0.728  15.464  0.3153 -0.2414  0.0072
29695W        W45956   3.565   0.889  14.252  0.1322  0.2264  0.1503
29696W        W45957   3.319   5.443   3.924  0.1544  0.3654 -0.1111
29697W        W45958   5.894   8.144   2.328 -0.0954 -0.0182 -0.1195
29698W        W45959   4.131  12.701   2.672 -0.0191  0.0719 -0.4220
29699W        W45960   7.404   8.793   0.434  0.2961  0.1358 -0.2753
29700W        W45961  13.470   5.487  14.931  0.0680  0.1767 -0.1682
29701W        W45962   6.129   9.439  15.748 -0.1303 -0.0938 -0.1207
29702W        W45963   9.476  13.442   5.314  0.0110 -0.0398  0.1863
29703W        W45964   6.666  15.757   2.154  0.1570  0.2268  0.1013
29704W        W45965   6.113   2.674  13.130  0.2607 -0.2050  0.2940
29705W        W45966   3.439  11.422  13.969  0.0799  0.0415 -0.1479
29706W        W45967   1.741  14.245   0.399  0.0137  0.2802 -0.2481
29707W        W45968  17.677  12.709   5.015  0.2952  0.0653 -0.0522
29708W        W45969  13.889  11.128   3.150  0.1719 -0.2322  0.1708
29709W        W45970   0.802   2.561  12.380 -0.1986  0.0425 -0.0911
29710W        W45971   6.193   7.974   4.366 -0.1734 -0.0493 -0.0386
29711W        W45972   0.465  17.395   4.329 -0.1731  0.2718  0.1094
29712W        W45973   3.425   1.776   1.743  0.1753 -0.1059  0.0001
29713W        W45974  11.969  15.081  12.444  0.1112 -0.2234  0.2402
29714W        W45975   9.726  13.961   4.257 -0.2151  0.1530 -0.1078
29715W        W45976   7.930  18.314  14.798 -0.0720  0.3892 -0.0613
29716W        W45977  13.771  14.207  15.892  0.0060 -0.1466 -0.1181
29717W        W45978   9.223   3.809  12.873  0.1385 -0.3822  0.3393
29718W        W45979  12.266   8.846  15.442 -0.0015  0.1475 -0.3335
29719W        W45980  14.762   3.770   2.817 -0.0106 -0.1730 -0.1310
29720W        W45981  11.001  15.293  12.896 -0.0240 -0.1714  0.1221
29721W        W45982   9.429  15.244   2.320  0.1059  0.5026  0.1306
29722W        W45983   4.825   0.503   4.056 -0.1860 -0.1814  0.0905
29723W        W45984   5.031   9.888  11.753  0.2266 -0.1701 -0.0755
29724W        W45985   3.709   5.725  15.184 -0.0658 -0.0734 -0.0483
29725W        W45986  16.391   8.433  11.641  0.3146  0.0907  0.1006
29726W        W45987   9.321  10.423   0.614 -0.2542  0.1782  0.0921
29727W        W45988   3.974   3.324   4.763  0.2093 -0.0333 -0.0670
29728W        W45989   3.676  12.165  14.438  0.0453  0.1852 -0.3967
29729W        W45990  13.629  14.595   4.782 -0.2783  0.2432 -0.0417
29730W        W45991  11.124  17.565  15.460  0.2334 -0.0469 -0.0144
29731W        W45992   0.906   9.496  11.193 -0.0959  0.0037  0.5094
29732W        W45993   0.640   7.260   0.824 -0.0277 -0.1069  0.2358
29733W        W45994   9.081   1.025  13.422  0.0779 -0.1631  0.0599
29734W        W45995  14.206  14.651  10.818  0.0354  0.1184 -0.0901
29735W        W45996   3.757  10.184  15.863 -0.0684 -0.1125 -0.2264
29736W        W45997  18.476  17.757   5.265 -0.3085  0.0509 -0.0700
29737W        W45998   6.383  13.851   4.292  0.0890 -0.1202  0.1031
29738W        W45999   2.517  11.733   3.275  0.1509 -0.1790 -0.0651
29739W        W46000  14.336   9.007   2.123  0.0261  0.0039 -0.0880
29740W        W46001   7.190   6.658  14.003 -0.1708 -0.2494 -0.0678
29741W        W46002  15.456   9.765  16.036 -0.1722  0.1229 -0.2642
29742W        W46003  15.019  17.456  11.076  0.2675  0.2503  0.1508
29743W        W46004  14.018   0.219   3.209 -0.2663 -0.1549  0.1268
29744W        W46005   9.207  14.326   0.153 -0.0524 -0.0646  0.1122
29745W        W46006   4.281   4.515  13.332 -0.1443 -0.0330 -0.2449
29746W        W46007   0.531  15.876   0.234  0.1282 -0.0387 -0.3060
29747W        W46008  14.933   6.105  11.584  0.0073 -0.1371  0.1511
29748W        W46009  15.701   9.623  12.842 -0.1558  0.0853  0.0233
29749W        W46010  18.325   4.082   4.389  0.1074 -0.0700  0.2831
29750W        W46011   7.239   1.379  13.528  0.0539  0.1132 -0.0669
29751W        W46012  11.716  14.681  12.629  0.1779  0.0395  0.2134
29752W        W46013   9.193   5.541   5.521  0.2015  0.1048  0.1733
29753W        W46014   9.078   0.712   5.139 -0.3116  0.3945  0.2369
29754W        W46015  17.647  16.392  15.645  0.1827 -0.0719 -0.1199
29755W        W46016  13.281   7.857   3.331  0.0106 -0.3708 -0.3227
29756W        W46017   4.495  18.136   0.609  0.1674  0.0587 -0.2834
29757W        W46018  12.954  16.742  10.468  0.3681 -0.3060  0.0804
29758W        W46019   0.523   6.351  12.874  0.0733  0.2773 -0.0516
29759W        W46020   4.936   0.268   5.063 -0.0771  0.2421 -0.1915
29760W        W46021   6.179  10.541  14.926 -0.0094  0.2206  0.1080
29761W        W46022   5.514  14.795   1.255 -0.0843 -0.0267  0.2168
29762W        W46023   1.768   0.145   0.573  0.1583  0.1509  0.2178
29763W        W46024   6.447   2.710   0.770  0.3921  0.1155 -0.0056
29764W        W46025   1.579   9.350   2.864  0.0182  0.0111  0.1215
29765W        W46026   3.836  10.374  14.701 -0.0248  0.5270  0.2326
29766W        W46027  12.432   7.610   3.804 -0.0245 -0.1308  0.0181
29767W        W46028   2.377  12.718   9.976 -0.0718  0.1956  0.0216
29768W        W46029  12.650   8.285  12.388 -0.2196  0.4022  0.0511
29769W        W46030   8.632   1.482  14.493  0.2716  0.1560 -0.0092
29770W        W46031   3.055  10.235   2.815 -0.1678  0.1658 -0.1024
29771W        W46032   2.530   9.571  11.517 -0.0355 -0.1675  0.3340
29772W        W46033  12.708   4.477   1.417  0.0797 -0.2031  0.0130
29773W        W46034  13.980   4.660   1.844  0.0321  0.1447  0.0668
29774W        W46035   3.405   0.010  13.407 -0.0833 -0.4275  0.1924
29775W        W46036   3.025  11.280  11.411  0.2378 -0.0737 -0.0239
29776W        W46037  13.180  16.460  16.173 -0.4633  0.0226  0.3060
29777W        W46038   2.249   1.867   4.354 -0.3285  0.2679  0.1445
29778W        W46039  16.824   8.568   3.537 -0.1324 -0.2019 -0.3074
29779W        W46040   0.436  18.015   4.727 -0.2792  0.3544 -0.0499
29780W        W46041  12.093  16.245   2.428  0.0254 -0.1787  0.1309
29781W        W46042  13.213   5.880   1.983  0.2694  0.0910  0.1706
29782W        W46043   9.050   8.070  11.474  0.0200  0.0399  0.0185
29783W        W46044  13.990   0.661  10.538  0.0071  0.3535  0.0301
29784W        W46045  13.725  18.212  14.985  0.1037  0.2807  0.1436
29785W        W46046  17.977   3.979  11.693 -0.3314  0.1615 -0.2679
29786W        W46047  14.417  12.265  15.314  0.0443 -0.2867  0.0369
29787W        W46048  13.792  18.021   1.277  0.1049  0.0692  0.2670
29788W        W46049   4.329   8.470   0.437 -0.1321 -0.2887  0.0985
29789W        W46050  16.703   7.888   2.459  0.1740  0.1202  0.1390
29790W        W46051   5.988   3.460   1.759  0.2449  0.0872  0.0599
29791W        W46052  17.356  13.919   2.364  0.0413 -0.2230 -0.3126
29792W        W46053   1.881   5.856   1.349  0.2923  0.0652 -0.0654
29793W        W46054   9.877   9.965   2.010  0.0114  0.1505 -0.1026
29794W        W46055  10.613  11.875  13.359 -0.2655  0.0236 -0.3426
29795W        W46056   0.488  17.940  15.050 -0.0382 -0.0364 -0.1224
29796W        W46057   3.219   3.070  13.140  0.1955 -0.0751  0.0560
29797W        W46058  13.254  14.539   9.917 -0.3977 -0.0428  0.1436
29798W        W46059  16.068  16.294  12.586  0.1302  0.0461 -0.1040
29799W        W46060  15.179  10.668   2.285  0.1071 -0.1165 -0.3423
29800W        W46061  12.468   2.850   0.858  0.2650  0.1295 -0.0560
29801W        W46062  16.779   5.255   3.557  0.1527  0.2967 -0.1895
29802W        W46063  15.278   8.793   0.961  0.0635 -0.0100 -0.2125
29803W        W46064   7.402   0.786   0.768 -0.1499 -0.0628  0.0548
29804W        W46065   0.113   0.971   2.754 -0.1879 -0.3635  0.0958
29805W        W46066   3.259  13.862   3.700 -0.0217 -0.0687 -0.3760
29806W        W46067  13.609  14.114  13.135  0.0391  0.0296 -0.3415
29807W        W46068   0.163   1.539  13.412 -0.0928 -0.3425 -0.0468
29808W        W46069   8.471   3.945   0.282  0.2765 -0.2281 -0.0024
29809W        W46070  11.002  10.237  13.370  0.1177 -0.0034 -0.1486
29810W        W46071   5.498  14.329   1.007  0.0571 -0.1157 -0.0907
29811W        W46072   7.763   1.352  14.289  0.0373 -0.1323  0.0532
29812W        W46073  15.304  15.952  15.389 -0.2831 -0.0482  0.1781
29813W        W46074   3.360  17.987  13.040 -0.0786 -0.3179  0.2053
29814W        W46075   0.796   2.174   4.069 -0.2425  0.1726 -0.1639
29815W        W46076   9.066   8.310   0.558  0.0857  0.2185  0.2009
29816W        W46077   7.497   0.845   1.936 -0.1061  0.2988 -0.1399
29817W        W46078   8.279   3.412   2.653 -0.0559  0.0593  0.0023
29818W        W46079  15.320   1.382   5.918  0.0464  0.1903  0.0251
29819W        W46080   9.997  14.866   4.363 -0.1908  0.0751 -0.0032
29820W        W46081  11.618   8.452   5.442  0.2915 -0.4673  0.2875
29821W        W46082  10.152  17.486   2.031  0.2865  0.2139  0.1563
29822W        W46083  18.483  11.686   0.399 -0.1133  0.0164 -0.1155
29823W        W46084   1.999   2.868   1.483  0.3209  0.0536 -0.0006
29824W        W46085   2.343  17.848  13.947  0.1379 -0.4462  0.0611
29825W        W46086  13.065   0.667   5.059  0.0163  0.0950  0.2400
29826W        W46087   7.755   7.299  15.858 -0.2486 -0.0203 -0.0583
29827W        W46088  11.991   1.057   0.575 -0.3594  0.1821  0.5905
29828W        W46089   2.197   9.637  15.763  0.0518 -0.0403  0.0913
29829W        W46090   5.891  12.583   2.175  0.1708 -0.2030 -0.2731
29830W        W46091  14.571   1.440  10.375  0.0210 -0.0749  0.0189
29831W        W46092   0.508  17.626  14.251  0.2738 -0.0506 -0.1958
29832W        W46093  15.334  16.917   0.201 -0.3527 -0.2543 -0.0546
29833W        W46094  15.058   1.893   4.375  0.1769  0.0669 -0.0505
29834W        W46095   0.400   0.939  11.699  0.2744 -0.0663  0.1614
29835W        W46096   6.889   7.391  13.973  0.0110 -0.0528  0.1806
29836W        W46097   1.775  13.722  14.375 -0.0579  0.1957 -0.0979
29837W        W46098  12.771  10.580   2.863  0.2163 -0.1267  0.0280
29838W        W46099   3.303  12.400   0.635  0.3165  0.0304  0.0312
29839W        W46100  17.159  10.698   4.174  0.0912 -0.2471  0.0757
29840W        W46101  15.495  13.983   3.354 -0.1365  0.2027  0.0177
29841W        W46102  16.648  11.392   3.185  0.0284 -0.4006 -0.0412
29842W        W46103  12.016   2.305  13.927  0.0309  0.0378 -0.1875
29843W        W46104  14.441  14.371   3.822  0.0306 -0.1105  0.0810
29844W        W46105  17.400   2.396  11.444  0.1912 -0.3679  0.2753
29845W        W46106  10.000  16.130   5.210  0.4369  0.1947 -0.0282
29846W        W46107  18.404   0.940   4.079 -0.1290  0.0054  0.0647
29847W        W46108   3.112   6.888   6.470 -0.0072  0.1108 -0.1153
29848W        W46109   1.314   1.288  13.667 -0.1656 -0.1102 -0.0647
29849W        W46110   1.199  12.994   4.426 -0.0622 -0.2411  0.3311
29850W        W46111  17.430   8.476   1.666  0.0198  0.1709 -0.3609
29851W        W46112  13.839   2.450   4.052  0.0056 -0.2147  0.0097
29852W        W46113  14.387   3.435  13.193  0.0167  0.2813 -0.0333
29853W        W46114  11.635   9.697   4.316 -0.0585 -0.1452  0.0537
29854W        W46115  11.734   2.309   4.491  0.3165 -0.0443 -0.2002
29855W        W46116  15.498   3.181   3.525 -0.2509 -0.0588  0.3291
29856W        W46117   1.622  14.142   0.964  0.0732  0.1685 -0.3121
29857W        W46118  15.379  10.918   9.739 -0.1365 -0.2160  0.0839
29858W        W46119  12.783  15.417  12.098  0.1129  0.0275 -0.2689
29859W        W46120   0.571   4.319   3.086  0.1265 -0.1821 -0.0596
29860W        W46121  14.040   5.026   4.814 -0.0991 -0.1405  0.0643
29861W        W46122  16.863  11.104   3.606 -0.0710 -0.2405 -0.0897
29862W        W46123   8.679   5.190   2.123  0.0532 -0.0908  0.0757
29863W        W46124   5.297  12.123  15.578 -0.0245  0.1282 -0.0022
29864W        W46125  14.173  11.615   1.214 -0.1463 -0.1019 -0.0088
29865W        W46126   4.865  17.176   5.162 -0.1992  0.0339  0.2842
29866W        W46127   8.020   4.075   6.231 -0.2717 -0.1815 -0.2963
29867W        W46128   5.286  10.140   3.200  0.0679  0.2223  0.2337
29868W        W46129  15.974  13.357   1.613  0.3303  0.1393  0.0303
29869W        W46130   0.927   0.789   2.834  0.0753  0.0666  0.3691
29870W        W46131  13.353  11.579  12.300  0.1226 -0.3591  0.0743
29871W        W46132   0.502  15.099  12.281 -0.7796 -0.0422  0.2129
29872W        W46133   7.979  10.829  15.776  0.1669  0.3954  0.2916
29873W        W46134  11.046   9.421   5.607  0.2197  0.0319  0.0231
29874W        W46135  11.816   1.587   0.450 -0.0078 -0.0756 -0.2042
29875W        W46136  14.821   8.778   1.181 -0.1075  0.1774 -0.3890
29876W        W46137   3.292   8.589   2.904 -0.2655 -0.1122  0.1941
29877W        W46138   8.378  10.058  12.999  0.3317  0.0299 -0.0950
29878W        W46139  11.646  16.419  12.420  0.0989 -0.1425  0.0465
29879W        W46140  15.083   8.679   2.193  0.1636 -0.0512  0.0458
29880W        W46141  13.387  17.002  15.312 -0.0020 -0.2267  0.3624
29881W        W46142  16.592  15.426   0.173  0.0321 -0.1738  0.1167
29882W        W46143  10.695   6.673   4.878  0.1929  0.0741  0.1977
29883W        W46144   6.448   4.719   4.399  0.1982 -0.1407  0.0687
29884W        W46145   3.252   7.733  11.720 -0.0822  0.1844  0.1058
29885W        W46146   2.459  16.953   2.260  0.3974  0.1722  0.0956
29886W        W46147   9.779  11.392  13.727 -0.3023  0.2833  0.2742
29887W        W46148  17.519   4.761  15.148  0.2327  0.4576 -0.0823
29888W        W46149  11.914   9.496  13.412 -0.0949 -0.1914 -0.0743
29889W        W46150   1.559  16.144  10.889  0.1304 -0.0327 -0.2170
29890W        W46151   4.970   5.897   0.942  0.1241  0.1369  0.1823
29891W        W46152   5.695   7.834   4.472  0.1616  0.1036  0.0575
29892W        W46153  14.161   7.861  12.585 -0.0067 -0.0667 -0.1979
29893W        W46154  13.567   0.251  12.081 -0.0734 -0.0905  0.0783
29894W        W46155  12.710   6.101  12.631 -0.0594  0.1593  0.5093
29895W        W46156   1.786   1.017   1.032 -0.1038  0.0751  0.3678
29896W        W46157  16.643   6.096   5.742 -0.2854 -0.0151 -0.1581
29897W        W46158   5.224   4.460  13.843  0.1487 -0.0401 -0.2496
29898W        W46159  12.373   8.176  16.077  0.4046  0.3037  0.2487
29899W        W46160   5.696   3.885   5.121 -0.0374  0.4179  0.0606
29900W        W46161  18.029   4.400  11.355  0.4009 -0.1366 -0.0823
29901W        W46162   5.446   2.316  15.187 -0.2356  0.2265 -0.0978
29902W        W46163  18.311  15.985  14.672 -0.0935  0.0566  0.0038
29903W        W46164  16.300  10.682   0.740 -0.1405  0.2222  0.1591
29904W        W46165  15.859  17.282   2.542 -0.1959 -0.0349 -0.2296
29905W        W46166   8.997   3.964  15.599 -0.1632  0.1452 -0.1733
29906W        W46167   3.089   8.537  11.908 -0.1481  0.2209  0.0080
29907W        W46168   3.798  15.957  11.602 -0.2421  0.2971  0.0663
29908W        W46169   4.037   2.270   1.089 -0.2265 -0.0155  0.2383
29909W        W46170   3.457   3.022   1.392 -0.0143 -0.3783 -0.0498
29910W        W46171   8.584  12.278   5.514  0.0794 -0.0667  0.1098
29911W        W46172  17.313  17.149   3.854 -0.1052 -0.1331  0.2531
29912W        W46173   1.667   3.037   5.086 -0.0504  0.1678 -0.0587
29913W        W46174   1.119  16.578   4.851 -0.1554 -0.1460  0.2960
29914W        W46175  15.389  16.307   4.017  0.1389  0.0360 -0.1506
29915W        W46176   4.295  12.412   1.629  0.1750 -0.1127  0.0886
29916W        W46177  12.932  11.282   4.340 -0.0071  0.0630 -0.1677
29917W        W46178   7.342   6.612   1.705  0.5396 -0.2626 -0.0192
29918W        W46179   0.319  17.267   6.018 -0.2337 -0.1705  0.4598
29919W        W46180  10.757   7.231  14.497  0.0668  0.0296  0.0282
29920W        W46181   3.774   0.430  14.258 -0.0076  0.1703  0.2359
29921W        W46182   5.116   5.923   3.449  0.0949 -0.1800  0.0244
29922W        W46183  16.429  14.609   4.416 -0.2855 -0.0515 -0.0811
29923W        W46184  10.828   7.245   1.188  0.2446 -0.2468 -0.1764
29924W        W46185   8.931   3.117   3.993 -0.0549  0.0962 -0.0884
29925W        W46186  16.581  18.335  12.055  0.2245  0.1216  0.0905
29926W        W46187  17.928   1.413   4.485  0.2098 -0.1117  0.5289
29927W        W46188   3.258  17.385   0.793 -0.1318 -0.1009  0.0274
29928W        W46189  18.290   7.254  13.497  0.1009  0.3168 -0.0647
29929W        W46190  14.055  14.879  13.834  0.1385 -0.0597  0.0662
29930W        W46191   4.557  10.348   4.518  0.2229 -0.0476 -0.0489
29931W        W46192   1.700  15.161   2.554 -0.0195 -0.1093  0.0120
29932W        W46193  16.912   9.968  15.039  0.1891  0.2050  0.0072
29933W        W46194   4.935  10.760  11.013  0.0286 -0.1589  0.1285
29934W        W46195   4.845   2.613   4.215 -0.0882 -0.3345 -0.0080
29935W        W46196  17.116  13.339  15.251 -0.0795  0.1861 -0.4168
29936W        W46197  10.907   3.552   2.766 -0.0136 -0.1327 -0.1748
29937W        W46198  15.822  16.412   1.328  0.2998  0.1316  0.2883
29938W        W46199  13.263  10.624  13.770  0.0340 -0.2638 -0.0065
29939W        W46200   4.057  10.679   2.017  0.2083  0.1404  0.0844
29940W        W46201  11.931   4.904   0.549 -0.1149 -0.1394 -0.1516
29941W        W46202   4.932   5.613   0.224 -0.0572 -0.0831  0.0778
29942W        W46203  10.534   4.005  13.032 -0.0322 -0.1201  0.2794
29943W        W46204   2.767   3.068  12.312  0.1923  0.0014 -0.0410
29944W        W46205  14.613  15.230  14.487 -0.0598 -0.3232  0.1843
29945W        W46206  13.227  12.448  15.651 -0.0364  0.3881  0.2956
29946W        W46207   2.567  14.557  13.148 -0.0611 -0.1226 -0.1262
29947W        W46208   1.664  11.040   3.980  0.0099 -0.0254 -0.1839
29948W        W46209   7.289   5.584   2.654  0.1716  0.2610 -0.1383
29949W        W46210   9.339  15.360   1.333 -0.3181 -0.2126 -0.1030
29950W        W46211   9.604   3.452  15.919  0.0757 -0.0682  0.0735
29951W        W46212   8.190   2.660  15.304  0.0906  0.0698  0.3562
29952W        W46213   1.691   2.146   0.410  0.0613  0.0571 -0.3400
29953W        W46214  16.720   1.255   4.723 -0.2394  0.3208 -0.1297
29954W        W46215   1.468   3.020   4.592 -0.0995 -0.1811  0.0526
29955W        W46216  14.628  13.701  11.610 -0.1397  0.1396  0.0657
29956W        W46217  12.421   3.942   3.766  0.0377 -0.1030  0.3229
29957W        W46218   8.682   4.287  12.061 -0.2743 -0.5384 -0.2150
29958W        W46219  15.883  18.434   1.829  0.0105  0.1012 -0.2156
29959W        W46220   5.215   8.805   4.942 -0.0493 -0.1389  0.1087
29960W        W46221  11.032   2.004   3.389  0.0135  0.0755 -0.0334
29961W        W46222  13.373   9.513  12.219  0.1518  0.0569  0.1384
29962W        W46223   3.639  13.059  14.313 -0.2576 -0.0411  0.0087
29963W        W46224  18.360   4.988   3.948 -0.0928  0.1124 -0.0978
29964W        W46225   6.076   7.819   1.867 -0.1245  0.0704 -0.1558
29965W        W46226   4.150  14.341  13.627 -0.2571 -0.0966 -0.1254
29966W        W46227   1.398  13.400  14.178  0.0119  0.4684  0.0039
29967W        W46228   0.260  10.720   5.294 -0.1262  0.1874  0.1671
29968W        W46229   0.032  17.238   0.044 -0.0273 -0.2959 -0.2169
29969W        W46230  16.834  17.042  14.050  0.1167 -0.0593 -0.1354
29970W        W46231   6.515   9.330   1.685  0.2039 -0.2259 -0.0598
29971W        W46232   2.966  11.529   4.230 -0.2939  0.1788  0.0615
29972W        W46233  11.247  13.210  11.140  0.3139  0.3161 -0.0827
29973W        W46234   7.918  13.071   4.672  0.1439  0.0687 -0.0238
29974W        W46235   9.881  10.437   0.473  0.3143 -0.0288 -0.1334
29975W        W46236  11.556   8.359  11.461 -0.0429 -0.0524  0.1062
29976W        W46237  15.073  18.373  10.836 -0.0467  0.2126 -0.3186
29977W        W46238   2.956   2.561  13.497  0.0715  0.3545 -0.0999
29978W        W46239  10.298   5.466  12.787 -0.0184 -0.0669 -0.3254
29979W        W46240   7.263  14.974   2.910  0.1158 -0.4196  0.2439
29980W        W46241  16.485  12.802  15.633  0.1491 -0.0885 -0.0593
29981W        W46242  10.833   3.072  13.997  0.4767 -0.0861 -0.3655
29982W        W46243   6.912  17.357   3.201 -0.1464  0.2692  0.2286
29983W        W46244   4.811   7.656  11.283 -0.1589 -0.0926 -0.2047
29984W        W46245   7.936  10.295  13.146 -0.0570 -0.2579 -0.1834
29985W        W46246   5.565  11.505  14.177  0.2245  0.0609 -0.0768
29986W        W46247   5.760  11.778   3.947  0.3722  0.1925  0.1214
29987W        W46248  18.039   9.052  12.596 -0.1987 -0.0114 -0.2160
29988W        W46249   3.597  12.303  14.924 -0.1465 -0.2537 -0.4915
29989W        W46250  13.735   4.585   2.857 -0.3448  0.1393 -0.0924
29990W        W46251  12.779  16.057  10.946  0.0988  0.1734  0.0397
29991W        W46252  10.470  12.182   4.892  0.0079  0.0251 -0.2475
29992W        W46253  11.425   6.511   5.432  0.1151 -0.3039 -0.1506
29993W        W46254   4.017   8.449  16.131 -0.0692 -0.2049  0.0346
29994W        W46255   0.135  12.940  15.816 -0.0350  0.1026 -0.1205
29995W        W46256   7.599  12.916  13.934  0.0731  0.0750  0.2117
29996W        W46257   7.000  14.998   2.470  0.2583 -0.2331  0.0441
29997W        W46258  15.319   0.959   1.692 -0.1754 -0.1011 -0.1526
29998W        W46259   9.898  17.132   5.378  0.0334  0.1073  0.1226
29999W        W46260  11.870   7.124   0.440  0.1746 -0.1953 -0.1414
30000W        W46261  15.998   9.429   0.694  0.0718 -0.0711 -0.0780
30001W        W46262   6.884  15.269   0.437 -0.0013 -0.4335 -0.2045
30002W        W46263   6.885   7.945  12.194  0.0954 -0.2588  0.0489
30003W        W46264  16.531   5.705   4.903  0.2570  0.2559 -0.2524
30004W        W46265   5.947  13.294  15.340 -0.0270  0.0709  0.0189
30005W        W46266  14.642   7.760  11.592 -0.2241 -0.0439  0.0336
30006W        W46267  18.473   0.017   2.034 -0.0496  0.1524 -0.0635
30007W        W46268   8.668   5.408  13.220  0.0039 -0.0511  0.3680
30008W        W46269   9.119  11.572   0.621  0.3550  0.2004 -0.0873
30009W        W46270   5.229   7.338   0.637  0.1607 -0.2261 -0.1328
30010W        W46271  16.553  11.084  13.678  0.0899 -0.0452  0.1056
30011W        W46272   3.380  16.141  10.735  0.1518 -0.0647  0.2778
30012W        W46273  18.188   5.908   2.255 -0.0379 -0.1301  0.1692
30013W        W46274   1.258   9.109  11.172  0.4117  0.2925  0.3680
30014W        W46275  16.287   5.155   3.376  0.1838  0.1373 -0.2841
30015W        W46276  17.316  15.780   3.446  0.1491  0.0670 -0.0006
30016W        W46277   4.608   6.014  15.482  0.2186 -0.1826 -0.2764
30017W        W46278   4.565   2.021   2.248  0.2991 -0.0398  0.2505
30018W        W46279  16.031  12.451   4.003  0.1486  0.1206  0.1681
30019W        W46280   3.954  17.702   5.555  0.3149 -0.0406 -0.0360
30020W        W46281   7.420   1.052  14.808 -0.0422 -0.0418  0.1618
30021W        W46282  10.793   0.866   4.977 -0.4587 -0.1805 -0.0817
30022W        W46283   5.320   1.045   1.780  0.0486 -0.0239  0.3847
30023W        W46284  10.324   6.310  13.798  0.0686  0.4640 -0.0540
30024W        W46285   1.401   9.000   0.746  0.0922  0.1069  0.0439
30025W        W46286  15.255   7.340  15.708  0.2211 -0.3094 -0.2521
30026W        W46287  18.303  11.154  15.167 -0.2022 -0.0169  0.1356
30027W        W46288  14.426  13.644  14.130 -0.1218  0.2502 -0.0093
30028W        W46289   5.460  16.197  16.168  0.0440 -0.0427  0.3569
30029W        W46290  13.825   0.471  11.351  0.0144  0.2396 -0.0234
30030W        W46291   7.538  11.174   5.909  0.3688  0.1813 -0.1367
30031W        W46292  18.091   2.911   3.067  0.1400 -0.2193 -0.2223
30032W        W46293  11.628  11.904   1.855 -0.0810  0.0597  0.1099
30033W        W46294  14.934  12.868   0.838 -0.0722  0.4964  0.1119
30034W        W46295  17.763   6.402  12.062 -0.0597 -0.0952  0.0435
30035W        W46296  11.666  12.438   0.213 -0.0162  0.1328 -0.2506
30036W        W46297   5.367   0.439   4.677 -0.2470  0.1701  0.1284
30037W        W46298   0.811  11.656   4.449  0.2135  0.0282 -0.0422
30038W        W46299  16.890  10.360   5.552  0.3193  0.2368  0.0908
30039W        W46300  17.706  16.608  14.848  0.4426 -0.0581  0.0637
30040W        W46301  12.021   6.462   3.070  0.3499  0.1259 -0.1211
30041W        W46302   5.516   4.193   2.202  0.2192  0.1762 -0.0497
30042W        W46303   3.582   8.345   1.135 -0.0706 -0.2376 -0.0963
30043W        W46304  10.625  17.869  13.661 -0.1909 -0.0254 -0.4180
30044W        W46305  10.099   4.324  13.941 -0.0270  0.0255  0.1308
30045W        W46306   9.581  11.733   1.088  0.2814 -0.0139  0.1555
30046W        W46307  15.562   2.725   4.558 -0.5076  0.1845 -0.1524
30047W        W46308  10.710  16.571   5.479 -0.0098  0.1504  0.3115
30048W        W46309  12.896   5.070  13.318  0.0188 -0.0249 -0.0590
30049W        W46310   7.474  11.492  13.254  0.3423 -0.2809 -0.4018
30050W        W46311  12.340  13.898   2.820  0.0621  0.0016 -0.0166
30051W        W46312   6.479  17.943   5.692 -0.1656 -0.1822 -0.0671
30052W        W46313  14.039  17.675  13.511 -0.0444 -0.1638  0.0310
30053W        W46314  12.511  11.419  12.728  0.2800 -0.1213  0.1747
30054W        W46315   2.364   9.389  15.229  0.4655  0.2002  0.0418
30055W        W46316  17.031   8.689   0.324  0.2015 -0.1735  0.1462
30056W        W46317   7.998   0.268  12.237 -0.0939 -0.3277  0.1868
30057W        W46318   6.016  10.928   3.853 -0.0965 -0.0855  0.0608
30058W        W46319   7.180  13.985  15.523  0.0442  0.3069 -0.2086
30059W        W46320  10.436  13.382   2.330 -0.1524 -0.2328  0.0843
30060W        W46321   6.874   8.134  13.027  0.0188  0.1931  0.1454
30061W        W46322   1.504  10.378  12.913  0.1378  0.2488 -0.0751
30062W        W46323   4.798   0.263  12.065  0.1303  0.1190 -0.0641
30063W        W46324   8.928   1.342   1.498 -0.1116  0.3913  0.2241
30064W        W46325  16.114   5.632  13.949  0.1064 -0.1272  0.0201
30065W        W46326   5.002   6.206  12.450 -0.0351  0.0912 -0.1735
30066W        W46327  11.443   7.519   0.500  0.1509 -0.0288  0.0678
30067W        W46328  15.859  17.737  12.076  0.1713 -0.0220  0.3135
30068W        W46329  15.139  11.005  14.655  0.0340 -0.1642 -0.0030
30069W        W46330  10.752   6.496  13.917 -0.1419 -0.1724  0.0854
30070W        W46331   0.077   3.090   4.369  0.0580 -0.0062  0.3811
30071W        W46332  15.263   7.240   4.609 -0.0305 -0.0636 -0.0021
30072W        W46333   8.146  14.845   0.724  0.1882  0.1264 -0.1014
30073W        W46334   1.855   7.648  14.314 -0.1162  0.2794  0.2916
30074W        W46335  13.273   0.287  15.774 -0.1698 -0.0509 -0.0047
30075W        W46336   3.257   5.186   0.816 -0.0988  0.0916 -0.1225
30076W        W46337  11.827   3.903   5.410  0.2153 -0.2125  0.1804
30077W        W46338  10.303   7.018   0.567  0.0336  0.0444 -0.3179
30078W        W46339   2.020  15.168  13.536 -0.2087  0.0928 -0.0057
30079W        W46340  13.227   9.903   2.551  0.0516 -0.1162 -0.1340
30080W        W46341  17.519   2.857  15.078 -0.0964  0.0877  0.1532
30081W        W46342  12.996  12.836   1.614 -0.2031 -0.1520  0.1225
30082W        W46343  15.977   6.593   1.723 -0.0573  0.0002 -0.1557
30083W        W46344  13.451  15.330  15.092 -0.2225  0.2145 -0.0989
30084W        W46345   0.832   8.768   4.551  0.0183  0.0348 -0.1118
30085W        W46346   1.718  12.001  14.158  0.0901 -0.0107  0.2233
30086W        W46347  14.215   1.907   2.878  0.0354  0.0809  0.5140
30087W        W46348  11.713   1.719   5.160  0.2363 -0.0802 -0.5445
30088W        W46349   3.682   0.717  15.593  0.1271 -0.1137 -0.0725
30089W        W46350   9.409  16.991   5.326 -0.2149  0.2004 -0.2090
30090W        W46351   8.078  14.086   1.877  0.0033  0.0099 -0.0595
30091W        W46352  14.837   9.419  12.113 -0.0600 -0.1075 -0.0806
30092W        W46353  15.803  10.742   2.050 -0.1487  0.1909 -0.0533
30093W        W46354   6.005  15.054   1.328  0.0152  0.2391  0.1823
30094W        W46355  14.245  11.025  14.628  0.3361  0.0365 -0.0269
30095W        W46356  15.420  12.517  12.931  0.0192  0.0482  0.2030
30096W        W46357  13.289   5.623  12.602 -0.1070  0.0220  0.2883
30097W        W46358   5.054  10.753  15.670  0.1912  0.2089  0.2864
30098W        W46359   7.746  11.473  14.433  0.2637  0.1326  0.2816
30099W        W46360  18.381   1.073  11.404 -0.0958 -0.0347  0.2077
30100W        W46361   5.224  13.700  15.211 -0.0008  0.2163 -0.2103
30101W        W46362   1.575  12.666   1.650 -0.4980 -0.2133  0.0131
30102W        W46363   4.089   5.490   0.878 -0.2020  0.3452  0.1511
30103W        W46364   8.168   4.195  14.544 -0.0150 -0.2375 -0.1957
30104W        W46365   9.526   6.442   0.568 -0.0725 -0.1106 -0.2669
30105W        W46366   5.733   0.619   1.737  0.1111  0.1224  0.4996
30106W        W46367  15.591  18.033   1.785  0.1356 -0.0139  0.2321
30107W        W46368   5.932   8.549  13.667 -0.1137 -0.1442  0.2776
30108W        W46369  16.634   5.452   4.479 -0.3263  0.1047 -0.0102
30109W        W46370  16.957   2.478   3.844  0.0840  0.1384  0.0989
30110W        W46371  14.108   4.043   2.310 -0.0550 -0.0481  0.2943
30111W        W46372   9.744  16.245  15.920 -0.2398 -0.0077 -0.1351
30112W        W46373   8.791   7.671  14.535 -0.2357 -0.3290 -0.0798
30113W        W46374  18.338  17.324   2.203  0.2671 -0.1839  0.0664
30114W        W46375   3.996   8.138  11.396 -0.3347  0.1041 -0.0593
30115W        W46376   7.482   7.200  12.992  0.1096  0.3098  0.1264
30116W        W46377   0.919   6.281  13.295 -0.4707 -0.1135  0.4040
30117W        W46378  16.595   2.902   2.037  0.0106  0.1445 -0.0855
30118W        W46379   9.921   7.157  13.394 -0.2607  0.0832  0.2514
30119W        W46380  14.918  12.575  12.748 -0.0689  0.1355 -0.1698
30120W        W46381   2.133  11.826   4.008  0.3127 -0.1708  0.0355
30121W        W46382   6.362   4.414   3.966 -0.2267  0.0663 -0.0848
30122W        W46383   0.016   7.350   2.452 -0.1514  0.0822  0.4039
30123W        W46384  17.210  17.882   4.321  0.0588 -0.0527  0.1316
30124W        W46385   7.374   3.486   2.214 -0.0854  0.2064  0.1097
30125W        W46386  15.329  17.726  13.001 -0.2788  0.2832 -0.2982
30126W        W46387   6.081  10.324   4.624  0.0480  0.0043  0.2300
30127W        W46388   7.263  11.396   5.520  0.3544 -0.2077  0.2103
30128W        W46389   6.640   2.468   3.121  0.2309 -0.0121  0.2030
30129W        W46390   2.121  11.820  13.120  0.0285  0.4091  0.2583
30130W        W46391   9.219   1.212  15.885  0.0909 -0.4051  0.0996
30131W        W46392  14.494   5.247   2.981 -0.2123  0.2938 -0.0490
30132W        W46393   9.511  18.435  12.665 -0.0336 -0.0510  0.0743
30133W        W46394  18.403   7.123  12.516  0.0907 -0.1366  0.0060
30134W        W46395  18.002  10.700  13.288  0.0834 -0.1852 -0.0515
30135W        W46396   2.173  14.726  15.483 -0.0843  0.0630 -0.0412
30136W        W46397   0.586   3.314  14.573  0.2566  0.0083  0.0814
30137W        W46398  16.969   1.878  15.794  0.0887  0.1499  0.0010
30138W        W46399  17.032   0.885  13.984  0.0168  0.0167  0.2085
30139W        W46400   0.631   4.040  12.656 -0.1885  0.0349 -0.1398
30140W        W46401   5.793   5.373  13.792  0.1882  0.0501  0.3790
30141W        W46402   0.220  16.557   1.954  0.2495 -0.1241  0.2133
30142W        W46403   2.136  16.065   0.678  0.2616 -0.1861 -0.2018
30143W        W46404   1.312   6.031  13.956 -0.1426 -0.1321 -0.1449
30144W        W46405   4.654   6.690   4.676 -0.0328 -0.1875  0.1568
30145W        W46406  14.456   4.755  15.858 -0.2721 -0.2473 -0.2957
30146W        W46407   5.980  18.152  14.891 -0.0261 -0.2119 -0.0855
30147W        W46408   3.415  10.822  14.500 -0.1181  0.3517 -0.0061
30148W        W46409   6.037   6.951   3.451 -0.3331 -0.0623  0.1907
30149W        W46410   9.233  12.322   3.750 -0.0466  0.1210  0.1021
30150W        W46411  17.526   6.608   4.417 -0.0437 -0.0626  0.2335
30151W        W46412  14.009   3.215   3.120  0.0763  0.4639  0.0021
30152W        W46413   9.897   7.677  11.595  0.0084  0.1906  0.2171
30153W        W46414  12.227  15.309  14.292 -0.3356  0.0039  0.0513
30154W        W46415   1.309   4.380   6.548 -0.1770 -0.2932 -0.1454
30155W        W46416   7.480   5.642  12.884  0.1270  0.0901 -0.1162
30156W        W46417   4.582  11.236  11.890 -0.2360  0.0322  0.1419
30157W        W46418  14.436   1.955  10.838 -0.0405 -0.1505  0.0396
30158W        W46419   3.871  13.055  12.606 -0.1185  0.1160 -0.1202
30159W        W46420   3.915   9.589  12.392 -0.3108  0.1686  0.0853
30160W        W46421  12.884  12.567  12.712 -0.1276 -0.1676  0.0554
30161W        W46422  15.370   1.699  13.813  0.0275  0.1306  0.1335
30162W        W46423  12.180  17.504  14.645  0.0139 -0.1391  0.2230
30163W        W46424  16.078  15.591  15.792  0.2447 -0.2855  0.0418
30164W        W46425  11.201  12.978   2.756  0.2797 -0.0899  0.0855
30165W        W46426  13.088  14.877  12.872 -0.2091 -0.3181  0.0790
30166W        W46427   6.454  16.452  11.880 -0.1546 -0.1762 -0.2248
30167W        W46428   0.692   1.514  13.401  0.3369 -0.2180  0.1211
30168W        W46429  13.503  14.003   2.186 -0.0880  0.2403 -0.0575
30169W        W46430   1.961   3.123   3.662  0.2286 -0.0267 -0.1114
30170W        W46431  12.133  15.762   4.247 -0.4009 -0.0176 -0.4240
30171W        W46432   3.441  11.706   3.451  0.0656 -0.1329  0.1958
30172W        W46433  17.078  15.611   0.275 -0.0486 -0.2835  0.4019
30173W        W46434   4.881   3.710   5.802 -0.2363 -0.2218  0.1748
30174W        W46435   5.986   2.370  15.486 -0.0489 -0.1318  0.2186
30175W        W46436   2.364  10.964   0.927 -0.1945  0.0424  0.0765
30176W        W46437   1.495  13.450   4.740 -0.2399 -0.1077  0.0582
30177W        W46438   6.064   3.269   0.212 -0.1885  0.0572  0.2864
30178W        W46439  10.747   6.449   0.140  0.2054 -0.0793 -0.0439
30179W        W46440  17.899  18.438   0.805 -0.2426 -0.1461 -0.0740
30180W        W46441   2.331  17.664  14.644  0.1502 -0.0258 -0.0998
30181W        W46442  14.005  16.807   4.414  0.1429 -0.0015  0.0132
30182W        W46443   2.729   8.844  16.047  0.0184 -0.0155 -0.0816
30183W        W46444  18.216  13.084   5.545 -0.0854 -0.0068  0.0127
30184W        W46445  16.659   0.869   5.040  0.0246 -0.3251  0.2175
30185W        W46446   7.422  13.268  15.223 -0.0182 -0.2071  0.2555
30186W        W46447   8.101  17.299  14.787 -0.1357  0.1929  0.1171
30187W        W46448   7.521   7.750  15.648 -0.2625  0.1120 -0.3479
30188W        W46449  14.491  14.255  11.717  0.3455 -0.2160 -0.2935
30189W        W46450  15.386   3.907  11.974  0.0160 -0.2242 -0.1282
30190W        W46451  11.227  15.515   2.517  0.1709 -0.1909  0.1321
30191W        W46452  16.786   0.178   3.940 -0.1542 -0.1025  0.3309
30192W        W46453  11.136  14.507  11.828 -0.3931 -0.1626 -0.2098
30193W        W46454   0.370  12.226   1.660  0.3032  0.0268 -0.1480
30194W        W46455   4.830   8.137  12.116  0.0203  0.0818  0.3147
30195W        W46456   9.865   4.859  11.688  0.1441 -0.0513  0.0651
30196W        W46457  12.126   5.516   0.055 -0.1277 -0.1266  0.3090
30197W        W46458   1.889   1.881   1.458  0.1702 -0.3252 -0.1569
30198W        W46459   0.574  12.401   2.527 -0.0381 -0.1345  0.1324
30199W        W46460  12.266   6.894  12.344 -0.1223 -0.0940  0.1846
30200W        W46461  14.115  10.276   5.319 -0.0660 -0.0977  0.0152
30201W        W46462  11.855   3.558  11.138 -0.4531  0.0740  0.3070
30202W        W46463   3.871   3.423  14.284 -0.2306 -0.1480 -0.1785
30203W        W46464  17.742  10.341  13.025 -0.0668 -0.2880  0.0762
30204W        W46465  14.550  16.973   1.775 -0.0159 -0.2359 -0.1749
30205W        W46466  17.433   3.536  11.712  0.0921 -0.0346  0.4119
30206W        W46467  14.926   2.544   1.152  0.0971 -0.1315  0.1466
30207W        W46468   7.889   9.041   0.276 -0.2243  0.1705 -0.1685
30208W        W46469  16.990   0.645  15.693  0.2749 -0.3958  0.0372
30209W        W46470   2.108   6.775  13.499  0.1721 -0.5629 -0.3536
30210W        W46471  17.612   8.091  11.607 -0.2325  0.1750  0.2020
30211W        W46472   9.125   7.856   3.828 -0.1138  0.3040  0.1606
30212W        W46473  10.689  18.449  14.738  0.1067 -0.0829 -0.1011
30213W        W46474  13.024  13.884   1.543 -0.2192 -0.1843  0.2108
30214W        W46475   6.443  13.428  15.323  0.3238 -0.0232 -0.0124
30215W        W46476  11.539   5.460  14.219 -0.0486 -0.0286 -0.2365
30216W        W46477  14.451   4.463  13.410  0.0370 -0.0896  0.0153
30217W        W46478  18.295   8.034  11.016 -0.1115 -0.0216 -0.2996
30218W        W46479  14.331   5.349   1.912 -0.0502 -0.0861  0.2792
30219W        W46480   7.333  14.630   1.879 -0.2413 -0.1472  0.5905
30220W        W46481   4.935   2.657   2.117 -0.0781  0.0570  0.0234
30221W        W46482   6.378   6.364   1.931  0.0175 -0.0557 -0.1987
30222W        W46483   7.354  16.534   2.394  0.3056 -0.0010  0.1775
30223W        W46484   2.336  11.968  15.001 -0.0390 -0.0399 -0.0080
30224W        W46485  14.585  16.786   0.893 -0.5435 -0.1987 -0.0514
30225W        W46486  10.015  13.063  15.626  0.3312 -0.0398 -0.0631
30226W        W46487  10.909  17.818   3.280 -0.0025  0.0378 -0.4364
30227W        W46488   4.224  16.870   5.505  0.1548  0.3634 -0.0019
30228W        W46489  14.062  13.025  15.591  0.1522  0.0715  0.0682
30229W        W46490   8.918   3.827   4.694  0.0107 -0.1260 -0.0380
30230W        W46491  13.229  13.989   3.330  0.3079 -0.0915  0.0019
30231W        W46492   3.246  15.087   1.151  0.1823 -0.0939 -0.3165
30232W        W46493  15.963   0.266   0.330 -0.1867  0.0278 -0.1269
30233W        W46494   2.465  12.933   1.053  0.5480 -0.3406 -0.2729
30234W        W46495   0.448   2.304  11.680  0.2163 -0.0312 -0.3251
30235W        W46496   8.771   5.172  12.431  0.4018 -0.2131 -0.0529
30236W        W46497  12.806   0.094  14.407  0.2108  0.0223 -0.1835
30237W        W46498   9.076   7.905  13.245  0.0848 -0.1315  0.0230
30238W        W46499  10.807   4.356  13.308  0.0142  0.3657  0.0635
30239W        W46500   0.115   1.693   2.421  0.3237 -0.1818 -0.1418
30240W        W46501   6.442   9.951   0.710 -0.2171 -0.2855  0.0090
30241W        W46502   0.840  12.625   0.569 -0.4416 -0.0289  0.3232
30242W        W46503   4.838  12.526  11.194  0.2345  0.3324  0.1688
30243W        W46504   8.365  14.377  12.503  0.0496  0.0691 -0.1677
30244W        W46505   4.087   7.468  13.878  0.1930 -0.0814  0.2108
30245W        W46506   9.108   5.688   0.898  0.2137 -0.0277 -0.4584
30246W        W46507  15.870   1.150   5.165 -0.0564 -0.0213 -0.2360
30247W        W46508   3.661  12.475  13.984  0.1286  0.0202 -0.1620
30248W        W46509   9.555   4.237   4.248 -0.2499 -0.3326 -0.2749
30249W        W46510   0.550   3.199   4.046 -0.2407 -0.0298 -0.1923
30250W        W46511  13.849  12.959  13.788 -0.1669  0.0492 -0.1857
30251W        W46512  11.994  17.436  11.553  0.0957 -0.3305  0.0588
30252W        W46513   4.276  14.960   1.206 -0.2942 -0.0244 -0.0296
30253W        W46514  18.261   5.013  12.598  0.3629 -0.2930  0.0648
30254W        W46515  11.300   6.799  12.670  0.1491  0.0355  0.1708
30255W        W46516   0.199  15.376   3.075 -0.1631 -0.1237 -0.1371
30256W        W46517   2.921  13.701   0.693 -0.0196 -0.0370 -0.1960
30257W        W46518   9.114   9.555  15.815 -0.0361 -0.0474 -0.2601
30258W        W46519  10.813   9.939  15.237 -0.0307 -0.1258  0.0622
30259W        W46520  12.465  14.879  15.168  0.3310 -0.1407 -0.0664
30260W        W46521  10.336   1.320   3.220  0.0593 -0.0391  0.1927
30261W        W46522   3.602  11.223  14.385  0.1446 -0.0185 -0.1009
30262W        W46523   4.300   9.487  13.504 -0.0791  0.0421 -0.0885
30263W        W46524   0.809  14.430   1.023  0.1131 -0.0715  0.0929
30264W        W46525   2.802   2.158   0.279 -0.2235 -0.0596 -0.1427
30265W        W46526  12.182   0.305  15.024 -0.3660 -0.1396  0.3277
30266W        W46527  13.801  12.717   4.206 -0.1307 -0.2148 -0.1474
30267W        W46528  14.690   7.086   0.513  0.0684 -0.2008 -0.2827
30268W        W46529  10.458   5.075   1.610 -0.0289  0.1766 -0.4093
30269W        W46530   4.957  17.268  13.039  0.2431 -0.0165 -0.0979
30270W        W46531   6.969  11.161  15.747 -0.0044 -0.0002  0.0043
30271W        W46532  13.128  15.290   3.122  0.4202 -0.1516 -0.2971
30272W        W46533   2.279   7.948  15.842 -0.0629 -0.2355  0.2304
30273W        W46534   9.376   6.212  12.841 -0.1063 -0.3492  0.0475
30274W        W46535   2.994  15.743  12.056  0.0979  0.0034 -0.0055
30275W        W46536  10.371  12.425  12.655  0.0136  0.2021 -0.2074
30276W        W46537   6.038  12.450  12.331 -0.2370  0.0315 -0.0906
30277W        W46538  14.402  14.832   2.456  0.0773 -0.3078 -0.0445
30278W        W46539   6.284   9.868   4.358 -0.3779 -0.2889 -0.0648
30279W        W46540   0.472  17.288  15.870 -0.0721  0.1370 -0.1022
30280W        W46541   1.587   5.003   4.289  0.0899  0.1563  0.1307
30281W        W46542  11.198   3.539   4.564  0.2031 -0.1543 -0.1848
30282W        W46543  14.662  15.357  12.266 -0.0323 -0.0908  0.1684
30283W        W46544   6.210   3.940  14.897  0.3065 -0.2363  0.0446
30284W        W46545   5.187   1.996   0.239  0.2215 -0.1646  0.1139
30285W        W46546   0.402   8.159   3.252 -0.2750  0.1747  0.2068
30286W        W46547   6.407   4.836  12.434  0.0293  0.2412  0.3333
30287W        W46548   8.572  10.084   4.600 -0.1358  0.2363  0.0080
30288W        W46549  13.497   3.830  12.325 -0.1854 -0.0492  0.2260
30289W        W46550   6.768  16.862  13.668 -0.0226  0.0891  0.2106
30290W        W46551  15.491   1.534   5.097  0.1650  0.1612 -0.0789
30291W        W46552   9.116  10.461   2.515 -0.0465  0.1287  0.0423
30292W        W46553   1.041  10.110   4.450  0.2719  0.0233 -0.0409
30293W        W46554  12.986   2.381   5.007  0.0613  0.4448 -0.1906
30294W        W46555  16.339   1.316  13.794 -0.2881  0.1406  0.1422
30295W        W46556  15.090   7.921  15.742 -0.1375  0.0973  0.0554
30296W        W46557   9.226   8.357   5.038  0.2569 -0.0264 -0.2118
30297W        W46558  16.652  13.856   0.164  0.2460  0.2416 -0.0676
30298W        W46559  11.815  10.474   2.290  0.0493  0.1946 -0.2923
30299W        W46560   6.183   0.141   4.309 -0.0885  0.3746 -0.0378
30300W        W46561   8.617  15.093  15.191  0.3494 -0.0827  0.5168
30301W        W46562  15.478  15.793  13.088  0.1910 -0.0057 -0.1838
30302W        W46563  16.733   5.177  14.214 -0.0998 -0.1087  0.1377
30303W        W46564  17.555   2.489  16.156 -0.1097  0.3389  0.2382
30304W        W46565   0.561  13.312   2.306 -0.2240  0.1222  0.0446
30305W        W46566  12.128  15.877  14.151 -0.3139 -0.0629 -0.2427
30306W        W46567   2.105   8.536   1.064 -0.0024 -0.0586 -0.1828
30307W        W46568   1.648   5.546   4.134 -0.1201  0.1484  0.2070
30308W        W46569   2.545   3.689   1.880  0.1740  0.0271  0.0812
30309W        W46570   8.512   5.981  12.709 -0.0343  0.3054 -0.2292
30310W        W46571   7.238   3.166  12.779 -0.1352 -0.1647  0.1551
30311W        W46572   4.793   7.711  12.364 -0.0932  0.0731 -0.0800
30312W        W46573  15.752   8.701   5.118 -0.0941  0.2847 -0.0030
30313W        W46574  10.401   9.268   3.709  0.0203  0.1794  0.1444
30314W        W46575  17.898   4.724   3.890 -0.0462 -0.4081 -0.1872
30315W        W46576   1.868  12.206   1.844 -0.1170 -0.1200  0.1927
30316W        W46577   3.550   9.611   4.267 -0.0069 -0.0987  0.3639
30317W        W46578  11.336   2.743   1.001  0.2099 -0.1038 -0.2083
30318W        W46579  11.668  15.542  12.532 -0.2311 -0.0206  0.2934
30319W        W46580  17.729   3.020  11.513 -0.2520  0.3874  0.0385
30320W        W46581   2.677   0.118  15.043  0.2208 -0.1907  0.0325
30321W        W46582  18.149  15.126  13.190 -0.2199 -0.0364  0.2693
30322W        W46583   5.253   3.732   2.186  0.0977 -0.0946 -0.3284
30323W        W46584  14.346   6.139  15.292 -0.4421  0.0758  0.1043
30324W        W46585   6.125  16.641  15.043 -0.0090 -0.2272 -0.2593
30325W        W46586   4.442  12.419  12.787 -0.0625  0.1984 -0.3213
30326W        W46587  15.722   5.322   1.259 -0.1143 -0.1090 -0.1454
30327W        W46588   8.982  16.841  12.658  0.2160  0.0915 -0.1509
30328W        W46589   6.182   9.686   1.884  0.3354 -0.1413  0.0536
30329W        W46590   9.761   3.237   4.018  0.0192 -0.0823  0.0109
30330W        W46591   6.343  15.138  11.867 -0.1326 -0.0449 -0.2273
30331W        W46592  16.279  11.352   1.006  0.2447 -0.4939 -0.2171
30332W        W46593  11.198  12.606  15.131 -0.1165  0.0016  0.1243
30333W        W46594   9.233   8.857  14.320  0.0905 -0.1445 -0.2370
30334W        W46595  13.991  11.947   0.195 -0.2511 -0.1740 -0.0266
30335W        W46596  15.496  16.239  15.733 -0.1492  0.1438 -0.1425
30336W        W46597   7.396   2.929  12.228  0.2193  0.0081  0.1123
30337W        W46598  14.808  17.666  13.667 -0.0015 -0.0421 -0.2005
30338W        W46599   1.853   2.953  12.581 -0.2358 -0.2550  0.1389
30339W        W46600   1.563  12.006   0.863  0.0875 -0.2186  0.1890
30340W        W46601  11.058   3.996  14.793  0.2060  0.2049 -0.0857
30341W        W46602  12.776  11.281   1.676  0.0700  0.2508  0.0467
30342W        W46603   1.476  17.451   2.322 -0.0699 -0.0112  0.1593
30343W        W46604   7.558   7.040   0.081 -0.0982  0.0969  0.2209
30344W        W46605  17.011   0.754  13.499  0.2509 -0.1030  0.1154
30345W        W46606   4.916   2.580  11.959  0.0369 -0.1189  0.0061
30346W        W46607   8.019  15.585  12.120  0.3134 -0.2426  0.0746
30347W        W46608  15.157  16.698  13.695 -0.0132  0.0748 -0.1188
30348W        W46609   5.528  14.823   4.582  0.2951  0.0425 -0.1522
30349W        W46610  16.809  13.241   1.325 -0.0201  0.2285  0.0027
30350W        W46611   5.780  17.871   5.877  0.0900  0.1941 -0.0683
30351W        W46612   9.735  13.615   3.620 -0.4267  0.0472 -0.2301
30352W        W46613   4.967  18.445   4.029 -0.0210  0.0858  0.2466
30353W        W46614   1.612   9.072   0.240  0.0565  0.1003 -0.2743
30354W        W46615   4.842  13.455  12.363  0.0201 -0.0617  0.2716
30355W        W46616   3.929  12.179   1.390 -0.1491 -0.1522  0.1654
30356W        W46617  15.106  15.878  12.226 -0.0294 -0.0118 -0.0632
30357W        W46618  16.054  13.001  12.689 -0.0375  0.5133  0.2307
30358W        W46619   8.310   3.857   5.878  0.0273 -0.1851 -0.0493
30359W        W46620  17.821   8.128  13.420 -0.1577 -0.3035 -0.5620
30360W        W46621   9.584   4.268   2.765  0.0300 -0.0283  0.1268
30361W        W46622   1.802   6.596  11.083 -0.1686  0.1104 -0.1393
30362W        W46623   8.185   2.623   4.825  0.0746  0.1438 -0.1390
30363W        W46624  17.490  11.366  14.827 -0.0750  0.0328 -0.0347
30364W        W46625   6.028   3.481   5.397  0.1290 -0.3320 -0.2584
30365W        W46626  11.806   4.692   4.796  0.0835 -0.0196  0.1002
30366W        W46627   6.777  14.854   1.961 -0.1251  0.0687  0.1463
30367W        W46628  17.599   2.112  11.822  0.0664  0.0071  0.3048
30368W        W46629   7.342   3.400   1.735  0.0261 -0.1426 -0.1867
30369W        W46630   9.604   0.655   4.414 -0.1685 -0.0619  0.2143
30370W        W46631   1.570   0.391  15.833 -0.0586  0.0448  0.0757
30371W        W46632   1.956   6.752   3.449 -0.1768  0.0767  0.5130
30372W        W46633   3.967  15.792   1.078  0.0804  0.1321 -0.1560
30373W        W46634  15.835   2.331   5.225  0.2960  0.0112 -0.1804
30374W        W46635  11.244   3.273  11.927 -0.2685  0.1967  0.2688
30375W        W46636   5.475   7.740   4.030  0.2956  0.1258  0.1555
30376W        W46637  15.375  10.867  13.780 -0.3286 -0.0421  0.1504
30377W        W46638   6.412  16.251   1.988  0.1222  0.1810  0.3198
30378W        W46639   4.806  11.081   1.651 -0.2847  0.0775  0.2848
30379W        W46640   5.317  11.344  13.739 -0.1821  0.1684 -0.0082
30380W        W46641  18.083  11.483   3.545 -0.0806  0.1593 -0.2008
30381W        W46642   8.739   4.340   3.328 -0.1702  0.0032  0.1202
30382W        W46643  17.283   6.822  13.858  0.2142 -0.0278  0.0057
30383W        W46644   2.182  11.488   4.658  0.2837  0.2122 -0.1013
30384W        W46645   1.166   0.699  14.308  0.0842  0.1550 -0.2361
30385W        W46646  14.748  10.802   3.024 -0.0957  0.1269 -0.0949
30386W        W46647  17.604  12.926   0.357  0.3108  0.0381 -0.0196
30387W        W46648   7.637   7.935   1.221  0.3598  0.0259  0.3838
30388W        W46649   6.257   6.251  13.069  0.2264  0.0555 -0.0201
30389W        W46650  16.319   3.082  15.299  0.1818  0.1227  0.0041
30390W        W46651  11.314  12.751   4.817  0.0158 -0.0619  0.0975
30391W        W46652   7.058  12.518  15.114  0.0109 -0.0684  0.0580
30392W        W46653   5.832  14.225   5.472 -0.0218 -0.0891 -0.0889
30393W        W46654  14.130  10.970   1.179 -0.1480 -0.1217 -0.2347
30394W        W46655  11.078   7.248   0.246  0.0049 -0.1720 -0.0869
30395W        W46656  17.722   0.744   3.153 -0.0013 -0.1504  0.0974
30396W        W46657   0.021  15.003  10.668  0.2207  0.0987  0.3045
30397W        W46658  14.509   3.002  15.294  0.0396 -0.0863 -0.0665
30398W        W46659   9.442   7.036  14.970  0.0472  0.0411  0.0215
30399W        W46660  16.551   3.050  12.932  0.3708 -0.1160  0.0654
30400W        W46661   1.336  18.447   0.151  0.0523 -0.0403  0.0695
30401W        W46662   4.552  17.102   0.213  0.3229  0.0012  0.1005
30402W        W46663   4.439   8.314   4.334  0.1442  0.1131  0.2991
30403W        W46664  15.336   5.305   3.874  0.1280  0.0781 -0.2165
30404W        W46665   7.753   5.643   1.149  0.1143 -0.1830 -0.0174
30405W        W46666   0.973  11.233   4.882 -0.0631  0.1087  0.0269
30406W        W46667  17.187   5.697   0.840 -0.2442 -0.2617  0.0130
30407W        W46668  14.716  14.728   1.011 -0.1353  0.1110  0.1310
30408W        W46669  12.711   7.813  15.958 -0.2279  0.2017 -0.1350
30409W        W46670  14.234   2.003   4.832  0.1226  0.0001 -0.0591
30410W        W46671   0.135   5.731   0.617 -0.0288 -0.0990  0.1336
30411W        W46672   3.126  13.687  13.135  0.0004  0.1516  0.0419
30412W        W46673  12.564   3.740   3.298  0.4419  0.3326 -0.1262
30413W        W46674  10.380   3.932   2.603  0.1105  0.1599 -0.1096
30414W        W46675   9.575   2.696   4.288  0.2853 -0.1819 -0.2259
30415W        W46676  16.954  12.412  12.453  0.0403 -0.0979 -0.0538
30416W        W46677   4.215  13.970  12.909  0.2692  0.2041 -0.0392
30417W        W46678  17.996   0.238   2.351 -0.0033  0.0547  0.2503
30418W        W46679  16.569   6.100   4.582 -0.1531 -0.0748  0.0949
30419W        W46680   2.452  13.494   4.039 -0.4257 -0.1870 -0.2742
30420W        W46681   0.323   2.770   0.089 -0.1525 -0.0169 -0.1397
30421W        W46682  13.457  13.208  15.577 -0.0849  0.0003  0.1778
30422W        W46683  14.418   1.336   1.739  0.1022 -0.0928  0.1070
30423W        W46684  13.428  15.081  11.590  0.1258 -0.2147  0.0314
30424W        W46685  15.613  12.617  11.116  0.1299  0.0815  0.3612
30425W        W46686  11.969   6.035  12.996  0.3163 -0.0566 -0.0285
30426W        W46687   1.303   6.555   5.859 -0.3706  0.1821 -0.2372
30427W        W46688   9.866  16.564   1.909  0.0284 -0.1545 -0.0215
30428W        W46689  11.055  11.504  13.159 -0.0985  0.1741  0.1522
30429W        W46690  12.066  14.892  11.961 -0.2152  0.2135 -0.1085
30430W        W46691   9.498   5.279   1.173  0.0124  0.0483  0.0142
30431W        W46692   8.000   0.056   0.137  0.3426  0.0231  0.6805
30432W        W46693  10.002   7.724  14.355 -0.1565  0.0056 -0.0948
30433W        W46694  16.046   4.608   2.342 -0.2385 -0.2381 -0.1053
30434W        W46695  13.123  14.862  14.220  0.0558  0.0088  0.2189
30435W        W46696  12.490   4.650  14.421 -0.1243  0.0747  0.0939
30436W        W46697   7.133  12.874   5.353  0.0718  0.0935  0.0447
30437W        W46698   9.582   8.628   2.141 -0.1459  0.0217  0.0063
30438W        W46699  17.380   1.524   5.670 -0.0259 -0.1439  0.2852
30439W        W46700  12.674  17.652  14.657  0.1816  0.0229  0.1198
30440W        W46701   2.236  12.638   2.365 -0.1048  0.0773 -0.2767
30441W        W46702   9.162  14.941  11.384  0.1785 -0.1287 -0.3432
30442W        W46703   9.901  10.101  12.658 -0.0232  0.2991  0.0780
30443W        W46704  17.521   5.569   1.920  0.1899  0.2571 -0.2589
30444W        W46705  12.821   5.558  13.557 -0.0941 -0.3919  0.0245
30445W        W46706  16.140   2.384  13.885 -0.3145  0.1215  0.0981
30446W        W46707  12.926  11.250  15.446 -0.2582  0.1213 -0.0919
30447W        W46708   1.295  14.809   1.835  0.0481 -0.3879  0.0738
30448W        W46709  10.949  12.173   3.000  0.1161  0.4500  0.0246
30449W        W46710  18.361   9.664   2.753  0.2063  0.4062  0.1330
30450W        W46711   8.729  15.150   0.868  0.1505 -0.1536 -0.0522
30451W        W46712   2.971   6.092  13.234 -0.2593  0.1772  0.5072
30452W        W46713   4.014  12.956   6.037 -0.3461  0.1851  0.1068
30453W        W46714   6.765   8.300  12.581 -0.1699  0.0740  0.3360
30454W        W46715  11.328   9.221  11.023 -0.1597  0.0616 -0.1101
30455W        W46716  10.776  13.639  11.624  0.0168  0.3453  0.0391
30456W        W46717  14.216  13.818   2.341 -0.3040  0.0368 -0.1620
30457W        W46718   7.029   5.846  11.382  0.0830  0.2933 -0.0085
30458W        W46719  10.166   0.410   3.562  0.0912 -0.0771  0.2655
30459W        W46720   0.856   1.054  14.358 -0.2397 -0.0739 -0.1508
30460W        W46721  13.156  18.382   0.026  0.0781  0.0275 -0.1440
30461W        W46722  10.384   7.138   2.197  0.1496  0.2342 -0.4064
30462W        W46723   5.747   7.510   4.881  0.1809 -0.3108  0.1697
30463W        W46724   7.047   1.659  16.059  0.1673  0.0325 -0.1810
30464W        W46725   6.528  15.041   0.071  0.4322  0.1195  0.4240
30465W        W46726   5.303  14.403  14.171 -0.0355  0.1767 -0.1555
30466W        W46727   7.655   2.134  14.825  0.2396  0.0524 -0.0624
30467W        W46728   8.054  15.002  15.326 -0.0706  0.3470  0.3193
30468W        W46729   1.964  13.989   3.553  0.0570 -0.1219 -0.2154
30469W        W46730   7.978  16.785  12.299  0.2657 -0.2454 -0.0882
30470W        W46731  12.923   1.538   3.931  0.1947  0.3310 -0.1648
30471W        W46732   9.815   0.135  15.169 -0.1767  0.0713 -0.0225
30472W        W46733   1.723  10.904   2.871  0.2547  0.2945  0.1100
30473W        W46734  16.879  12.129  13.358 -0.3074  0.0186 -0.3752
30474W        W46735  15.506   7.576  14.676  0.1808 -0.3080 -0.0655
30475W        W46736  10.659   3.006  16.143  0.3356  0.0280  0.0184
30476W        W46737   1.307  17.074   4.094 -0.0875  0.4005  0.3757
30477W        W46738  17.563  13.433  12.567  0.0210 -0.2969  0.0356
30478W        W46739  12.851   2.700  14.620 -0.0179  0.0023 -0.1267
30479W        W46740   0.534   0.896   4.030  0.3891 -0.0848  0.2534
30480W        W46741  15.324  17.646  11.976 -0.1042  0.1164  0.1761
30481W        W46742  12.674   5.528   0.197 -0.0652  0.0505 -0.2974
30482W        W46743  14.469  10.416  15.135 -0.0508 -0.0221 -0.1777
30483W        W46744   7.620  16.804   3.248  0.2401  0.1708 -0.0602
30484W        W46745   5.485   4.216   0.530 -0.0106 -0.1087 -0.0399
30485W        W46746   2.396  18.085   2.892 -0.0008  0.0470 -0.5296
30486W        W46747  17.636   1.551   2.755  0.2375 -0.0694  0.3061
30487W        W46748  16.947  12.757   3.626 -0.2212 -0.0491 -0.0996
30488W        W46749   9.742   6.112  15.516 -0.0962 -0.1196  0.0816
30489W        W46750   3.485  12.270   4.689  0.0358 -0.1416  0.1193
30490W        W46751  15.204  11.530  11.779  0.0287 -0.0264  0.2434
30491W        W46752   1.322   6.892   5.426 -0.1454 -0.0638  0.0536
30492W        W46753   9.480  12.391   5.145 -0.1338  0.1038 -0.0063
30493W        W46754   0.630  10.264   4.092 -0.0153  0.0634 -0.4510
30494W        W46755   1.117  14.600   0.588  0.0811  0.0033  0.0626
30495W        W46756   9.239  10.580   0.098 -0.0474 -0.0361 -0.0566
30496W        W46757   4.877   3.368   2.239 -0.1261  0.1558 -0.0006
30497W        W46758   5.260   6.534  14.102  0.1490 -0.0289  0.1997
30498W        W46759  14.101   0.660  15.113  0.0274 -0.0753 -0.0811
30499W        W46760   8.857  16.487   0.675 -0.1387 -0.0102 -0.1917
30500W        W46761   6.926   8.668  12.324 -0.1929 -0.3389 -0.0124
30501W        W46762   2.921   6.184  15.368 -0.0547 -0.0788  0.2203
30502W        W46763  14.065   4.795   3.706  0.0652 -0.1352  0.0137
30503W        W46764  13.381  17.447  15.578 -0.1925 -0.1514 -0.1606
30504W        W46765   0.208   7.521  13.659  0.1799 -0.1426 -0.0423
30505W        W46766   7.739  12.889   1.634 -0.1818 -0.0480 -0.0531
30506W        W46767  18.162  12.634  13.949 -0.3492  0.5760 -0.0669
30507W        W46768  11.990   5.437   3.623  0.0752  0.1709 -0.4528
30508W        W46769  17.936   6.807   3.852  0.1420 -0.1773  0.0181
30509W        W46770   8.611   7.170  13.318 -0.0468 -0.0149 -0.1223
30510W        W46771  16.594  10.979  12.817  0.2157 -0.0993  0.2514
30511W        W46772   1.691   2.125  15.786  0.0680 -0.3513  0.3819
30512W        W46773  13.705   9.063   4.950 -0.2462  0.0884 -0.3142
30513W        W46774  11.314  14.345  15.765  0.0244 -0.1489 -0.2949
30514W        W46775   8.992   7.839   4.770  0.0419 -0.0094 -0.0993
30515W        W46776   7.549  10.710   2.877 -0.0665  0.0944  0.2159
30516W        W46777   6.120   4.049  12.060 -0.1942  0.0120  0.0301
30517W        W46778   7.864  14.643  12.128  0.0070  0.3655  0.0205
30518W        W46779   9.813   2.597  14.623  0.2043  0.1915  0.1306
30519W        W46780  10.198   3.990   3.160  0.0383 -0.0386 -0.3141
30520W        W46781  11.596   5.143   0.856 -0.4034 -0.0395  0.0726
30521W        W46782  15.409  13.962  12.174 -0.0022 -0.1552  0.0594
30522W        W46783  14.006   0.844  15.556  0.1500  0.2688 -0.3321
30523W        W46784  14.592  12.677  13.882  0.1715 -0.2158 -0.1669
30524W        W46785  10.926  13.024   1.678  0.2262  0.2891  0.0846
30525W        W46786   4.753  17.827   2.732  0.0630 -0.2062  0.2562
30526W        W46787   8.713   6.940   1.541 -0.0614  0.0264  0.1236
30527W        W46788  13.109   6.384   0.920  0.0140 -0.1386 -0.3339
30528W        W46789   9.724  13.163   1.253  0.0862 -0.0626  0.0628
30529W        W46790   0.078  12.207   4.398 -0.2026  0.2285 -0.0719
30530W        W46791  17.623   9.569   1.932 -0.0654  0.0716 -0.5156
30531W        W46792  12.979   1.930  12.917 -0.2960  0.2422  0.1660
30532W        W46793  11.839  14.630   3.308 -0.0322 -0.1243  0.3540
30533W        W46794   6.777   0.404   3.435  0.2689 -0.0460 -0.2827
30534W        W46795   7.479  14.037  11.510 -0.2486  0.0384 -0.1836
30535W        W46796   5.438   3.320   0.925 -0.1346  0.0470  0.1195
30536W        W46797  18.134   3.027   2.413  0.1718 -0.3607  0.1221
30537W        W46798  17.571  13.446  10.995  0.0792  0.2683  0.2569
30538W        W46799   2.228  10.762  12.349  0.1832 -0.3479 -0.0495
30539W        W46800   2.038   1.426   1.231  0.1185 -0.1061 -0.0370
30540W        W46801  14.817  13.891  14.836 -0.2722  0.0091  0.1410
30541W        W46802   0.475  15.564   5.444 -0.0340 -0.0975 -0.1572
30542W        W46803  14.385  10.368   3.895 -0.3944  0.0377  0.2546
30543W        W46804  14.981   4.000   2.213 -0.0090 -0.3238  0.1594
30544W        W46805  17.236   9.076  11.507  0.1354 -0.0388  0.0226
30545W        W46806   4.714   3.096  14.333  0.1728  0.1680  0.2310
30546W        W46807   4.023   5.939   5.384 -0.5882 -0.1921  0.0611
30547W        W46808   3.440  13.473   0.674  0.1333 -0.1439 -0.2847
30548W        W46809  16.012  14.151  10.811  0.3582  0.1013  0.0402
30549W        W46810  10.257   8.591   4.236  0.1516  0.2593 -0.2947
30550W        W46811  14.623  11.992  14.339 -0.0618 -0.0792  0.0067
30551W        W46812  14.664   8.739   2.447 -0.1699  0.0748 -0.3358
30552W        W46813   0.328   5.469  15.287  0.1096  0.2331 -0.2693
30553W        W46814  10.575  13.056  14.747  0.0906  0.1453  0.0329
30554W        W46815  17.655  13.630   4.086 -0.0758  0.1077  0.1356
30555W        W46816  12.291  10.513  14.877 -0.2516 -0.1363 -0.0386
30556W        W46817  16.985  13.440  14.420  0.3604 -0.0238  0.3385
30557W        W46818  10.333   4.652  14.971  0.2135  0.3628 -0.1500
30558W        W46819  14.313   2.989   1.736  0.2624  0.1675 -0.0585
30559W        W46820  10.780  17.317   2.720  0.0203 -0.2842 -0.1865
30560W        W46821   9.951   6.672   0.769 -0.3169  0.0471  0.2695
30561W        W46822   5.037   0.001  11.636 -0.0464  0.2312  0.1330
30562W        W46823   2.041   5.390   1.099  0.0801 -0.3407 -0.0722
30563W        W46824   1.003  13.965  11.818  0.1888 -0.1377 -0.1736
30564W        W46825  11.982  17.937  13.868  0.0607  0.0361  0.1560
30565W        W46826   7.507   8.483   0.832  0.0769 -0.1738 -0.2808
30566W        W46827  16.082  12.004  11.710 -0.0927 -0.1784  0.1319
30567W        W46828  14.625  11.004  14.255  0.1354 -0.3462 -0.1852
30568W        W46829  11.544   8.158   1.585  0.0206  0.2788  0.2233
30569W        W46830   4.978  16.332  12.070 -0.1668  0.2833  0.2314
30570W        W46831   0.376  14.646   2.977 -0.2856  0.1332  0.0758
30571W        W46832  11.959   7.345   5.207  0.2020  0.1178  0.3717
30572W        W46833  16.890   6.317   1.544 -0.0251  0.4877  0.0957
30573W        W46834   5.135   9.253  15.561  0.0641  0.0531  0.2106
30574W        W46835  13.740  12.361  12.179  0.1945  0.3457 -0.0409
30575W        W46836   1.255  14.354   6.199 -0.2128  0.1221  0.0074
30576W        W46837  17.798  17.764   3.350  0.1982  0.2152 -0.1834
30577W        W46838  14.662  17.194  14.700  0.0231 -0.2165  0.2513
30578W        W46839   6.455   0.882   0.826  0.1482  0.1183  0.0646
30579W        W46840  14.642   8.202   3.906 -0.1887  0.1339 -0.1805
30580W        W46841  16.062   2.602   4.179  0.2467  0.2721 -0.0878
30581W        W46842   2.071  12.835   4.360 -0.0254 -0.0409  0.0658
30582W        W46843   4.359  14.356   2.135  0.1156 -0.2111  0.1007
30583W        W46844  17.646   4.680   5.155 -0.3409 -0.0802  0.0283
30584W        W46845   6.717   5.667  13.579  0.3164 -0.2031  0.2140
30585W        W46846  10.991   0.362  14.543 -0.1277 -0.0065  0.1669
30586W        W46847  12.725   7.034  12.482 -0.0412  0.1008  0.1358
30587W        W46848  10.279  13.878  11.649 -0.0878 -0.5336  0.1476
30588W        W46849  13.434   4.107  15.478  0.1085  0.1270 -0.2338
30589W        W46850   5.802  15.634  12.268 -0.6718 -0.1039 -0.4214
30590W        W46851   5.287  18.396   4.406 -0.1986  0.1743  0.3502
30591W        W46852  16.135   5.423   2.982  0.2789  0.1193  0.3149
30592W        W46853   4.691  16.127   5.045  0.1366  0.1094 -0.2172
30593W        W46854   5.520  14.836   0.760  0.0728  0.4235  0.1401
30594W        W46855   8.725   0.091  11.833 -0.3235  0.4150  0.0958
30595W        W46856   9.955  16.033   0.652  0.1603  0.3505 -0.1796
30596W        W46857   6.539   4.891  13.446  0.2335  0.2042  0.2873
30597W        W46858   2.559  11.651  13.336 -0.2803  0.0565  0.3007
30598W        W46859  10.169   1.793  13.108  0.1417  0.2349  0.0695
30599W        W46860   0.715   3.979   3.468 -0.0628  0.1725 -0.1108
30600W        W46861   9.736   6.880   3.728 -0.1727  0.3531 -0.1259
30601W        W46862  15.082   6.606  14.372  0.0031  0.1013 -0.0558
30602W        W46863   4.895  11.016  13.835  0.3237 -0.0862  0.0284
30603W        W46864  16.621   9.435  10.694  0.2086 -0.1654 -0.1036
30604W        W46865  12.114   2.611   1.216  0.3992  0.1691  0.1059
30605W        W46866   0.378  14.684  15.863  0.1111  0.2345  0.0244
30606W        W46867  15.938  14.068  11.661 -0.0131 -0.1879 -0.3090
30607W        W46868  10.099   2.244   3.159 -0.1221 -0.2806 -0.0497
30608W        W46869  13.454   8.619  11.512 -0.0882 -0.0428 -0.1191
30609W        W46870   1.092  16.190  13.935  0.1088  0.2837  0.2971
30610W        W46871  11.432   0.894  11.455  0.2048  0.3048 -0.1912
30611W        W46872   9.837   8.442  12.558  0.2333 -0.0509 -0.0433
30612W        W46873  17.476  11.586   2.254 -0.1169 -0.1212 -0.1740
30613W        W46874   9.995  10.325  12.215  0.1538 -0.0567 -0.3138
30614W        W46875  16.703  11.154   4.524  0.1327  0.3725 -0.0329
30615W        W46876  14.444  16.012  13.061  0.2389  0.0612 -0.1582
30616W        W46877   8.221   4.732   4.101  0.0695  0.0967 -0.0217
30617W        W46878  10.555  16.432  14.185  0.2086 -0.1203 -0.0971
30618W        W46879  17.139  11.261  14.475 -0.2377 -0.1266 -0.0917
30619W        W46880   1.084  16.019  16.040 -0.1453 -0.1068  0.0146
30620W        W46881   5.460   7.420   2.156  0.2888  0.0211  0.2897
30621W        W46882   3.408  11.718  13.561  0.3286  0.1494  0.0258
30622W        W46883   8.435  10.848   1.824  0.0467  0.2377  0.3900
30623W        W46884   1.072   5.722  15.281  0.1104 -0.0398  0.0009
30624W        W46885  10.150   2.350   1.009 -0.1820  0.0068  0.2035
30625W        W46886   3.250   4.034   3.742  0.5751 -0.3077 -0.0572
30626W        W46887  17.012  10.742   3.136  0.2203 -0.1102  0.0084
30627W        W46888   8.928   1.978  15.569  0.0955 -0.1416 -0.1500
30628W        W46889   1.491  15.742   2.196 -0.2698 -0.2395  0.2422
30629W        W46890   3.718   8.807   4.776 -0.0202 -0.0759 -0.1916
30630W        W46891  11.783   4.622   1.512  0.0780  0.0133  0.0139
30631W        W46892  10.431  12.504  13.730  0.1463  0.1869  0.2298
30632W        W46893   4.520  12.976  14.842 -0.3570 -0.0498  0.2765
30633W        W46894  16.032  12.895  14.438  0.2608 -0.2015 -0.2718
30634W        W46895   6.772   0.369   2.322  0.0343  0.2168  0.3079
30635W        W46896   3.000  14.454  13.385 -0.2124 -0.0618 -0.0349
30636W        W46897  12.261   6.894   5.181 -0.0727 -0.4375 -0.0907
30637W        W46898   8.306   4.833  14.656 -0.1315 -0.0023  0.1674
30638W        W46899  12.244   1.609   0.196  0.0362  0.1358 -0.1257
30639W        W46900   1.648   6.048   4.112  0.1648 -0.1735 -0.1127
30640W        W46901  12.512  17.645  15.158  0.3255  0.2957 -0.1675
30641W        W46902  10.113   9.147   5.311  0.0903 -0.1537  0.2734
30642W        W46903   0.589  15.104   3.088 -0.3334  0.1340 -0.1651
30643W        W46904   3.401  17.871  13.854  0.1189  0.1881  0.1135
30644W        W46905   5.455   4.808   5.304  0.1644 -0.0230 -0.1421
30645W        W46906  15.349  13.284  11.637 -0.0313 -0.0077  0.3523
30646W        W46907   3.684   4.378   4.582 -0.1816 -0.1361 -0.0864
30647W        W46908  18.285   4.524  12.744 -0.0358  0.0475  0.1824
30648W        W46909  17.558   7.722  15.327 -0.3307  0.0590  0.0355
30649W        W46910  10.850  13.155   4.062 -0.0276  0.0694 -0.0562
30650W        W46911   8.945  16.530   3.783 -0.2993 -0.2260 -0.0113
30651W        W46912   8.548   5.052   3.766  0.0275 -0.1079 -0.0302
30652W        W46913  13.378  15.668   4.793 -0.0955  0.1138 -0.1073
30653W        W46914   6.768   1.454   1.834  0.2205  0.1149 -0.2601
30654W        W46915   8.196  12.633   0.732 -0.0904 -0.0401  0.0500
30655W        W46916  16.343  12.158   1.115  0.1732  0.0945  0.1735
30656W        W46917  18.144   9.739  15.146  0.0898 -0.1180 -0.2178
30657W        W46918  16.579   1.003   1.598 -0.0143 -0.2441 -0.2268
30658W        W46919   7.242  10.991  16.138 -0.0114  0.0572 -0.0285
30659W        W46920  10.701   1.811  11.194 -0.0385  0.0079  0.0456
30660W        W46921   1.796  11.906   2.631  0.1134  0.0296 -0.3043
30661W        W46922   4.457  13.326   0.540 -0.3310  0.3618 -0.1050
30662W        W46923  12.886   3.889  11.953  0.0635 -0.1868 -0.2270
30663W        W46924   4.319  16.089   1.290 -0.0786 -0.0194  0.2969
30664W        W46925  13.636   9.673  11.783 -0.0653  0.2428 -0.2362
30665W        W46926  15.295   4.110   4.506  0.1096  0.1841 -0.4253
30666W        W46927  10.577  10.469  14.385  0.0654  0.2273 -0.2124
30667W        W46928   6.764  17.886  15.095  0.0436  0.0940  0.3350
30668W        W46929   7.171  16.419   5.043 -0.0568 -0.0583 -0.0758
30669W        W46930   2.956  10.562  13.021  0.1304 -0.2695  0.2353
30670W        W46931  15.046  12.717  11.850  0.1210 -0.0735 -0.2435
30671W        W46932   2.527   7.710  13.740  0.0092  0.2786  0.1061
30672W        W46933  13.845   9.229   4.389  0.0561 -0.0032  0.2913
30673W        W46934  17.654   3.384  14.263  0.0212  0.3107 -0.0450
30674W        W46935  10.002   6.175   0.506 -0.1226 -0.2003 -0.2045
30675W        W46936   8.348  17.310  10.945  0.1305  0.0331 -0.0907
30676W        W46937  11.877   8.660   3.447 -0.1992  0.1899  0.0839
30677W        W46938   4.431  17.568  11.005  0.2165 -0.0864  0.2400
30678W        W46939  15.846  14.964   1.351  0.0398 -0.1811  0.2680
30679W        W46940  14.823   4.535  16.102 -0.0280 -0.1030  0.1737
30680W        W46941  14.157  12.137  12.342 -0.2880 -0.1743 -0.0682
30681W        W46942   7.710   5.158  14.121  0.2436 -0.0257  0.0973
30682W        W46943   6.021   8.567  13.113 -0.0574  0.2071 -0.0854
30683W        W46944   0.239  16.492   3.055  0.2158 -0.0961  0.2837
30684W        W46945   9.341  14.756  15.710  0.1789 -0.0423 -0.1706
30685W        W46946  11.727  11.392   5.202 -0.1377 -0.3277  0.3349
30686W        W46947   8.338  15.080   4.491  0.1335 -0.0144 -0.1372
30687W        W46948   3.731   9.280   5.442  0.2085 -0.2847 -0.0698
30688W        W46949   3.680  13.875   0.599 -0.1275 -0.1711  0.1557
30689W        W46950   0.578   9.558   0.982  0.0661 -0.0346 -0.0965
30690W        W46951   9.277   2.809   1.110 -0.1744 -0.0661 -0.3588
30691W        W46952  10.639   0.517   9.777  0.1801 -0.0420  0.1827
30692W        W46953  17.268   8.023  12.412 -0.0996 -0.0414 -0.2594
30693W        W46954   6.476   7.524  13.195  0.0693  0.0934  0.5545
30694W        W46955   3.672  10.076   2.982  0.1064 -0.0675 -0.0090
30695W        W46956   1.319   1.108  14.612 -0.2541 -0.2594  0.0281
30696W        W46957   3.805  14.521   3.087  0.0272  0.0209 -0.1086
30697W        W46958   6.784  16.079   5.273 -0.2546  0.3970 -0.0978
30698W        W46959  17.912  16.507  12.487 -0.0653 -0.0960 -0.6174
30699W        W46960   2.087  13.477  12.162 -0.0914  0.1016  0.1989
30700W        W46961   4.779   0.726   1.090 -0.1722 -0.3145  0.1748
30701W        W46962   0.228  16.411  11.404 -0.1476 -0.1483 -0.4101
30702W        W46963   2.456   0.718  12.160  0.0948  0.1555 -0.0734
30703W        W46964   6.347   7.760   2.348 -0.3924 -0.2120  0.0564
30704W        W46965   7.099   4.372   3.407 -0.0619  0.0725 -0.1665
30705W        W46966   1.744   7.631   5.396  0.2402  0.4097 -0.0912
30706W        W46967   0.468  16.134   2.774 -0.2539 -0.2059  0.0752
30707W        W46968   1.031  16.274  11.986  0.0453  0.4479 -0.1970
30708W        W46969  10.652   3.013  11.998  0.1424 -0.1113  0.1194
30709W        W46970  12.396  17.284   1.137  0.1323 -0.0521 -0.2439
30710W        W46971   3.395   7.001   0.655 -0.0630 -0.0168 -0.0094
30711W        W46972  16.802  13.900   4.800  0.0350 -0.1044  0.2844
30712W        W46973  13.239   3.919   5.986  0.1240  0.0374  0.0368
30713W        W46974   6.601   2.651   2.286 -0.0153 -0.0339 -0.0954
30714W        W46975   9.232   7.522   2.960 -0.1246 -0.0336 -0.1141
30715W        W46976   3.448  10.364  14.231 -0.1581  0.0751 -0.1020
30716W        W46977  16.520   7.400   2.355 -0.1784 -0.2355  0.1851
30717W        W46978  14.638   0.599   2.479 -0.2030  0.1210 -0.0469
30718W        W46979   2.460   2.703   4.282 -0.3785  0.2301 -0.0188
30719W        W46980  16.450  12.832   3.621 -0.2660 -0.2224  0.1704
30720W        W46981   1.904  15.563  12.006 -0.0448 -0.0006  0.0383
30721W        W46982  10.246   7.234   2.767  0.3274 -0.0477 -0.0244
30722W        W46983   3.174   4.573  14.866 -0.0535 -0.0059 -0.0373
30723W        W46984  16.431   8.669   0.083  0.2809  0.0728 -0.0789
30724W        W46985   6.173   0.772  12.705  0.0216 -0.1233 -0.1758
30725W        W46986  10.100   1.507   2.563  0.0933  0.0752 -0.0001
30726W        W46987   8.662   0.974  14.419  0.1600 -0.0998  0.0763
30727W        W46988  17.237   7.743   0.779  0.0891  0.0535 -0.0419
30728W        W46989   1.904  13.464   2.714 -0.1559 -0.2128  0.0156
30729W        W46990  15.293   2.052  12.515 -0.0493 -0.1150  0.3118
30730W        W46991   5.918   6.560   1.764  0.2326  0.4077 -0.4377
30731W        W46992   7.584  13.401  14.714  0.1183  0.1095  0.4923
30732W        W46993  16.537   1.536   1.484  0.0423  0.2124 -0.0662
30733W        W46994   5.561  16.584  14.863 -0.0938 -0.0610  0.2026
30734W        W46995   1.405  14.350   2.635 -0.0589 -0.0358 -0.1569
30735W        W46996  18.307   8.870  13.002  0.1649 -0.0351  0.1634
30736W        W46997   5.732   8.610   2.502 -0.2534 -0.0357 -0.1869
30737W        W46998   7.139   5.423  15.591 -0.0401 -0.1009 -0.0053
30738W        W46999  17.477   6.869  15.636  0.1038 -0.1667 -0.0937
30739W        W47000  15.886  13.772   1.989  0.0205 -0.0656 -0.0329
30740W        W47001   5.465   0.867  13.331 -0.0277  0.1023 -0.0634
30741W        W47002   0.195   9.976   4.084 -0.3700  0.0980  0.0791
30742W        W47003  17.417  11.287  14.018  0.1166 -0.0040 -0.0038
30743W        W47004   3.204   0.020  12.514  0.0316  0.0353 -0.0961
30744W        W47005   2.526  14.970   4.885  0.0854  0.0574 -0.0942
30745W        W47006   0.061   5.255  14.871 -0.2512  0.0970 -0.3596
30746W        W47007   4.223   7.192   1.308 -0.1064  0.0544  0.0963
30747W        W47008   6.168  14.185   2.431  0.1734  0.1437 -0.1153
30748W        W47009   2.956  16.355  15.753 -0.3664  0.2677  0.0450
30749W        W47010   2.506  17.793   3.357  0.0678 -0.0797  0.2220
30750W        W47011   5.100   5.245   5.549  0.0952 -0.0085  0.0536
30751W        W47012   0.344   4.911  13.466  0.0895  0.0467 -0.1140
30752W        W47013  16.514   0.695   0.479 -0.1919 -0.5462 -0.3508
30753W        W47014   4.442   4.143  15.259  0.0639  0.1688  0.0410
30754W        W47015  12.341  12.195  13.683  0.1505 -0.0422  0.0134
30755W        W47016  10.289   9.380  12.520  0.5945 -0.0842 -0.0457
30756W        W47017   4.150  17.474  13.526 -0.2758 -0.1715  0.4189
30757W        W47018  18.470   3.109   1.062  0.0634 -0.2979  0.0880
30758W        W47019   9.940   7.202   0.936 -0.2576  0.0403  0.2582
30759W        W47020   8.961  12.431  12.781 -0.0445  0.1027  0.0915
30760W        W47021   7.652   3.985  15.414 -0.3035  0.0852  0.2981
30761W        W47022   5.209  14.363  12.866 -0.3541  0.0517 -0.1253
30762W        W47023  13.349  15.220  12.575 -0.1453  0.0380 -0.1819
30763W        W47024  17.600  17.886   4.016 -0.0937 -0.0036 -0.1403
30764W        W47025  15.602  17.760   4.699 -0.5252 -0.1232 -0.0945
30765W        W47026  12.442   7.926   2.968 -0.3637  0.0917 -0.0249
30766W        W47027   8.051   2.555  12.929 -0.2750 -0.3385 -0.5894
30767W        W47028  15.782  11.316  13.676  0.2806  0.0243  0.0551
30768W        W47029   4.681  12.181   3.190 -0.1097  0.2288 -0.2383
30769W        W47030   1.082   5.466  13.902  0.0942  0.2915 -0.1359
30770W        W47031   9.613   1.095   2.164 -0.2429 -0.2561  0.1901
30771W        W47032   5.634  10.423   4.453 -0.0207  0.1615  0.0904
30772W        W47033   7.260  10.450  15.344 -0.1600 -0.1376 -0.3174
30773W        W47034  14.550   3.830   2.215 -0.2946  0.0543  0.2858
30774W        W47035  13.910  10.921  15.943 -0.1711  0.1256  0.1713
30775W        W47036  11.838   5.172  14.937 -0.0685 -0.2289  0.2611
30776W        W47037   4.892   6.620   1.589 -0.0352  0.0742 -0.2028
30777W        W47038  18.428   0.672  14.650 -0.0233 -0.1294 -0.1316
30778W        W47039  17.252   0.723   1.781  0.0134 -0.1438  0.0317
30779W        W47040  13.072  17.820  13.341  0.2849 -0.0664  0.0191
30780W        W47041  17.430  10.123   2.528  0.2347  0.1179  0.2587
30781W        W47042  12.126   4.458   2.872  0.2956 -0.0660 -0.3321
30782W        W47043  15.394  17.169  13.444 -0.1018  0.0703  0.1288
30783W        W47044   7.799   3.512   1.484  0.2481 -0.0571  0.0906
30784W        W47045   5.274   0.706   5.109  0.0673  0.1048 -0.0567
30785W        W47046  17.390   8.025   4.726 -0.2039  0.0033  0.1917
30786W        W47047   0.336  15.023   3.465 -0.0786  0.0653  0.0821
30787W        W47048  17.289   3.877  15.562  0.3241  0.1715  0.2891
30788W        W47049   5.412  10.956   1.043 -0.0743 -0.0181  0.3255
30789W        W47050   5.350   7.860  13.741  0.2031 -0.2420  0.0397
30790W        W47051   6.296   3.630   4.691  0.1534 -0.1843 -0.2428
30791W        W47052   2.448  11.715   2.113 -0.1269 -0.0955  0.0007
30792W        W47053   6.152  11.466   3.668  0.0411 -0.1098  0.1151
30793W        W47054  11.923  15.868   3.184  0.2863 -0.2730 -0.4599
30794W        W47055   2.803  15.026   3.288 -0.0298 -0.0587  0.1169
30795W        W47056   8.320   6.935  10.899  0.1481 -0.1657 -0.2989
30796W        W47057  12.757  15.174  14.429 -0.0070  0.2260  0.0409
30797W        W47058  11.661  14.067   4.350 -0.1389  0.1309  0.0254
30798W        W47059   5.844   5.280   3.194  0.1682  0.0675  0.4505
30799W        W47060   4.705   7.337   2.050 -0.0971  0.1620  0.0247
30800W        W47061  13.686  16.943   2.963  0.1294  0.0307 -0.1967
30801W        W47062   1.203   9.065  13.326  0.2186  0.0280 -0.0259
30802W        W47063  10.343  14.094  16.123 -0.0634 -0.2607  0.0840
30803W        W47064  12.055  12.158   4.892 -0.3761 -0.2263 -0.3477
30804W        W47065  11.864   6.360   0.977  0.0140 -0.0302  0.2083
30805W        W47066  10.591   2.846   5.727 -0.0558  0.0551  0.3708
30806W        W47067   0.634   1.187  15.436 -0.2390 -0.0222 -0.1095
30807W        W47068   8.037   7.902  11.842 -0.6068  0.1507  0.2913
30808W        W47069  16.483  16.052  14.107 -0.0511  0.1703 -0.0458
30809W        W47070   2.901  12.434   2.757 -0.2458  0.3598  0.1848
30810W        W47071  17.023   8.087  15.655 -0.2172 -0.2221 -0.1819
30811W        W47072  16.306   4.516  15.899  0.2094 -0.4225 -0.4040
30812W        W47073   6.934  10.117  15.456 -0.1495  0.1037  0.0686
30813W        W47074  12.264  15.577  13.801 -0.3283 -0.0642 -0.0095
30814W        W47075   2.263   2.186  15.663 -0.2237 -0.0085 -0.1725
30815W        W47076  10.865   1.896   2.087 -0.0448  0.1428 -0.1087
30816W        W47077  11.892   8.721   2.918  0.1014  0.0308  0.2590
30817W        W47078  18.283   5.473  13.569 -0.3297 -0.0060  0.0532
30818W        W47079  11.225   4.462   0.795 -0.2397  0.0356 -0.0496
30819W        W47080  16.159   5.987  14.534  0.2563 -0.0260  0.0466
30820W        W47081  17.489  16.357  12.321 -0.1148  0.1549 -0.0756
30821W        W47082   3.162   2.789  11.967  0.0678 -0.0555 -0.0855
30822W        W47083  11.004  13.983  13.265  0.0401  0.0206  0.2965
30823W        W47084  16.430   8.387  12.712 -0.1734  0.0569  0.3407
30824W        W47085  13.501   9.772  14.928 -0.2381  0.1254  0.0997
30825W        W47086   3.740  15.980   4.356 -0.0157  0.2250 -0.1489
30826W        W47087   0.976  13.926  14.746 -0.1685  0.3518  0.0870
30827W        W47088  12.412   7.623   2.319 -0.4158  0.2606  0.3865
30828W        W47089   4.633  12.484  13.918  0.2004  0.1835  0.3859
30829W        W47090  13.592   1.811  10.972 -0.4078  0.0037  0.0254
30830W        W47091  10.512  15.131  15.378 -0.1742 -0.1522 -0.0559
30831W        W47092  17.198   0.570  14.385 -0.0709  0.0125  0.1973
30832W        W47093   5.392   8.824  15.497  0.0888  0.2427  0.3957
30833W        W47094  14.585   6.525  11.701  0.0009  0.0775  0.1288
30834W        W47095  18.258  12.631   3.239 -0.3838 -0.0864 -0.0899
30835W        W47096   5.549   1.141   0.812  0.3396  0.2914 -0.0721
30836W        W47097  16.194   0.435   0.779  0.0291  0.2123 -0.2332
30837W        W47098  16.357   0.257  10.779  0.1447  0.3999  0.1384
30838W        W47099  16.913  13.953  14.263 -0.0361 -0.1549  0.0794
30839W        W47100  14.699  12.362   2.927  0.0938  0.2914  0.4187
30840W        W47101  12.246   4.631  14.923  0.0647 -0.1889 -0.1145
30841W        W47102  15.680   8.307   6.055 -0.1359  0.0160 -0.0034
30842W        W47103  15.643   6.990  13.864  0.2539 -0.1971 -0.1644
30843W        W47104  11.700   3.933  10.821 -0.0659  0.1477 -0.0497
30844W        W47105  12.750   1.793  14.619 -0.0259  0.0026 -0.0682
30845W        W47106  12.561   2.491   5.273  0.3777  0.2858 -0.2958
30846W        W47107   1.661  14.148  15.088  0.0661  0.1479  0.0280
30847W        W47108  18.248   0.543   3.547  0.2140  0.0889 -0.1221
30848W        W47109  14.568   8.068  12.783  0.1464 -0.1000  0.2675
30849W        W47110   1.969  12.899   3.653 -0.2009 -0.2563  0.0699
30850W        W47111   0.789  10.944   3.198  0.0486  0.1982 -0.1994
30851W        W47112   7.391  14.195  15.949  0.0003 -0.0228 -0.0560
30852W        W47113   7.165   4.972  15.819  0.3053 -0.3529  0.1736
30853W        W47114  16.150  17.180   2.994 -0.2702 -0.1385  0.2833
30854W        W47115   8.867   4.004  12.488  0.1908  0.0072 -0.2040
30855W        W47116  15.107  13.832   4.301 -0.0150 -0.0381  0.0836
30856W        W47117   9.430  18.153   1.762 -0.1915 -0.0812 -0.4105
30857W        W47118   1.983  10.379  11.218 -0.0585 -0.0778 -0.0584
30858W        W47119   7.466   6.027  14.330 -0.3187 -0.0467  0.1383
30859W        W47120  10.608  15.616  11.240  0.0637 -0.0844  0.0954
30860W        W47121  10.704  12.307  11.467  0.0610 -0.2125  0.4794
30861W        W47122   3.287   4.435   2.840  0.1173 -0.1074  0.0795
30862W        W47123   4.856   4.091   1.560 -0.0819 -0.1090 -0.3575
30863W        W47124  11.505   9.176   3.354  0.3059  0.0902 -0.1437
30864W        W47125   7.727   5.704   4.670  0.1118  0.0903  0.1152
30865W        W47126   1.513  15.921  12.168  0.0184  0.1244  0.3490
30866W        W47127  16.933  12.739   1.467 -0.2404  0.1032  0.0541
30867W        W47128   1.243  12.686   2.092  0.2851 -0.1710  0.1222
30868W        W47129  10.569  13.559  14.446  0.0074 -0.1659  0.1670
30869W        W47130  12.508   9.777   3.239 -0.0749  0.0971  0.0918
30870W        W47131   7.629   2.193   4.292  0.0909 -0.0192 -0.0785
30871W        W47132  10.348  16.033   4.896 -0.0510  0.1769  0.0339
30872W        W47133  12.291   5.543  14.305  0.3086 -0.1384 -0.1490
30873W        W47134  12.471  17.826   4.556 -0.0842  0.1700 -0.0818
30874W        W47135  15.666  11.937  15.984  0.1478 -0.3334  0.1395
30875W        W47136  12.234   1.456  13.037  0.1388  0.3671  0.0937
30876W        W47137   1.301  14.865   3.723 -0.1316  0.0787 -0.0569
30877W        W47138  12.057  16.018  13.653 -0.0301 -0.0926  0.1000
30878W        W47139   4.000  14.498  16.073  0.2084 -0.0739  0.1818
30879W        W47140   5.607   4.569   2.519  0.4066  0.2898  0.2656
30880W        W47141  17.143  13.154   4.046  0.3514 -0.0834 -0.1263
30881W        W47142   8.115  16.729   3.293  0.1656  0.0716  0.0848
30882W        W47143   7.264   7.983   1.826  0.1722  0.2212 -0.1563
30883W        W47144   4.596  17.361   0.681 -0.1625 -0.1607  0.2010
30884W        W47145  11.998   3.034   4.150 -0.2262  0.1888 -0.0509
30885W        W47146  16.143  11.670   5.282  0.0323 -0.1813 -0.1893
30886W        W47147   2.100  17.661  11.486 -0.0575 -0.0033  0.2649
30887W        W47148   4.572   2.968  15.923  0.0574  0.2546  0.0752
30888W        W47149   9.463  13.769   4.861 -0.0785  0.0598 -0.3734
30889W        W47150  13.437  12.423   2.703  0.0422 -0.1587 -0.0160
30890W        W47151   7.728  11.547   2.632 -0.2763 -0.1720 -0.3495
30891W        W47152   8.995   3.956  11.965  0.1306  0.2731  0.0481
30892W        W47153  10.624   0.545   4.501 -0.3656  0.1387 -0.0100
30893W        W47154  15.056   0.827  13.954  0.0109 -0.1993  0.1371
30894W        W47155   8.738  14.540  13.241  0.1351  0.5170  0.1158
30895W        W47156  17.193  14.418   1.531  0.2820 -0.0439 -0.2026
30896W        W47157  17.230  13.067   2.830 -0.0306 -0.0523 -0.0445
30897W        W47158   8.642   7.758  12.571 -0.1876 -0.3381  0.0429
30898W        W47159  12.332  16.584   2.749 -0.2454 -0.1804  0.5656
30899W        W47160  13.861  12.366   2.350  0.0899 -0.0727 -0.3459
30900W        W47161   9.469   1.632   4.318  0.3226 -0.0792 -0.1947
30901W        W47162   6.869  11.315   4.204 -0.2831 -0.0452 -0.4475
30902W        W47163  14.216   9.981  12.529 -0.0316 -0.2576 -0.1977
30903W        W47164  17.642   4.841   3.048 -0.1286  0.1361 -0.0812
30904W        W47165   3.348  14.851   1.873  0.1520  0.1852  0.0092
30905W        W47166  15.764  12.016   3.889 -0.1706 -0.0216 -0.3196
30906W        W47167  12.066   0.736   0.086 -0.0796 -0.0834  0.2196
30907W        W47168   2.544  12.675   3.448  0.2405 -0.2430  0.1150
30908W        W47169  15.522  13.910   2.384 -0.0461 -0.0884  0.2715
30909W        W47170  14.058   1.635  14.929  0.1386  0.0476  0.3477
30910W        W47171   6.373  10.089  15.209  0.3972 -0.0931  0.1974
30911W        W47172   6.389  10.561   5.538  0.0703  0.0553  0.1456
30912W        W47173  10.139  12.847   1.211 -0.0305 -0.1914  0.0705
30913W        W47174   7.018   4.163   2.611  0.0454 -0.1422  0.1994
30914W        W47175  13.043   1.372   4.415  0.0376 -0.1021 -0.1876
30915W        W47176   3.861  11.157  13.916  0.0229  0.2831  0.1462
30916W        W47177  11.778  16.929  12.617  0.2546  0.4091  0.0141
30917W        W47178   0.391   1.268  12.878  0.1736 -0.0681  0.4192
30918W        W47179  12.253  16.017  11.893  0.2249  0.0167 -0.1073
30919W        W47180  13.446   5.289   4.984  0.4689  0.0617 -0.0561
30920W        W47181  10.756  17.853   1.487  0.4006 -0.1259  0.3228
30921W        W47182   3.976   4.182   2.216 -0.0407  0.4108 -0.3021
30922W        W47183   1.646   0.999   5.241  0.0205  0.1157 -0.0445
30923W        W47184  14.008   7.136  15.547 -0.3699 -0.0902  0.0222
30924W        W47185  13.001   1.139   4.848  0.2226 -0.0060 -0.2275
30925W        W47186  11.794  13.598   1.773  0.2921 -0.1750  0.1642
30926W        W47187   1.502  10.821   2.398 -0.0357  0.0901  0.1888
30927W        W47188  13.648  10.072   5.213 -0.0301  0.0655 -0.3180
30928W        W47189   3.049  11.675  12.874 -0.1810 -0.1281 -0.0203
30929W        W47190   3.589  11.592  13.103  0.0413  0.2491 -0.0294
30930W        W47191  10.447   6.574   0.811  0.1753 -0.1970 -0.2858
30931W        W47192   5.694   1.048   2.107  0.6130  0.0624  0.2375
30932W        W47193   4.154   6.663  14.602 -0.0768  0.1308 -0.2123
30933W        W47194   7.381   6.601   6.290  0.1759 -0.0250  0.1217
30934W        W47195   4.875  16.583  12.445 -0.4695 -0.0958 -0.2800
30935W        W47196  17.984   6.680   4.338  0.0163 -0.1707  0.1201
30936W        W47197  18.147   4.402   0.648 -0.2092 -0.0262  0.3498
30937W        W47198   9.414   8.108   5.821  0.3029  0.1660 -0.0836
30938W        W47199   3.737  17.604   1.906  0.6422  0.2632 -0.1859
30939W        W47200  13.600  13.304  15.136  0.0403 -0.0122 -0.2517
30940W        W47201  14.337  15.407   4.091 -0.2006 -0.2150  0.1038
30941W        W47202   9.205  17.913  11.355 -0.0719  0.2673 -0.2921
30942W        W47203  14.530  12.173  11.831 -0.4056 -0.1586 -0.2193
30943W        W47204  14.223   7.173  14.674  0.0470 -0.1240  0.0734
30944W        W47205  14.884   2.353   4.108 -0.0948 -0.1352  0.1459
30945W        W47206  13.153   6.888  11.318  0.0658 -0.2132 -0.1858
30946W        W47207   2.875  18.245   1.127  0.0054  0.0221  0.2796
30947W        W47208  17.334  15.129   4.697 -0.0453 -0.0490 -0.1737
30948W        W47209  14.159   9.495   3.456 -0.0448  0.1391 -0.0146
30949W        W47210   8.788   6.315   4.278 -0.3569 -0.2828 -0.2353
30950W        W47211   8.645   3.396   4.772 -0.3005 -0.0614  0.1799
30951W        W47212   8.219   9.530  12.200  0.3275  0.1155 -0.0399
30952W        W47213   8.465  18.411  12.754  0.0130  0.3306  0.0077
30953W        W47214  15.013  16.265   2.593 -0.1223  0.3181 -0.2787
30954W        W47215  17.817  16.212  14.577 -0.0839 -0.0523 -0.1694
30955W        W47216   1.938  12.004  15.314 -0.1402  0.2310  0.0349
30956W        W47217   0.135   4.352   2.834 -0.1651  0.1906 -0.2393
30957W        W47218   2.832   1.050  12.076 -0.0487 -0.2141  0.1310
30958W        W47219   0.116  16.325  11.881  0.1229 -0.0040  0.0902
30959W        W47220  17.439  15.520  14.857 -0.0979 -0.0036 -0.1585
30960W        W47221   9.348   2.173   4.360  0.0447 -0.0439  0.1357
30961W        W47222  18.253  16.616   2.907 -0.3168  0.1067  0.1148
30962W        W47223  14.022  18.422   1.580  0.0214 -0.3027  0.1745
30963W        W47224   8.380   1.849   3.614  0.0701 -0.0376 -0.1256
30964W        W47225   7.831   7.696   1.728 -0.1876 -0.1043 -0.0431
30965W        W47226   7.596  17.013   2.156 -0.0521 -0.2845  0.1561
30966W        W47227  16.904   4.604  13.032 -0.0516  0.5042 -0.3743
30967W        W47228  14.515   5.766  13.075 -0.1300  0.0317 -0.0532
30968W        W47229   4.614   2.037  15.722  0.1600 -0.0727  0.1011
30969W        W47230   0.354  17.934  12.079 -0.1777  0.1308 -0.0123
30970W        W47231   2.698  10.448   2.094 -0.1751  0.1046  0.1555
30971W        W47232   3.387  13.069   3.225 -0.1578 -0.1066  0.0751
30972W        W47233   5.479  16.292   1.584  0.1096  0.0833 -0.0257
30973W        W47234  11.524  15.345  11.683 -0.2918 -0.0588  0.1293
30974W        W47235  15.852   4.472  13.945  0.0278 -0.2520  0.0276
30975W        W47236   6.275   2.674   6.076  0.1036  0.1746  0.0271
30976W        W47237   5.535  17.351   2.645  0.0847  0.2989 -0.3070
30977W        W47238   2.309  16.177  11.534  0.3750 -0.1250  0.1152
30978W        W47239   7.602   1.885   5.348  0.2378 -0.0540 -0.0181
30979W        W47240  11.115  14.545  12.415 -0.0285 -0.1722  0.0694
30980W        W47241   7.665  15.299   3.837 -0.0671  0.0066  0.0262
30981W        W47242   0.301   7.533   4.017 -0.0303  0.3508  0.1032
30982W        W47243   8.353  11.756   5.457  0.3173 -0.1673 -0.1160
30983W        W47244   4.903   0.998  11.341 -0.0934 -0.0069  0.1365
30984W        W47245   8.208   8.157  13.407  0.0436  0.2556 -0.0167
30985W        W47246  14.375   8.024   1.267  0.0139 -0.1117 -0.2882
30986W        W47247  12.439  14.198   0.689  0.0206 -0.3358 -0.0207
30987W        W47248  11.522   1.108   4.450  0.0372 -0.1102  0.2250
30988W        W47249   2.150  18.326   2.550  0.1036  0.2673 -0.0563
30989W        W47250   5.875   1.559   5.264 -0.0366 -0.0813 -0.3815
30990W        W47251   7.809  11.897  12.393  0.2003  0.0764 -0.1985
30991W        W47252  18.248  11.360   2.453 -0.3021  0.3324 -0.1356
30992W        W47253  17.873   6.431  12.664  0.0177  0.4877  0.1439
30993W        W47254   3.997  15.114   2.020  0.0609 -0.2350  0.2500
30994W        W47255   2.853  10.389   4.179  0.1706  0.4571 -0.2155
30995W        W47256   2.182   0.272   2.344  0.0726 -0.1098  0.0360
30996W        W47257   6.318  11.854   6.199 -0.0932  0.3026  0.0322
30997W        W47258   9.273   2.870  14.880  0.2664 -0.0119  0.0276
30998W        W47259   5.524  14.515  12.502  0.1097  0.0496 -0.0911
30999W        W47260  17.894  11.034  14.229  0.1989  0.1136  0.2222
31000W        W47261  12.477  12.520   3.333 -0.0899  0.0332  0.1656
31001W        W47262   0.667   3.007  12.795 -0.2718 -0.1232  0.2372
31002W        W47263  13.402   7.054  12.253  0.1185  0.3512  0.1666
31003W        W47264   8.168   3.463  11.721 -0.0685  0.1029  0.0874
31004W        W47265  15.093   0.793  11.422 -0.0437  0.0952  0.1907
31005W        W47266   9.467  15.713   4.107  0.0360  0.3047  0.0298
31006W        W47267  17.184  12.569  14.040 -0.0410 -0.0486  0.0598
31007W        W47268   0.209  10.675   4.254 -0.0173  0.0459  0.0517
31008W        W47269  16.876   4.865   2.517  0.1120 -0.0140  0.1428
31009W        W47270   7.690  11.912  13.584  0.2818  0.1352  0.2312
31010W        W47271  16.606  15.111  13.805 -0.1207 -0.1779 -0.0342
31011W        W47272   2.067  15.011   3.546 -0.3367  0.1047 -0.0905
31012W        W47273   2.445  14.733   0.146 -0.2218 -0.0862 -0.0200
31013W        W47274  12.505   0.852  10.754  0.0547 -0.1612  0.3046
31014W        W47275  15.721   4.024   2.196  0.1437 -0.0632 -0.0687
31015W        W47276  14.363  10.626   3.488  0.0602 -0.1619 -0.1026
31016W        W47277  18.466   4.828   0.919 -0.0906  0.0104 -0.0676
31017W        W47278  13.942  16.636   0.129  0.0230 -0.1205  0.4328
31018W        W47279  14.237  10.125   2.635  0.3907  0.2388  0.0817
31019W        W47280  14.330   3.958   4.029 -0.1167  0.0782  0.1726
31020W        W47281  10.218  10.992  13.456  0.0308  0.2595 -0.1710
31021W        W47282   7.370  17.903  14.755 -0.0076 -0.0095 -0.4493
31022W        W47283   0.811  12.796  12.559 -0.0044 -0.2381 -0.1008
31023W        W47284   2.955   6.738   0.481 -0.1599  0.1958 -0.3728
31024W        W47285   4.203  11.793   0.450 -0.1555  0.0968  0.0428
31025W        W47286  11.238   8.083  11.749 -0.0782 -0.2363 -0.2143
31026W        W47287   3.197  17.545   5.004  0.0076 -0.3172  0.0332
31027W        W47288  10.311  12.419   0.980  0.0882  0.2226  0.0290
31028W        W47289   2.053  16.771   3.705  0.1076  0.1318 -0.0085
31029W        W47290   0.725   2.653  15.686  0.0074  0.0024  0.2362
31030W        W47291   7.033   8.302   4.874  0.0922  0.1251  0.0460
31031W        W47292   6.041   4.823   0.088  0.1064 -0.1999 -0.0981
31032W        W47293   2.783   2.571  12.711  0.0347  0.0232 -0.1840
31033W        W47294  14.140  12.349   0.564 -0.1040 -0.2457  0.1472
31034W        W47295  15.938  18.165   4.804  0.1531  0.1653 -0.7080
31035W        W47296   7.554  10.830  15.538  0.2252  0.1536  0.0169
31036W        W47297   8.055  14.534  15.550 -0.0750 -0.3479 -0.1579
31037W        W47298   1.430   1.993   4.887  0.2142  0.3673  0.3750
31038W        W47299   6.833   5.616  14.073 -0.1337  0.0148  0.0435
31039W        W47300   5.512  17.828   1.666  0.0482  0.2551 -0.0044
31040W        W47301  12.148  14.961   3.610 -0.0439 -0.2664  0.0107
31041W        W47302   4.184  16.021   6.123 -0.1859  0.0775 -0.0503
31042W        W47303   6.204  13.285  15.776 -0.1083  0.1369  0.0513
31043W        W47304   0.614   0.925   2.016 -0.1492  0.1008 -0.1233
31044W        W47305  16.542  16.933  11.632 -0.0743 -0.4933  0.2334
31045W        W47306   0.005   6.340   2.261  0.1680  0.4222 -0.1954
31046W        W47307   1.426  16.694   3.271 -0.1369  0.1525 -0.0396
31047W        W47308   0.556  12.675   1.214 -0.0621 -0.1182 -0.2889
31048W        W47309  10.860  14.230  12.096  0.0406 -0.3067 -0.1385
31049W        W47310   4.603  10.696   1.895 -0.1099 -0.1759 -0.0012
31050W        W47311   9.380  12.826  14.051  0.3576  0.1283 -0.2016
31051W        W47312  15.656   1.967  10.556 -0.6035  0.5031  0.0541
31052W        W47313   9.585  14.904  12.739 -0.2121 -0.3379 -0.0756
31053W        W47314   0.860   2.151  15.504 -0.0092 -0.2774  0.1677
31054W        W47315  11.712  18.143  14.959 -0.0539 -0.0171 -0.1337
31055W        W47316  12.968  13.739   0.289  0.1898 -0.0019 -0.0027
31056W        W47317   6.982   9.389   1.948  0.0771 -0.0920  0.1070
31057W        W47318   5.322   8.294   2.580  0.0691  0.1384  0.1012
31058W        W47319   7.419  10.489  14.080 -0.0524  0.0508  0.1425
31059W        W47320  15.371   6.034   1.923  0.3184  0.0014  0.0114
31060W        W47321   1.841  12.867   0.193 -0.2861 -0.2139  0.1038
31061W        W47322  14.588  14.587  10.472  0.2020  0.3213  0.1716
31062W        W47323  16.232  14.983  11.932 -0.0823 -0.1928 -0.0560
31063W        W47324  12.166   7.626   0.604  0.0372  0.4066 -0.4489
31064W        W47325   5.386   1.533  12.364  0.1109 -0.1695 -0.0661
31065W        W47326  16.836  14.200  15.592 -0.2792  0.1913 -0.1697
31066W        W47327   8.734   1.640  12.525  0.0545 -0.0341  0.1793
31067W        W47328  15.309  17.755  14.129  0.0049 -0.0015  0.0955
31068W        W47329   3.768  12.599   1.491 -0.0637 -0.4327 -0.3773
31069W        W47330  15.835   2.952   3.208 -0.2946  0.0804 -0.0584
31070W        W47331   6.892   9.338  14.170 -0.1800 -0.0265 -0.1124
31071W        W47332   5.894   2.213  12.037 -0.0023  0.3888  0.0507
31072W        W47333   3.302   8.415  13.542  0.0584 -0.3468 -0.1667
31073W        W47334   4.842  14.490   1.830 -0.0044  0.3917  0.1251
31074W        W47335   4.928   3.506   0.941 -0.2318 -0.0451  0.2313
31075W        W47336   8.563  13.689   5.061  0.3414 -0.0153 -0.0253
31076W        W47337  16.964  10.777  14.504  0.1550 -0.0758 -0.0801
31077W        W47338   1.480  14.386   5.657 -0.1606  0.2793 -0.3194
31078W        W47339  12.037  14.743  11.408  0.3880 -0.1503  0.0603
31079W        W47340  13.537  15.604   2.849 -0.3381 -0.0285 -0.2718
31080W        W47341  14.285  13.872  15.773  0.3348 -0.1584 -0.0917
31081W        W47342   2.319   8.939   1.914 -0.1653  0.0285  0.0428
31082W        W47343   5.213  12.968   4.645  0.0015 -0.3353  0.0608
31083W        W47344  15.311   4.107   3.449  0.0491 -0.2153  0.0834
31084W        W47345   6.709   2.020  12.138 -0.0241 -0.0645 -0.2740
31085W        W47346  12.847  16.267  15.797 -0.0878  0.0674  0.0603
31086W        W47347   7.683  17.900  14.373  0.1568  0.0432 -0.0874
31087W        W47348   8.366   1.791  15.009  0.1982 -0.2150  0.0679
31088W        W47349   3.985  17.498   2.725  0.0508  0.2831  0.3446
31089W        W47350   4.415  15.701   0.070  0.0277  0.0280  0.1157
31090W        W47351  17.885  14.032  13.185 -0.0376  0.1176 -0.1145
31091W        W47352  18.338  17.181  11.084  0.0421  0.1007  0.2558
31092W        W47353  13.533  12.219   4.411 -0.1952 -0.1102 -0.2521
31093W        W47354  10.000  12.568   2.900  0.1599  0.1532  0.2248
31094W        W47355   5.437   5.505  15.247 -0.1353  0.1799  0.1277
31095W        W47356   1.078  13.353   0.011 -0.0638 -0.0019  0.3329
31096W        W47357  13.094   3.731  13.250 -0.1913  0.0279  0.1134
31097W        W47358  18.440  14.447   1.107  0.0631 -0.0039 -0.0943
31098W        W47359  15.873  10.436  13.012 -0.3119 -0.1438 -0.1872
31099W        W47360  16.940  14.612   2.042  0.1791 -0.2214 -0.0617
31100W        W47361   7.652  12.419   1.989  0.1067  0.1405  0.0722
31101W        W47362  17.826   7.988  16.125  0.1231 -0.0305 -0.0311
31102W        W47363   6.181  14.831  15.928 -0.0975 -0.3467  0.0380
31103W        W47364   5.612   6.124   6.533  0.0526  0.2830  0.1244
31104W        W47365  17.994  15.741   2.788  0.1040 -0.0951 -0.1595
31105W        W47366   5.563   6.889  12.425 -0.1300 -0.0024  0.0231
31106W        W47367  16.460  15.407   2.390  0.4682  0.0904 -0.1079
31107W        W47368  11.422  12.685  14.739  0.1500 -0.4549  0.0365
31108W        W47369   8.569   7.410   0.820  0.0713  0.0105 -0.1821
31109W        W47370   3.199   5.692  13.032  0.0429 -0.4415  0.2276
31110W        W47371   7.587   5.540  14.448 -0.2967  0.1828  0.1136
31111W        W47372  11.633  14.448   0.145  0.1611  0.1015 -0.2682
31112W        W47373  12.150  16.928  14.766 -0.1570  0.3593 -0.0944
31113W        W47374  14.073   0.503  10.022 -0.2658  0.1623  0.1750
31114W        W47375   8.949   0.721   4.318  0.0820 -0.1697  0.0054
31115W        W47376  12.080  16.240  10.668 -0.0001  0.0008 -0.0614
31116W        W47377  10.368  17.046   2.061  0.1777 -0.1651 -0.1147
31117W        W47378   2.823  15.256  15.133  0.1138  0.1347  0.1076
31118W        W47379   2.196  10.450   1.755  0.1035  0.1038 -0.1329
31119W        W47380  16.238   9.626  14.821 -0.3695 -0.3527  0.2122
31120W        W47381  13.893   9.841  13.846 -0.2083  0.2727 -0.0179
31121W        W47382  11.751  13.244  13.476  0.0460  0.0026 -0.1775
31122W        W47383  14.932   7.885  12.035 -0.1082  0.1270 -0.1548
31123W        W47384   5.203   1.746  11.114 -0.0221 -0.1854  0.1138
31124W        W47385   3.776  18.255   4.029 -0.1115  0.0002 -0.0081
31125W        W47386   3.408  12.741   4.605  0.0674 -0.0400  0.2276
31126W        W47387   6.317   0.505  13.819  0.1189 -0.2332 -0.1252
31127W        W47388   8.069  12.642  15.117  0.0520  0.1922  0.2777
31128W        W47389   5.836   2.478  11.472  0.2665  0.0308 -0.0906
31129W        W47390   1.404   8.724   5.207 -0.0279  0.1815  0.1785
31130W        W47391   4.123   9.913   3.051  0.2097  0.0743  0.1539
31131W        W47392  13.851   2.505   2.032 -0.0658 -0.0450 -0.2857
31132W        W47393  11.234  18.230  11.881  0.0755 -0.0352 -0.2732
31133W        W47394   2.220  17.449   2.119 -0.2219  0.1498  0.0555
31134W        W47395   6.199   8.746   5.098  0.0317 -0.1136  0.1574
31135W        W47396  15.608  15.478   0.174  0.4861  0.1419  0.2526
31136W        W47397  13.898  12.661   5.211  0.1851 -0.1063 -0.0571
31137W        W47398  13.209   2.695   4.103  0.0517 -0.0477  0.0649
31138W        W47399   3.418  14.091  13.303  0.4159 -0.1449 -0.1556
31139W        W47400   1.640  17.421   4.328 -0.2621  0.1391  0.0525
31140W        W47401   3.379   7.756  12.441 -0.0124  0.2177 -0.0041
31141W        W47402  11.639  14.608   4.835 -0.0967  0.0274 -0.0837
31142W        W47403   3.230   6.771   1.476  0.1472 -0.1110 -0.0303
31143W        W47404   4.795  16.940  14.749 -0.5054 -0.4372 -0.3196
31144W        W47405  11.784  11.402  13.490  0.3225  0.0428  0.1982
31145W        W47406   1.940  13.216  15.950  0.1848 -0.4516 -0.1984
31146W        W47407   3.609  16.837  11.702 -0.1865 -0.0420  0.2419
31147W        W47408   2.811  14.226   5.301  0.2420  0.0883  0.0820
31148W        W47409   5.347  13.963   0.695 -0.0484  0.0062 -0.1410
31149W        W47410   8.681   4.112  11.566 -0.0923  0.2323 -0.2108
31150W        W47411  14.845  10.284  15.451  0.3205 -0.0860 -0.0603
31151W        W47412  13.397   2.223  10.761 -0.1400  0.2407 -0.0831
31152W        W47413  11.866  15.669  16.045 -0.3784  0.2545  0.0284
31153W        W47414   3.803  13.654   5.469 -0.0722  0.0447  0.1534
31154W        W47415  13.769   2.648  10.005  0.2800  0.2119  0.0636
31155W        W47416   7.440  16.728   1.248 -0.1049 -0.1700 -0.0104
31156W        W47417   1.979   0.490  12.134 -0.0453 -0.1778 -0.1338
31157W        W47418  18.010  16.359  13.011 -0.0614  0.0846 -0.2728
31158W        W47419  11.148   5.937  15.036  0.2347 -0.1213  0.0777
31159W        W47420   2.065   2.249  14.607  0.2828  0.0935  0.1249
31160W        W47421  17.286  13.436   0.403 -0.0884  0.0201  0.0382
31161W        W47422   5.397   5.585   0.889 -0.0758 -0.0963 -0.2973
31162W        W47423   4.381   0.301   1.579  0.0013  0.0370  0.1238
31163W        W47424   5.303  15.695   0.396  0.1163 -0.1030 -0.1355
31164W        W47425  15.927  14.304   0.292  0.0355  0.1542  0.2981
31165W        W47426   5.437  12.086   4.214  0.2633  0.1526  0.0383
31166W        W47427   6.048  11.746  12.116  0.0965 -0.2365  0.0719
31167W        W47428  15.411   9.845   2.010 -0.0504  0.0519  0.1652
31168W        W47429  17.923  10.554  15.644  0.2048 -0.0375  0.1956
31169W        W47430  13.427   6.769   0.627  0.0068 -0.3066  0.1895
31170W        W47431   1.967  10.034   4.015  0.1951 -0.1683 -0.1647
31171W        W47432  16.069  17.649  11.654 -0.2891 -0.1626 -0.0877
31172W        W47433  14.458  12.515   0.187  0.0033  0.1198  0.1783
31173W        W47434   7.224   5.253   1.851 -0.0778  0.0246 -0.1138
31174W        W47435   6.109   5.321   0.280  0.0212 -0.3795  0.2777
31175W        W47436   4.516  10.596   5.422  0.0037 -0.1762 -0.4389
31176W        W47437   1.864   7.371   0.622 -0.2138  0.0689 -0.0721
31177W        W47438   7.524  12.245  13.255  0.0346 -0.4837  0.0564
31178W        W47439  12.397   6.599   1.159 -0.0359  0.2110  0.2253
31179W        W47440  12.018   1.090   1.353  0.0787  0.4586 -0.2134
31180W        W47441  15.909   4.900   4.567  0.2463 -0.3406 -0.0739
31181W        W47442   7.272   3.771  12.785  0.0981  0.4348  0.2812
31182W        W47443  10.244  10.535   0.132  0.2052  0.1963 -0.2999
31183W        W47444   6.969   7.466   6.316 -0.0671 -0.1459 -0.2101
31184W        W47445  16.690  11.892  15.740 -0.0136 -0.1615 -0.0114
31185W        W47446   1.594   6.241  12.864 -0.1496  0.1915 -0.1152
31186W        W47447  18.185   0.229   0.382  0.2028  0.0972 -0.1503
31187W        W47448  10.840   5.929   0.164 -0.2041  0.1217  0.0843
31188W        W47449   5.850   4.297  13.863 -0.1123  0.2571  0.0676
31189W        W47450   3.025  14.917   0.273 -0.0197 -0.0672  0.2632
31190W        W47451   2.407  18.210   4.607 -0.1155  0.2099 -0.1659
31191W        W47452  17.458  14.319   2.778 -0.1078  0.0096 -0.4577
31192W        W47453   3.130  11.669  14.872 -0.4101 -0.0403 -0.0018
31193W        W47454   4.973   4.752   0.789 -0.3113 -0.1771 -0.0097
31194W        W47455   4.517   6.310  12.178  0.3269  0.0310  0.0305
31195W        W47456  12.900  17.003   2.382  0.0363 -0.0031 -0.0760
31196W        W47457   1.315  12.649  15.788  0.0429 -0.1939  0.2164
31197W        W47458   0.427  13.993   1.599 -0.0971 -0.1692  0.0605
31198W        W47459  11.195   8.771  10.985  0.1863  0.0413 -0.1278
31199W        W47460  18.171  14.066  14.691 -0.0248  0.0216 -0.1184
31200W        W47461   5.231  16.244  11.226  0.0922 -0.1909 -0.0153
31201W        W47462   5.892  13.797  11.948 -0.0098  0.0496 -0.2274
31202W        W47463   1.213   2.482  13.184  0.2432  0.2587  0.0025
31203W        W47464   1.446  10.141  13.386  0.3296 -0.2662 -0.1351
31204W        W47465   7.292  17.323   4.891  0.1085 -0.0537  0.2016
31205W        W47466   7.362  10.489  15.981 -0.1904  0.3960  0.1258
31206W        W47467  17.713  17.471   1.443 -0.1261  0.0332  0.1785
31207W        W47468  10.241   2.104  15.091 -0.0849  0.0232  0.0092
31208W        W47469   1.545   5.462   1.324  0.1560  0.0913  0.1330
31209W        W47470   0.374   4.075   4.347  0.5056  0.2378 -0.1758
31210W        W47471  15.451   1.962  11.089  0.2129 -0.1473  0.0782
31211W        W47472   1.125   9.097  12.361 -0.1671 -0.0373  0.0717
31212W        W47473  12.032  13.946  11.890 -0.1934  0.0288 -0.1036
31213W        W47474   0.462   3.579   5.070 -0.3713 -0.1067  0.2075
31214W        W47475   5.924  14.337  12.684 -0.0237  0.0939 -0.2062
31215W        W47476  14.111   9.199   5.435 -0.1675 -0.0522 -0.4876
31216W        W47477   7.199  16.209   5.522 -0.1334 -0.1784  0.2237
31217W        W47478   1.281  15.895  14.832  0.3717  0.2089 -0.0134
31218W        W47479   0.304   7.163   0.404 -0.0571 -0.0886  0.1382
31219W        W47480  14.877  14.318   1.812  0.3185  0.1516  0.1423
31220W        W47481   8.479   2.692  15.795  0.1249  0.0719 -0.0010
31221W        W47482  15.783   6.802   2.580  0.0201  0.0004 -0.2808
31222W        W47483  10.522   4.417   2.998 -0.6052 -0.0026 -0.2502
31223W        W47484  11.649  11.052  11.247 -0.0498 -0.1047  0.1932
31224W        W47485  17.146   2.213  16.143 -0.0557 -0.0012 -0.1931
31225W        W47486  14.490   3.313  14.525  0.2184 -0.1825  0.1648
31226W        W47487   4.061  14.920   4.824 -0.0198 -0.1716 -0.0488
31227W        W47488   4.713  16.511   1.083  0.2151 -0.2317 -0.4054
31228W        W47489  13.312   4.507  14.819  0.0075  0.0774  0.3584
31229W        W47490  15.160  14.382  14.230 -0.0384  0.0717 -0.3995
31230W        W47491   4.979   9.072   3.118 -0.1534 -0.0401 -0.1370
31231W        W47492  12.457   6.233  13.056  0.0828  0.3313  0.1784
31232W        W47493  18.031   5.809   6.107  0.1492 -0.1094  0.0539
31233W        W47494  10.559   9.131   0.791 -0.0300  0.0349 -0.3485
31234W        W47495  11.230   6.602  14.776 -0.4261 -0.0921  0.1101
31235W        W47496   2.614  17.419  11.657 -0.3092  0.1354 -0.3721
31236W        W47497   3.223   4.776   4.281  0.1479 -0.0959 -0.0340
31237W        W47498  12.850  14.439  15.728 -0.1185 -0.0940  0.0451
31238W        W47499   1.341   3.770   5.689  0.0432  0.2932  0.1012
31239W        W47500  10.350   8.470   0.084  0.3483 -0.0890 -0.0316
31240W        W47501  14.408   8.709  14.661 -0.1266 -0.1758  0.1055
31241W        W47502   6.286  14.688  14.790  0.0126 -0.0712 -0.1894
31242W        W47503  14.894   6.356   1.735  0.4686 -0.0702  0.3379
31243W        W47504   5.037  11.367   2.020  0.0864  0.2447 -0.1540
31244W        W47505   8.946   6.132   1.926  0.0844  0.3657  0.3553
31245W        W47506   5.197   7.331  12.171 -0.0552  0.1051 -0.6808
31246W        W47507  18.418   5.217   3.051 -0.0103  0.1689  0.1523
31247W        W47508   8.305  11.027   2.801 -0.1524  0.1116 -0.0292
31248W        W47509  10.285   7.959  12.974  0.0313  0.0857  0.0511
31249W        W47510   4.136   8.842   3.076 -0.1356 -0.3774  0.0103
31250W        W47511  18.302  13.622  13.931 -0.0633  0.1526 -0.3686
31251W        W47512   9.627  14.936  15.295  0.1408  0.2776  0.0449
31252W        W47513   4.341   2.091  14.118  0.1690 -0.1421  0.1797
31253W        W47514   2.293  10.562   3.477  0.1223  0.3366  0.3177
31254W        W47515   4.425  11.053   4.365 -0.0082 -0.0173  0.2222
31255W        W47516   8.368  10.595  14.524 -0.0051 -0.2730 -0.2149
31256W        W47517   8.296   1.381   1.979 -0.3321 -0.0145 -0.1486
31257W        W47518  16.351  13.443  16.068 -0.2502 -0.2498 -0.0317
31258W        W47519   7.559   2.110  13.926 -0.2966 -0.0067 -0.3749
31259W        W47520   4.984   7.632  14.692 -0.0443 -0.3056  0.2889
31260W        W47521   9.685   2.704   2.480 -0.0093  0.2296  0.3230
31261W        W47522   7.880   5.330   4.998 -0.0967  0.0257 -0.1637
31262W        W47523  15.888  12.421   2.511 -0.0681  0.2008 -0.0691
31263W        W47524   0.986   4.183   0.952  0.1769 -0.3951  0.1024
31264W        W47525  14.140  14.572   4.212  0.0830 -0.0412  0.0797
31265W        W47526  17.779   4.774  16.044 -0.2395 -0.3007  0.1262
31266W        W47527  13.178   7.815  16.088 -0.1694 -0.1818 -0.1431
31267W        W47528  16.944   4.409  12.263 -0.0108  0.1984  0.0953
31268W        W47529   2.610   3.939   4.572  0.2442 -0.0818 -0.1951
31269W        W47530   5.775   0.517  12.992  0.0621 -0.0475 -0.1320
31270W        W47531  13.715  13.319  12.556 -0.0580  0.0309 -0.2059
31271W        W47532  10.960   2.261   3.807 -0.0851  0.2952  0.0248
31272W        W47533  15.078   9.860  11.060 -0.2604 -0.0445 -0.1577
31273W        W47534  11.074  16.272   4.241  0.3729 -0.1747  0.0107
31274W        W47535  18.032  10.866   0.956 -0.1363  0.1053 -0.0391
31275W        W47536   7.801  11.333   1.681  0.0768  0.1254  0.0992
31276W        W47537   1.023  15.720   4.930  0.0510 -0.3397  0.0614
31277W        W47538   0.955   4.542   1.814 -0.2726  0.2034  0.0849
31278W        W47539   2.420   4.353   0.563  0.1965  0.1677 -0.0341
31279W        W47540  17.989   6.111   0.015 -0.0454 -0.0359  0.1826
31280W        W47541   8.213   5.530   4.532 -0.0449  0.1143 -0.0902
31281W        W47542  13.166   5.084  14.058 -0.1330  0.2108 -0.3818
31282W        W47543   9.694  10.781   5.365 -0.0356  0.0978  0.0655
31283W        W47544   4.237   9.652  15.860  0.0484 -0.1390  0.2432
31284W        W47545  16.444  11.726  14.791 -0.0723 -0.1006 -0.0210
31285W        W47546  10.521   3.482  11.696 -0.4040 -0.1090  0.1965
31286W        W47547   2.548   0.146  15.577  0.0232  0.4288  0.0183
31287W        W47548   9.311  13.362  14.199  0.0824  0.3097  0.2292
31288W        W47549  16.322   4.414  11.195  0.0242  0.2052 -0.1961
31289W        W47550  14.632   2.172   3.626  0.1521  0.0702 -0.1197
31290W        W47551  12.821  10.971   5.204  0.2604  0.2239  0.1694
31291W        W47552  13.209   0.651  12.250 -0.3848  0.1173 -0.1806
31292W        W47553  14.506  18.396  13.006 -0.1414  0.0008 -0.1030
31293W        W47554  16.089   0.382  12.169 -0.1985  0.0107 -0.1566
31294W        W47555  15.229  11.208   0.104 -0.1576  0.5219  0.1796
31295W        W47556   5.969  16.486  14.002 -0.2113  0.0393  0.0994
31296W        W47557   6.163   1.273   0.762  0.0123 -0.1214 -0.1715
31297W        W47558  10.557  11.061  13.019 -0.0141 -0.2709 -0.0958
31298W        W47559   8.173   0.167  13.449  0.1322  0.1203 -0.0603
31299W        W47560  13.776   1.747   4.750  0.2684 -0.0548 -0.3232
31300W        W47561   2.573  17.457  13.759 -0.2620 -0.1491 -0.1239
31301W        W47562  16.010   5.292   2.172 -0.0007 -0.3548  0.0037
31302W        W47563   7.143   5.036   5.505 -0.1400  0.1624 -0.1710
31303W        W47564  11.625  14.721   6.017 -0.2982 -0.1495  0.0017
31304W        W47565   1.111  11.887  15.530 -0.1523 -0.1925  0.1538
31305W        W47566   6.216  12.313  12.740 -0.1746  0.0795 -0.0914
31306W        W47567   3.714   4.604   0.517  0.0313 -0.3003  0.2642
31307W        W47568   0.955   7.262  12.137  0.0671 -0.2563 -0.0631
31308W        W47569  11.060  17.400   0.303  0.0603 -0.2644  0.0458
31309W        W47570  15.530  10.279   5.499  0.2169 -0.5802  0.3778
31310W        W47571  14.554   9.426  11.616  0.0445  0.0811 -0.0468
31311W        W47572   9.798   6.808   5.167  0.1619 -0.0929  0.1321
31312W        W47573  18.312   6.933   2.865  0.2942 -0.3198 -0.0680
31313W        W47574  14.840  10.570   3.587  0.0936 -0.2151 -0.0258
31314W        W47575  14.876  16.937  13.381  0.1400  0.3251  0.2675
31315W        W47576   1.566  13.451  16.155  0.3122  0.0282  0.1503
31316W        W47577   4.270  14.964  12.533 -0.1601 -0.1376 -0.1244
31317W        W47578  16.688  16.569  15.306 -0.1032  0.2252  0.1010
31318W        W47579  13.242  18.377  11.758 -0.0313 -0.3193 -0.0544
31319W        W47580  10.013   2.432   1.818  0.2729  0.1242 -0.2438
31320W        W47581  15.312   3.647  14.416  0.1362  0.0716 -0.1555
31321W        W47582  10.176   2.269  14.620 -0.0473 -0.0004 -0.0506
31322W        W47583   1.554  15.437  15.407  0.2044 -0.0104 -0.0332
31323W        W47584  17.925  10.605   1.976  0.2237 -0.1268 -0.2195
31324W        W47585   8.605   9.328  11.461  0.3833  0.1194  0.0350
31325W        W47586   2.674  15.714   0.189  0.1598 -0.0945  0.0565
31326W        W47587   2.733   1.766  15.487 -0.0977 -0.0277 -0.3530
31327W        W47588  17.451   0.180  15.740  0.1025 -0.0328 -0.4016
31328W        W47589  11.514  16.978   0.870 -0.1188  0.3117  0.1408
31329W        W47590  14.393  14.325  14.134  0.1487 -0.2515  0.0480
31330W        W47591   6.343  10.293   1.667 -0.0201  0.2217 -0.0717
31331W        W47592  10.226   1.337   0.964  0.0886 -0.1994 -0.2590
31332W        W47593   6.203  17.966  12.736  0.1971  0.0533  0.2459
31333W        W47594  16.308   8.586  14.623  0.2143 -0.1171  0.3378
31334W        W47595   2.449  12.529  13.653  0.3002 -0.0199  0.3041
31335W        W47596  16.078  14.847  15.774  0.3658  0.0075 -0.1596
31336W        W47597   7.262   7.045   1.409  0.0878  0.0434 -0.3408
31337W        W47598  13.531   9.680   4.081  0.3625 -0.2081  0.3822
31338W        W47599  14.251  11.797   2.021 -0.1820  0.0323  0.1209
31339W        W47600  15.075   5.349   3.092  0.1136 -0.2482  0.1186
31340W        W47601  13.288  12.541  12.241  0.2043 -0.0110  0.0763
31341W        W47602  14.438   4.986  13.348 -0.1522 -0.0308  0.4004
31342W        W47603   8.673  17.430   0.063 -0.0097 -0.1014  0.2482
31343W        W47604  13.070  14.540  11.346  0.0951  0.1335 -0.2366
31344W        W47605   1.824  13.351  13.884 -0.0447 -0.1373 -0.0623
31345W        W47606  13.268  17.014   3.827  0.1009  0.1077 -0.1415
31346W        W47607   0.524  15.419  12.706 -0.1693 -0.0747  0.0638
31347W        W47608  16.214  11.488   3.347 -0.1042 -0.0890  0.1657
31348W        W47609  10.106   8.548   2.622  0.1463 -0.2512 -0.0841
31349W        W47610  14.776  11.830   2.137 -0.3650  0.3092  0.0919
31350W        W47611  16.445   0.027   0.925 -0.0398 -0.2445  0.0659
31351W        W47612   9.990   3.533   4.399  0.0894  0.2522  0.1677
31352W        W47613  15.572  11.793  13.608 -0.1269  0.1605  0.0075
31353W        W47614  12.714   2.042   2.761 -0.1256 -0.0970  0.1609
31354W        W47615   1.563   1.602  16.015 -0.0460 -0.0749 -0.2457
31355W        W47616  15.478   3.298   0.882 -0.1305  0.5408 -0.2067
31356W        W47617  12.208   4.125  13.227 -0.0924  0.2770  0.1481
31357W        W47618   6.209  13.855  15.200 -0.0314 -0.0686  0.3467
31358W        W47619   2.536  11.141   4.914  0.3523 -0.1125  0.1107
31359W        W47620   0.263   7.863  14.528  0.1649 -0.0824  0.0710
31360W        W47621   3.035  16.169  12.744 -0.2565  0.2199  0.1794
31361W        W47622  14.966  12.619   0.345 -0.3605 -0.1431 -0.0735
31362W        W47623   0.344  18.036  14.599  0.0371 -0.3449  0.1661
31363W        W47624  11.059   3.926   1.681 -0.1881  0.2094  0.1027
31364W        W47625  11.138  17.604   1.622 -0.0693 -0.2189 -0.5774
31365W        W47626   8.750   7.758  14.001  0.1307 -0.0710 -0.3050
31366W        W47627  13.273  14.730  15.657 -0.6166 -0.1952 -0.1686
31367W        W47628   3.263   1.884   5.453  0.0148  0.1031  0.1655
31368W        W47629   4.747  12.101   2.424  0.0426  0.0648 -0.2599
31369W        W47630  13.168  16.565   4.017 -0.1729  0.0203  0.0492
31370W        W47631   7.847  17.237   3.178  0.1318 -0.2938 -0.0903
31371W        W47632   8.210   9.685   2.778 -0.0917  0.0267  0.0896
31372W        W47633  17.633   9.936   0.227  0.1376  0.1515 -0.2864
31373W        W47634  15.405  14.446   3.881  0.0233 -0.2035  0.2661
31374W        W47635   2.927  11.295  12.485  0.0287 -0.2436 -0.0157
31375W        W47636   4.030  13.207  11.303  0.4331 -0.0062 -0.2191
31376W        W47637   6.597   7.432   5.794 -0.0472 -0.2437 -0.1024
31377W        W47638   5.817   8.455   6.303  0.0460 -0.0349 -0.0895
31378W        W47639  10.490   4.173   5.445 -0.1092 -0.0134 -0.0648
31379W        W47640   1.297  10.346  13.830 -0.3645 -0.0318 -0.1437
31380W        W47641  17.929   5.239   0.904 -0.2096  0.2119  0.1193
31381W        W47642   6.970   7.145   0.145  0.0022  0.4584  0.0422
31382W        W47643   7.622  14.660  14.435 -0.0553 -0.1271 -0.0605
31383W        W47644  14.752   5.590   1.163 -0.1724  0.2262  0.1529
31384W        W47645  12.266  13.516  15.252 -0.2419 -0.1236  0.1177
31385W        W47646   5.586  15.277   5.230  0.0021  0.1952 -0.0050
31386W        W47647   4.825   7.536   2.963 -0.1108 -0.0985  0.0642
31387W        W47648  15.465   6.511  12.029  0.1082  0.1163 -0.2677
31388W        W47649  15.032   6.061  16.174  0.1404  0.0677  0.0671
31389W        W47650   8.877   5.635  12.490 -0.2517 -0.0579  0.0679
31390W        W47651  15.070  17.870  12.360 -0.2541 -0.1132 -0.0359
31391W        W47652   1.998  10.485  15.976 -0.1321  0.5457  0.0882
31392W        W47653  13.175   8.913   0.564  0.0056 -0.0821  0.0078
31393W        W47654   5.388   5.388   1.907  0.1355  0.2452 -0.1351
31394W        W47655   3.621  15.371  14.394  0.3230  0.0974 -0.3216
31395W        W47656  17.571  15.977  10.837 -0.2999  0.1846  0.0290
31396W        W47657  16.915   1.435   2.347  0.0491 -0.0844 -0.1232
31397W        W47658  11.374   3.589  11.138 -0.1308 -0.0522  0.0318
31398W        W47659  16.842  16.725   3.565  0.2367 -0.1752 -0.3537
31399W        W47660  15.448  11.859  10.897  0.3436 -0.1931 -0.1113
31400W        W47661  17.315   4.566  13.820 -0.4109 -0.0122 -0.0014
31401W        W47662  17.690  15.308   2.792 -0.0867 -0.2389  0.0487
31402W        W47663   7.738  17.524  13.299  0.5765  0.0960 -0.3277
31403W        W47664   9.948   4.166   2.338  0.1892 -0.2904  0.0441
31404W        W47665   7.250   0.737  14.370  0.1383  0.0335 -0.2811
31405W        W47666  11.320   9.476   5.159  0.0193 -0.0168  0.2500
31406W        W47667   7.721   7.585  13.774  0.1322  0.1965 -0.0849
31407W        W47668  12.679   4.537   4.501 -0.2472  0.0326  0.0159
31408W        W47669  14.267   5.714   5.011 -0.1351  0.3164 -0.3151
31409W        W47670   5.033   5.718   2.936 -0.1393  0.1011 -0.0934
31410W        W47671   3.296  13.749  12.578 -0.1789  0.1214  0.0884
31411W        W47672  16.059  12.748  10.753  0.1268 -0.0273 -0.0553
31412W        W47673  16.044  14.650   2.177 -0.1010  0.1672  0.1161
31413W        W47674   8.994   2.458  13.612  0.1104 -0.1223 -0.2934
31414W        W47675   1.925  13.247  15.454 -0.2039  0.0845 -0.2495
31415W        W47676   8.656  13.729  11.656  0.1008 -0.1709 -0.0529
31416W        W47677  15.121  12.817  13.231  0.1793 -0.0050  0.0514
31417W        W47678   3.695   5.515   4.234 -0.1142 -0.1484  0.1087
31418W        W47679  15.019   5.634  13.100  0.3143 -0.2562 -0.0268
31419W        W47680   2.678   6.350  12.152 -0.4410 -0.1640 -0.1825
31420W        W47681  12.922   9.603  15.821  0.0079  0.0239 -0.0729
31421W        W47682   2.553   2.132   6.183  0.0461  0.0520  0.4853
31422W        W47683   1.453   1.721   1.764 -0.0001  0.0105 -0.0738
31423W        W47684  14.268  16.210  14.606  0.1813 -0.0498  0.0557
31424W        W47685  10.887   5.610   2.343 -0.0430 -0.2225  0.1155
31425W        W47686  16.063  17.456  15.358  0.0593 -0.0312  0.1487
31426W        W47687  12.583  11.219   0.299  0.2811 -0.1880  0.0526
31427W        W47688  11.238   8.122   2.564 -0.0375 -0.3533 -0.0146
31428W        W47689   5.144   2.469   3.727  0.2084  0.1301 -0.1820
31429W        W47690  16.977   6.410   4.452 -0.1187  0.2151 -0.2757
31430W        W47691  14.219   9.170   3.076  0.0705 -0.0145  0.3382
31431W        W47692   4.127  13.944  10.802  0.4383 -0.2654  0.0629
31432W        W47693   1.445  13.121   1.935  0.1067  0.1322 -0.0904
31433W        W47694   9.384  17.094  11.145 -0.4491  0.2936 -0.2300
31434W        W47695   1.022  13.187   6.101 -0.3977 -0.0103  0.0940
31435W        W47696  18.347   0.222   4.778 -0.0203  0.0771 -0.2734
31436W        W47697   4.997  15.888  15.353  0.1606  0.0524  0.1503
31437W        W47698  12.833  14.723  10.528 -0.0233  0.1512 -0.1443
31438W        W47699   6.152  11.955   3.565 -0.2987 -0.0585 -0.0257
31439W        W47700   3.011   7.110  13.153  0.2736 -0.0832  0.2200
31440W        W47701   9.585   2.231   5.154  0.0765  0.1038  0.0635
31441W        W47702   7.912   6.269   5.015 -0.2670 -0.2065  0.0492
31442W        W47703  10.763  13.693   0.032  0.0060 -0.1857 -0.1850
31443W        W47704   4.525  15.993   4.589 -0.0945 -0.2008  0.1504
31444W        W47705   1.301  14.102   5.272 -0.0302 -0.2804  0.2376
31445W        W47706  15.355   7.689   3.339 -0.1855 -0.1348  0.1652
31446W        W47707   7.187   4.688   0.727 -0.0910 -0.0640 -0.1089
31447W        W47708   1.899   0.063   2.010  0.1187 -0.4204 -0.2033
31448W        W47709   1.176   4.903   3.358  0.1657  0.0510  0.4421
31449W        W47710   3.001  12.328  12.416 -0.1806 -0.0552 -0.5543
31450W        W47711  16.896  12.924   4.563 -0.1411  0.1265  0.0653
31451W        W47712   6.062   9.630   0.030 -0.1492  0.0021  0.1883
31452W        W47713  12.505  11.297  15.191 -0.0594  0.1059  0.0042
31453W        W47714   1.062   7.265   1.126  0.0122 -0.1282 -0.1609
31454W        W47715   1.584   0.057   4.770  0.3585 -0.1426  0.1480
31455W        W47716  16.270   5.547  15.395 -0.0259  0.0915  0.0474
31456W        W47717  17.856   7.761   1.619  0.0172 -0.0152  0.0533
31457W        W47718  15.830  12.903   1.569  0.0803  0.1354 -0.2219
31458W        W47719  16.671  11.610  11.233 -0.2210  0.3228  0.0696
31459W        W47720  10.030  18.473   3.879 -0.0904  0.0040 -0.0591
31460W        W47721  13.898   1.518  13.854 -0.2919 -0.3306  0.0139
31461W        W47722   3.185  17.457  12.981  0.2964 -0.0660 -0.2054
31462W        W47723  18.122   9.322   0.644  0.4898  0.2058  0.0107
31463W        W47724  13.693   4.549   0.107 -0.3126 -0.0901 -0.1757
31464W        W47725   3.413  10.520  15.669 -0.0430  0.2017 -0.2320
31465W        W47726  12.421   4.798   0.924  0.1107  0.0337  0.0198
31466W        W47727   4.854  11.935  14.165  0.2565  0.3335 -0.0785
31467W        W47728   7.931   5.837  11.552 -0.2213  0.3677 -0.2011
31468W        W47729   3.837  15.640   3.132  0.2778  0.0751 -0.0601
31469W        W47730  17.952   8.753  13.752 -0.0736  0.0076  0.2952
31470W        W47731  16.201   7.082  14.406 -0.2448 -0.1552  0.0175
31471W        W47732  17.463   6.113   4.583 -0.2607 -0.0961  0.1120
31472W        W47733  13.424  13.290   2.822  0.0674 -0.0527  0.3567
31473W        W47734   0.054   5.741  14.436 -0.1724  0.2180 -0.0606
31474W        W47735   2.063  12.434   0.034 -0.1899  0.0221 -0.1413
31475W        W47736   0.986  12.248   4.635 -0.0385 -0.0038 -0.0812
31476W        W47737  15.026   3.130  15.762 -0.1337  0.1331  0.3573
31477W        W47738   2.366   4.539  13.207 -0.2310  0.1229 -0.2345
31478W        W47739   5.705   8.362  15.232 -0.0728  0.2049  0.1166
31479W        W47740  10.794  11.415   4.867 -0.0909 -0.1502 -0.0811
31480W        W47741   8.775  17.221  15.754  0.1153  0.2975  0.1557
31481W        W47742  13.711  16.412  12.423 -0.0249 -0.1381 -0.1210
31482W        W47743   0.026  13.818  11.474 -0.2028  0.2484 -0.1350
31483W        W47744  16.759  12.755  12.011 -0.2047 -0.1271 -0.1214
31484W        W47745  18.250  15.017   5.151 -0.1344  0.3172 -0.3259
31485W        W47746   8.165   6.920   6.015  0.1254  0.0763  0.1661
31486W        W47747   5.730   5.598   3.523  0.1098  0.0787  0.3419
31487W        W47748  13.589   9.416   1.292  0.1683  0.1122 -0.0917
31488W        W47749   9.457   5.509   3.989  0.1104 -0.2433  0.3507
31489W        W47750   2.820  17.572  16.091  0.2986  0.0546 -0.0279
31490W        W47751   3.083   6.303  15.825 -0.0454 -0.0234 -0.1324
31491W        W47752  10.563  12.380  15.350  0.2657  0.0051  0.2084
31492W        W47753   1.940   3.262   4.668  0.1985 -0.0208 -0.0929
31493W        W47754  14.586   1.652   4.583 -0.1259  0.1976  0.2133
31494W        W47755  16.800   5.143  11.271 -0.1579 -0.2578  0.4735
31495W        W47756   6.901   2.883   4.592  0.4932  0.2923  0.2235
31496W        W47757   2.407   8.067  12.159 -0.3977  0.0509  0.1340
31497W        W47758  17.084  16.420   0.825  0.2430  0.0239 -0.1637
31498W        W47759   9.221   9.592   0.529  0.3133  0.1088  0.0192
31499W        W47760   2.453  15.574   2.841  0.0039  0.0222 -0.0064
31500W        W47761   6.261  10.188   1.133 -0.2102 -0.0029  0.1858
31501W        W47762  16.477   8.115   5.258 -0.0081 -0.2683 -0.1776
31502W        W47763   3.256  17.811   1.591  0.1188 -0.2947 -0.3931
31503W        W47764   7.644   4.669   0.776 -0.2076 -0.0153  0.0684
31504W        W47765  13.496   8.712   3.048  0.5159  0.2157 -0.3229
31505W        W47766  17.056   0.769  12.432  0.1288 -0.2806  0.3979
31506W        W47767   7.080   4.551  12.477  0.3164 -0.3237 -0.4683
31507W        W47768   6.597  12.575  15.491  0.1086  0.3208 -0.2389
31508W        W47769   9.059  15.018   2.934 -0.0098  0.2152 -0.1748
31509W        W47770  18.033  15.003  15.969  0.2891 -0.2118 -0.0225
31510W        W47771   1.898   1.781  14.767 -0.1372  0.0125 -0.1062
31511W        W47772   7.867   0.927   4.274  0.0352 -0.0602  0.0387
31512W        W47773  14.607   7.019   3.285 -0.0452 -0.2118 -0.0561
31513W        W47774   0.435   1.188  14.576  0.1261 -0.2865  0.0937
31514W        W47775   1.839  15.351  13.962  0.0352 -0.2088  0.1297
31515W        W47776   8.568   6.248   3.330  0.2124  0.2605  0.0446
31516W        W47777   9.863   9.615   2.813  0.1067  0.0501 -0.2695
31517W        W47778   5.548   3.008  12.426 -0.0204 -0.0440  0.1481
31518W        W47779   4.136  11.619   3.462 -0.0959  0.1797  0.0612
31519W        W47780   5.138   8.672  14.237 -0.4153  0.0742 -0.0706
31520W        W47781   3.075  12.210   1.052 -0.2880  0.0506  0.0152
31521W        W47782   6.278  11.071  12.113  0.1985  0.1019 -0.0925
31522W        W47783   3.699  17.976   4.467  0.0961  0.2546 -0.0903
31523W        W47784   0.521  10.048   2.324  0.1235  0.1210 -0.0624
31524W        W47785  17.754   4.501  12.750 -0.1726 -0.1079  0.1970
31525W        W47786   3.219   5.500  12.602  0.0313 -0.1435  0.1369
31526W        W47787   9.347   3.035  15.857  0.0428 -0.2741  0.1273
31527W        W47788  12.824   0.331  11.474  0.0417  0.1159 -0.1606
31528W        W47789   6.516  11.708  11.924 -0.3929  0.1235  0.0801
31529W        W47790  12.163  15.840  15.605 -0.0703  0.0616 -0.1677
31530W        W47791  17.813  17.723  10.701 -0.0468  0.2528  0.1481
31531W        W47792   8.321   4.356   5.961  0.0308  0.0278  0.0151
31532W        W47793  13.217  16.263   1.194 -0.1530  0.0822  0.1751
31533W        W47794  12.512  15.131  13.459 -0.5471  0.2074 -0.1435
31534W        W47795   7.712  14.065  15.559  0.0017 -0.0022 -0.1045
31535W        W47796  15.922  16.420  12.098 -0.2240  0.5109 -0.3124
31536W        W47797   4.892  17.365   5.665  0.0680 -0.3047 -0.0230
31537W        W47798   5.009  12.620   1.676  0.1852 -0.0738 -0.2577
31538W        W47799  11.463   3.029   0.575 -0.2174 -0.0713 -0.1656
31539W        W47800  10.918  18.072  14.507  0.0197  0.2617 -0.0120
31540W        W47801  12.423   8.060   4.130 -0.0598  0.1743 -0.3487
31541W        W47802  18.442   2.268   3.220  0.1196 -0.2982  0.0374
31542W        W47803  17.446   1.602   3.657  0.2170  0.1235  0.0694
31543W        W47804  17.416  11.210  12.626 -0.3461 -0.0197 -0.0307
31544W        W47805  15.901   0.313  15.896 -0.1553 -0.2187  0.0780
31545W        W47806  14.861   4.954   4.759  0.0315 -0.3579 -0.2056
31546W        W47807   5.924   7.143   4.347  0.2303  0.4624 -0.1345
31547W        W47808  14.378   9.170  11.181  0.1969  0.1856 -0.1613
31548W        W47809  16.555   5.386  12.064 -0.3166  0.0526  0.0087
31549W        W47810   5.658   7.622  12.857 -0.1053 -0.0002 -0.0524
31550W        W47811  17.266   6.738  10.905  0.0115  0.2085 -0.4359
31551W        W47812   9.877   9.311  12.176 -0.2642  0.2430  0.0111
31552W        W47813  17.258  18.415  12.016  0.1009  0.0781 -0.0228
31553W        W47814   8.840  10.660   3.547  0.0282 -0.0829  0.1424
31554W        W47815   6.766  10.369   2.371 -0.3485 -0.2206 -0.2423
31555W        W47816  11.135  11.849   0.713  0.0293 -0.4248  0.1907
31556W        W47817   6.306  18.194   4.498  0.3368 -0.0285 -0.4143
31557W        W47818   2.506   6.328  15.702  0.0020 -0.1235  0.0119
31558W        W47819   4.308   7.656   1.075 -0.3871  0.0117 -0.2744
31559W        W47820   4.518   6.400  11.704 -0.1021  0.3179 -0.1001
31560W        W47821  12.611  15.692   4.094  0.1404  0.0149 -0.0689
31561W        W47822   7.603  17.872   0.236  0.1573  0.0175  0.1562
31562W        W47823   0.452  16.611   4.779 -0.0894  0.3032  0.1756
31563W        W47824   9.441  16.099   1.917  0.2806 -0.1890 -0.0192
31564W        W47825  12.302   0.122  11.982  0.0787  0.0066 -0.1031
31565W        W47826   2.294   0.896  15.856 -0.2652  0.3433 -0.0813
31566W        W47827   1.813   1.138   0.186 -0.0987 -0.0520 -0.0029
31567W        W47828  14.721  15.784   0.621  0.1231 -0.1026  0.0918
31568W        W47829  13.340   8.305   2.291 -0.0198  0.1606 -0.0008
31569W        W47830  13.547   4.376  11.475 -0.0445  0.1097  0.2979
31570W        W47831  11.328  12.279  12.489  0.1463 -0.2136 -0.1406
31571W        W47832  10.515   5.311  13.214 -0.0608  0.4474 -0.3625
31572W        W47833   7.210  13.218   0.494 -0.0116  0.2193 -0.0376
31573W        W47834   0.446   9.719   6.187  0.2242  0.3106 -0.2780
31574W        W47835  16.814  13.764   0.640 -0.5072 -0.1330 -0.4346
31575W        W47836   3.219   1.418  11.977 -0.1183  0.2546  0.2307
31576W        W47837   0.558   0.800   2.497  0.1361  0.0390  0.2573
31577W        W47838  13.055  13.900  15.983  0.1211 -0.3855 -0.0767
31578W        W47839  10.720  15.592  15.319 -0.0381 -0.0193 -0.0774
31579W        W47840  10.678  12.083  12.359 -0.0241  0.0909  0.3671
31580W        W47841   1.065   5.549   2.404 -0.0057  0.0103  0.0112
31581W        W47842   3.895   1.974   1.513  0.0247 -0.0618 -0.0299
31582W        W47843   3.080  16.975   4.912 -0.0555 -0.0481 -0.3033
31583W        W47844   9.970  18.364   5.734  0.0548 -0.1604  0.0962
31584W        W47845  18.339   0.712  12.326 -0.3669 -0.0600  0.0616
31585W        W47846  11.653   7.898  11.518 -0.2698  0.3612  0.2798
31586W        W47847   9.556  14.462   1.516 -0.0966  0.0437  0.0953
31587W        W47848   3.838   6.163   3.593  0.1594  0.0058 -0.1046
31588W        W47849  17.024  13.581  13.532 -0.3582  0.1329  0.0382
31589W        W47850   1.619  17.485  11.365 -0.1091  0.0985 -0.1945
31590W        W47851   1.420   6.978  15.908 -0.1704 -0.0469 -0.1702
31591W        W47852   0.946  15.424   0.943 -0.0081  0.0661  0.5059
31592W        W47853  11.793  11.561   1.476  0.0971  0.3890  0.0143
31593W        W47854   5.281  15.473  12.320 -0.1188 -0.3299  0.0495
31594W        W47855  17.398   3.724   3.507  0.0378 -0.0584  0.1914
31595W        W47856   0.989   0.399  11.440  0.0331  0.3876 -0.2437
31596W        W47857  11.439  16.577   4.424 -0.2457  0.0797  0.1566
31597W        W47858   3.179  14.756  11.698 -0.1644 -0.0270 -0.1843
31598W        W47859   8.364  17.693   4.405 -0.0036 -0.1726  0.0633
31599W        W47860   2.299   9.525  10.175  0.0989 -0.2029 -0.1373
31600W        W47861   2.356  15.980   2.617  0.1196  0.3507  0.3630
31601W        W47862  11.405  16.752   4.978  0.1184  0.0511 -0.0180
31602W        W47863   9.319  12.663  15.457  0.4071  0.0813 -0.3955
31603W        W47864   0.910  16.031  11.249  0.0029  0.1804 -0.0750
31604W        W47865   0.258  17.251   0.658 -0.3819 -0.2274  0.1603
31605W        W47866  15.476  12.788   3.479  0.0466  0.0637 -0.1527
31606W        W47867  11.686  11.140  15.221 -0.2538  0.0473  0.2164
31607W        W47868   7.018   3.743   0.949  0.0139  0.1197  0.1268
31608W        W47869  10.217  14.248   1.738  0.0916  0.1453 -0.2678
31609W        W47870   9.038   8.342  13.542  0.0138  0.0179  0.1172
31610W        W47871  15.536  14.388   2.140  0.2454  0.3147  0.0562
31611W        W47872  17.640  11.779  13.915  0.1118 -0.2646  0.3128
31612W        W47873  12.974   8.792  11.769  0.2338  0.1060  0.2728
31613W        W47874   9.275   9.834   5.032 -0.2026  0.2019 -0.0371
31614W        W47875   3.455  12.051   2.101  0.1327  0.3231 -0.0727
31615W        W47876   5.303   5.604  13.663 -0.1380 -0.2101  0.0883
31616W        W47877  16.969   5.867   1.356 -0.2893 -0.0827 -0.1443
31617W        W47878  15.767   4.864  14.334  0.4029  0.2722 -0.1975
31618W        W47879   9.904  14.950   2.160  0.0142 -0.2345 -0.0224
31619W        W47880   8.939  11.849   2.868 -0.2925 -0.1059 -0.0928
31620W        W47881   5.661   0.989  12.897 -0.1912  0.1542  0.3151
31621W        W47882   6.002   0.546   2.117  0.2507  0.1373 -0.2286
31622W        W47883  10.633   7.198   3.215  0.1124 -0.1211 -0.0434
31623W        W47884   3.143   6.577  13.406  0.2147 -0.1444 -0.0851
31624W        W47885   7.644  11.087  12.987 -0.1873 -0.0666  0.2434
31625W        W47886   5.442   8.109  12.788 -0.0522  0.2033  0.1947
31626W        W47887  12.831  12.726   4.749 -0.1192  0.0125  0.1953
31627W        W47888   7.399  17.033   0.290 -0.0365 -0.0102  0.1186
31628W        W47889   6.802   7.823  13.450 -0.0930  0.0013  0.0655
31629W        W47890  10.260  12.020  15.520 -0.3470  0.2278  0.0592
31630W        W47891  15.707  10.368  12.510 -0.2124  0.0634  0.4106
31631W        W47892   1.339   7.854   0.013 -0.1222 -0.0743  0.0536
31632W        W47893   8.032  11.733   5.063  0.6002  0.1212 -0.0906
31633W        W47894   3.543   3.130   3.295 -0.1895 -0.1733 -0.1528
31634W        W47895   2.598  11.109  11.539 -0.0006 -0.1296  0.0824
31635W        W47896  16.572   1.672   6.042  0.0440  0.1780  0.0858
31636W        W47897   8.560  11.959   1.707 -0.1671  0.0007  0.3492
31637W        W47898   6.165   4.036  13.434 -0.2204 -0.0456 -0.1971
31638W        W47899   7.611   1.448   4.996 -0.0046 -0.1195  0.3557
31639W        W47900  17.387  15.301   2.412  0.2032 -0.3090  0.1314
31640W        W47901  17.278   6.195  14.418  0.2022  0.1908 -0.2555
31641W        W47902  12.375  12.697  12.242  0.0220  0.0985  0.1239
31642W        W47903  16.701   7.975  11.669 -0.3861 -0.2923 -0.2767
31643W        W47904  16.440   5.312  11.544  0.3982  0.4100  0.1210
31644W        W47905  17.016   4.612   4.439  0.1035 -0.0727  0.1584
31645W        W47906   1.002   0.716   2.260 -0.2294  0.2396 -0.0771
31646W        W47907   0.434  12.545  12.723  0.2361  0.4936  0.3052
31647W        W47908  14.841   3.777  11.444  0.1739 -0.0891  0.0438
31648W        W47909   9.341   2.825  13.793 -0.0279  0.2889  0.1992
31649W        W47910   5.122  10.070   1.267 -0.0607  0.1444  0.1257
31650W        W47911   3.511   1.374   5.372  0.0876  0.0032 -0.1206
31651W        W47912  12.323   3.918   6.172  0.1534  0.1107 -0.3672
31652W        W47913  12.096   3.531   3.994  0.1543  0.2110 -0.1920
31653W        W47914   1.951   6.074  13.625  0.2909 -0.0891 -0.4220
31654W        W47915   0.807   9.609  13.571  0.0263 -0.2125 -0.0584
31655W        W47916   9.797  13.911   5.206  0.3072  0.1836 -0.2609
31656W        W47917  11.976  13.997   3.239  0.3472 -0.0446 -0.3423
31657W        W47918   9.280   2.295   2.574  0.1222 -0.0358 -0.2881
31658W        W47919  17.528   2.272  12.516  0.0416  0.0834 -0.2167
31659W        W47920   9.855  11.666   2.940  0.1853  0.2372  0.1755
31660W        W47921   0.619   4.533  13.808 -0.1072  0.1302 -0.1260
31661W        W47922   5.364   0.614   2.066 -0.1154 -0.3400 -0.0659
31662W        W47923   5.177   5.558   2.416  0.0718  0.0317 -0.0037
31663W        W47924   2.227   4.456   4.649 -0.1260  0.0513 -0.3278
31664W        W47925   7.110   4.501   1.624  0.0828 -0.1234 -0.1710
31665W        W47926   7.776   2.382  16.035 -0.1334 -0.2960 -0.0905
31666W        W47927   6.899  10.782  12.421 -0.1308  0.1344  0.2639
31667W        W47928  16.861  13.706  15.858 -0.0902  0.1168  0.1469
31668W        W47929   0.319   1.355  11.421  0.0269  0.1771 -0.1414
31669W        W47930   7.122  16.573  14.669  0.4103 -0.2452  0.0358
31670W        W47931  18.037   4.435  13.731 -0.1766  0.0846  0.0253
31671W        W47932   3.034  14.563  15.611  0.2168 -0.2076 -0.1580
31672W        W47933   6.695   9.384  11.816  0.0218  0.0148 -0.0814
31673W        W47934   4.732   9.122   4.034  0.0872  0.0496  0.1905
31674W        W47935   3.372  11.033  11.760  0.2864 -0.1135  0.2274
31675W        W47936   3.102  10.596  16.116 -0.1430  0.0683  0.0791
31676W        W47937  10.920  10.495   0.087  0.4449 -0.2562  0.0494
31677W        W47938   2.596   4.209  14.580 -0.2473 -0.0688 -0.0023
31678W        W47939   8.444   5.430   5.893 -0.3434  0.1348 -0.1744
31679W        W47940  13.202  10.803   2.628 -0.1887 -0.0171  0.0506
31680W        W47941  16.413   0.645  14.820  0.0525  0.3788  0.1067
31681W        W47942  18.338   8.728   0.855  0.1409 -0.2128  0.1537
31682W        W47943   9.491  14.752   1.961 -0.1470 -0.0688  0.0911
31683W        W47944   2.359   3.770  12.436 -0.1604  0.1143  0.0687
31684W        W47945   9.294  10.027  14.355 -0.1472  0.1978 -0.1474
31685W        W47946  11.716   8.869   5.760 -0.1622 -0.1037  0.0999
31686W        W47947  15.435   2.334   4.883  0.0963  0.1641 -0.1646
31687W        W47948   6.782   9.513  14.968 -0.1610 -0.1037 -0.0906
31688W        W47949   1.673  12.617  15.349 -0.2924 -0.0411 -0.0775
31689W        W47950   3.054   9.390   0.512 -0.1074  0.0521 -0.0720
31690W        W47951   9.926   8.648   1.762 -0.2177 -0.1612 -0.0904
31691W        W47952  10.677   5.930   5.476  0.1192 -0.0145 -0.0643
31692W        W47953  14.026  15.842   0.999 -0.0223  0.0406 -0.0899
31693W        W47954   4.831   9.373   2.009 -0.1732  0.2179 -0.4171
31694W        W47955  18.224   2.010   0.323 -0.0964  0.0014 -0.1448
31695W        W47956  16.617   3.546  12.075 -0.1099 -0.1947  0.2199
31696W        W47957   8.292  12.629   3.986 -0.0395 -0.3148  0.1404
31697W        W47958  11.548   7.428  11.372  0.1053 -0.1542  0.4199
31698W        W47959   4.371  14.168  11.158 -0.0245  0.1387  0.3541
31699W        W47960   7.205  17.786   1.632  0.0540  0.0830  0.1087
31700W        W47961  16.826   3.063  13.393  0.1104 -0.1940 -0.0458
31701W        W47962  12.521   5.277   4.236  0.0547 -0.2626  0.1459
31702W        W47963   9.658  10.152  11.121 -0.1802 -0.1045  0.0876
31703W        W47964   1.760   0.285   5.216 -0.1902  0.0479 -0.1548
31704W        W47965   3.285   5.445   4.446 -0.0202 -0.2090  0.0511
31705W        W47966  15.238  18.055  13.729  0.1981  0.1048 -0.0038
31706W        W47967  18.019   9.063  12.076  0.3973 -0.1420 -0.1039
31707W        W47968  11.361  18.123   2.232  0.1630  0.3173 -0.2962
31708W        W47969  13.814  11.298   4.053 -0.1191 -0.3395 -0.0763
31709W        W47970  15.510  10.090  12.997 -0.2044 -0.0444  0.0925
31710W        W47971   5.361  10.514   1.257  0.1623  0.1994  0.0687
31711W        W47972  14.556   1.719  11.329 -0.2905  0.3783 -0.0957
31712W        W47973   5.024   7.925   4.964 -0.1575 -0.0081 -0.0554
31713W        W47974   1.343   9.482  14.476  0.1352 -0.2125 -0.0133
31714W        W47975  14.012  15.440   3.025 -0.3909 -0.0891  0.1375
31715W        W47976   6.390  11.448   2.973 -0.0603  0.1323  0.1612
31716W        W47977   7.789  14.451  14.990  0.0650  0.2585 -0.1790
31717W        W47978  17.316   4.273  15.227 -0.0526  0.1638  0.1235
31718W        W47979   5.173   3.917   5.451 -0.0350  0.0671  0.0517
31719W        W47980  15.436   6.149  15.094 -0.0370 -0.0327 -0.0378
31720W        W47981   1.106   3.102  11.921  0.2594  0.2072  0.2412
31721W        W47982  14.661   1.123   3.691  0.0436  0.0258 -0.1432
31722W        W47983   4.274   4.817  12.877  0.0025  0.1061 -0.3676
31723W        W47984   3.762  17.471   3.732 -0.0294 -0.2186  0.2232
31724W        W47985  11.457  14.999  13.868 -0.2143 -0.1957 -0.1389
31725W        W47986   4.541   9.506   5.441  0.0654 -0.1002 -0.0956
31726W        W47987  15.105   5.954   0.988  0.1755 -0.1258  0.2537
31727W        W47988   3.182   3.154   1.807 -0.1368 -0.3152 -0.1171
31728W        W47989  18.083   4.737   1.974 -0.3399  0.1012 -0.3509
31729W        W47990   8.562   3.128   3.630  0.0481 -0.2551 -0.2188
31730W        W47991  11.603   8.940   1.829 -0.2448  0.0770 -0.1963
31731W        W47992   4.851   3.033   2.618 -0.1250 -0.2289  0.0700
31732W        W47993  14.886  17.062  15.697 -0.2874  0.2287  0.0478
31733W        W47994   3.111  12.482  14.253  0.1779  0.0100  0.1237
31734W        W47995   5.759  10.409  11.745 -0.1454  0.1893 -0.4340
31735W        W47996   7.554   8.082  12.011  0.2011  0.2102 -0.0886
31736W        W47997  11.216  15.785   2.069  0.0201  0.0126  0.4632
31737W        W47998   8.761  12.443   1.611 -0.1265 -0.1216 -0.0124
31738W        W47999  10.983   4.096  15.860 -0.0396  0.2752 -0.0144
31739W        W48000   0.974  18.420   0.531  0.3146 -0.0055 -0.0559
31740W        W48001  17.034  10.271  11.803 -0.0124  0.0541 -0.1645
31741W        W48002   3.045   0.819  12.995 -0.0520  0.2545  0.1011
31742W        W48003  15.253  18.331   1.061  0.1939 -0.0692 -0.0458
31743W        W48004  14.761   1.450  11.718 -0.0293  0.0209 -0.0740
31744W        W48005   4.660  10.111   3.916  0.0501 -0.0422  0.1591
31745W        W48006   8.303   8.965  14.366  0.0599 -0.0684 -0.0695
31746W        W48007  16.796   2.772   4.223  0.1674  0.1463  0.0637
31747W        W48008   3.291  16.524   1.960  0.1956 -0.1857 -0.0136
31748W        W48009  13.083  10.902  12.898  0.0692 -0.0250 -0.1395
31749W        W48010  12.088  12.578  15.416 -0.0591 -0.1833  0.1067
31750W        W48011   1.679   3.573   3.648  0.1193 -0.0825  0.0707
31751W        W48012   5.032  15.367  13.344 -0.1622  0.0076 -0.3876
31752W        W48013  10.044   3.605  13.252  0.3167 -0.1011  0.3857
31753W        W48014   2.573   7.090   4.040  0.0496  0.0764 -0.0808
31754W        W48015   8.919  18.442   3.912  0.1162  0.0955 -0.0248
31755W        W48016  13.886   7.256  14.203 -0.2247  0.1331  0.1404
31756W        W48017  11.503   7.090   2.888 -0.1378 -0.1078 -0.0598
31757W        W48018   4.523   5.348   4.660 -0.0164  0.1671  0.0250
31758W        W48019  14.294  11.061  11.359 -0.1366  0.2582 -0.0322
31759W        W48020   5.922  11.434   3.262 -0.3328 -0.1232  0.0193
31760W        W48021   9.271   9.328  13.043  0.1477  0.1839 -0.1068
31761W        W48022  10.234  10.071  14.539 -0.1846 -0.2791  0.2455
31762W        W48023   6.070   7.977   4.860 -0.0762  0.0937 -0.0499
31763W        W48024  14.735   2.567  12.950  0.0522 -0.2809  0.1317
31764W        W48025  17.613   1.309   3.189  0.0758 -0.5191  0.0119
31765W        W48026   7.443  12.941   0.800  0.1415 -0.0712  0.0109
31766W        W48027  12.792  17.328  12.589 -0.0395  0.2433  0.3684
31767W        W48028  17.486  14.327   5.276 -0.2505  0.0120  0.1792
31768W        W48029  13.696   6.369  14.594 -0.2818  0.0355  0.4220
31769W        W48030  11.315   1.165   2.482  0.0576 -0.0981  0.1674
31770W        W48031   3.043   3.229   3.408 -0.2694 -0.3556  0.0731
31771W        W48032  10.843  15.636  14.795  0.0011  0.4860 -0.2731
31772W        W48033   1.087  18.153  12.583  0.0759  0.3255 -0.1251
31773W        W48034   6.895  14.459  14.711 -0.0123  0.0656  0.2758
31774W        W48035   0.239   6.048  11.929 -0.1912 -0.0896  0.1791
31775W        W48036  10.215   7.895   1.222  0.1919 -0.0973  0.3362
31776W        W48037   6.163   1.334   5.604 -0.2197  0.1948 -0.5252
31777W        W48038  12.374   2.494  12.280 -0.3603 -0.1621 -0.0684
31778W        W48039  12.714  13.828  13.948 -0.0664 -0.4118 -0.2698
31779W        W48040  11.348   8.472  12.273  0.2591 -0.1382  0.0703
31780W        W48041  16.882  18.484  11.578  0.0750 -0.2413 -0.1514
31781W        W48042   5.779  18.287   2.838  0.2311 -0.0850  0.0164
31782W        W48043  18.461   3.184  10.281  0.0426 -0.1271 -0.2157
31783W        W48044  12.986  10.881   0.718 -0.1773  0.0441 -0.0633
31784W        W48045  16.913  11.622  15.352  0.0084  0.1282  0.2203
31785W        W48046  17.894  16.647   0.205 -0.1507  0.2511 -0.3511
31786W        W48047   3.757  12.188  15.541 -0.0414  0.1655 -0.3234
31787W        W48048   8.231   1.198  14.145  0.2359  0.0186 -0.0731
31788W        W48049  15.844  16.128  12.982  0.0788 -0.0018 -0.1507
31789W        W48050  15.417   8.425   0.598  0.1536  0.2449  0.0099
31790W        W48051   1.520  10.534  11.550 -0.0178  0.2305  0.3513
31791W        W48052   9.781  12.827   1.608  0.1492  0.1888 -0.1193
31792W        W48053  10.025  15.512  11.930  0.2384  0.1406  0.0259
31793W        W48054  12.577   9.179  16.078 -0.2959  0.1599 -0.0466
31794W        W48055   8.448  18.290   4.164  0.1454  0.2688 -0.0089
31795W        W48056   5.114   4.208   2.575  0.1222 -0.3911  0.0212
31796W        W48057  15.152   1.469   2.369 -0.0147 -0.0687  0.0332
31797W        W48058   6.777   4.123   1.857 -0.1245 -0.0280 -0.2132
31798W        W48059  12.973   5.752  12.153  0.2293  0.4686  0.0535
31799W        W48060   5.385   4.750  14.318 -0.0226 -0.0754  0.1115
31800W        W48061  10.236  10.354  11.742 -0.1210 -0.0783  0.0924
31801W        W48062  16.836   0.998  13.105  0.0354 -0.0810 -0.1755
31802W        W48063  11.698  16.831   3.537 -0.1366  0.0501 -0.2958
31803W        W48064  16.351   0.519   3.914  0.0169  0.0930 -0.2175
31804W        W48065   9.057  12.922  12.278 -0.0676 -0.2893 -0.0324
31805W        W48066  10.182  11.203   3.038  0.1539 -0.0662 -0.1154
31806W        W48067   1.165   7.938  15.452 -0.1431 -0.1451 -0.0901
31807W        W48068   1.526   1.001  12.206  0.1070 -0.1022 -0.0855
31808W        W48069   2.921  17.050  13.677 -0.0736  0.1395 -0.1448
31809W        W48070   6.397   9.176  12.326  0.1446 -0.2062  0.3142
31810W        W48071   6.254  16.000  11.942 -0.2322  0.2277  0.0310
31811W        W48072  13.461  13.041  14.768 -0.1417  0.0307  0.0242
31812W        W48073  10.527   0.822   3.348  0.3271 -0.1676  0.1617
31813W        W48074   7.310   1.569  15.044  0.0000 -0.1193 -0.0635
31814W        W48075   1.887  12.947   1.279 -0.1788  0.1653  0.1140
31815W        W48076  14.072  17.551   1.182 -0.0571 -0.2403 -0.2296
31816W        W48077   0.800   3.946  14.364  0.0608 -0.0437  0.2035
31817W        W48078  11.058  16.023  11.192  0.0885  0.0288 -0.1859
31818W        W48079   7.620  11.951   4.616  0.2311 -0.3980  0.1660
31819W        W48080   3.693  15.834  11.135  0.1151  0.0837 -0.1554
31820W        W48081  10.706   7.820   0.988 -0.2284  0.1522  0.0688
31821W        W48082  13.776   3.640   2.215  0.0090  0.2989  0.1727
31822W        W48083  16.085   7.008   4.349 -0.0060 -0.3027 -0.3278
31823W        W48084   1.406  15.519  11.761  0.0474  0.0070 -0.0302
31824W        W48085  17.957  18.158  10.434 -0.2405 -0.1504 -0.1085
31825W        W48086  11.035   8.174   0.825 -0.0122  0.2169  0.0048
31826W        W48087   8.676  14.953   2.558  0.1599  0.1325 -0.1275
31827W        W48088   4.612  15.156   0.914 -0.0199 -0.1959 -0.2406
31828W        W48089  12.280   7.629   0.073 -0.3095 -0.0718  0.0931
31829W        W48090  14.176  12.648  13.577  0.2487  0.1929 -0.1038
31830W        W48091   2.310   6.581   0.995  0.3047 -0.1006  0.0069
31831W        W48092   6.127   3.421  14.584  0.1607 -0.0423  0.1387
31832W        W48093   5.120   4.165   0.094 -0.1511 -0.0077 -0.1833
31833W        W48094  16.088   2.650   0.562  0.0642  0.3787 -0.0302
31834W        W48095   0.311   7.164   2.780  0.0346  0.0834  0.2206
31835W        W48096  17.659   0.889  14.682  0.1848 -0.0450  0.0691
31836W        W48097   7.062   7.954  15.441  0.0186  0.1012  0.0666
31837W        W48098  16.674  14.820  11.247 -0.0620  0.0840  0.1466
31838W        W48099  17.326   8.892  14.602 -0.0820  0.3922  0.0468
31839W        W48100   2.694   0.011   3.034 -0.1010  0.0966  0.1231
31840W        W48101  10.180  17.749  15.111 -0.0449  0.0045 -0.2315
31841W        W48102  15.612   6.706  10.620  0.1079  0.1888 -0.3152
31842W        W48103   9.393   3.183   4.347 -0.0971 -0.1544  0.0576
31843W        W48104  17.475   3.519   5.316  0.0936  0.0947 -0.2730
31844W        W48105   6.456  12.458  14.478  0.2374 -0.1013  0.4607
31845W        W48106   7.402   1.102   5.425 -0.4233  0.1494  0.0173
31846W        W48107  17.507  18.157   4.951 -0.0580 -0.1038  0.3348
31847W        W48108   4.282   0.963  13.176 -0.0225  0.2103  0.1276
31848W        W48109  13.602  10.159   1.950 -0.1094 -0.4360  0.1604
31849W        W48110  16.189  16.233   2.699  0.0201 -0.2513 -0.2965
31850W        W48111  12.068  10.031   3.289  0.2206 -0.1104 -0.6282
31851W        W48112   5.009  13.979   4.343 -0.1807  0.0910 -0.1280
31852W        W48113  13.522  13.465   1.762 -0.0069 -0.2890  0.2156
31853W        W48114  10.907   5.826   0.672  0.1428 -0.1520  0.0350
31854W        W48115   2.575   1.326  12.413  0.1946 -0.1384 -0.1562
31855W        W48116   3.280   5.294  15.948 -0.1523  0.1976  0.5318
31856W        W48117  14.962  13.537   3.076  0.1293  0.1854 -0.1092
31857W        W48118   5.561  10.675   5.662 -0.0499  0.0043  0.0506
31858W        W48119   2.060   9.286  11.467  0.0112 -0.0507 -0.0427
31859W        W48120   1.565  10.747  14.823 -0.2295 -0.0269 -0.1611
31860W        W48121  10.677  17.047  12.109  0.0332  0.0364 -0.1561
31861W        W48122   5.724  11.807   0.320 -0.0671 -0.1600  0.2446
31862W        W48123   1.632   5.670  15.335 -0.1459  0.2258  0.0879
31863W        W48124  17.504  10.656   1.150  0.0534  0.1960  0.1389
31864W        W48125   8.453  10.725  15.752 -0.1206 -0.1726 -0.1588
31865W        W48126   3.229   3.263   4.233  0.0094  0.0326  0.2016
31866W        W48127   3.000  11.153  14.560  0.1674 -0.1105  0.1334
31867W        W48128  14.866   6.916   3.672  0.0830 -0.2264 -0.0251
31868W        W48129   2.614  16.155  16.062  0.0368  0.3410  0.0429
31869W        W48130  13.650  17.811  11.782  0.1845 -0.2204 -0.1996
31870W        W48131   1.864   8.680   3.791  0.0674  0.1463 -0.1014
31871W        W48132  18.069  12.612   2.772  0.0022 -0.1964 -0.2215
31872W        W48133   1.622   2.572   2.182  0.1600  0.0798  0.2103
31873W        W48134  17.583  17.272   0.933  0.1111 -0.2537 -0.1290
31874W        W48135   1.771   6.837   5.858 -0.0906  0.0519 -0.2139
31875W        W48136   0.112  17.686   2.508 -0.0464  0.0488 -0.2410
31876W        W48137   8.499   4.984   4.432  0.2107 -0.1183  0.1960
31877W        W48138   7.372  10.510  12.470  0.0414 -0.0897 -0.3817
31878W        W48139  17.341  15.233   1.577 -0.1972 -0.1898  0.1352
31879W        W48140  14.713  10.354   0.162  0.0028 -0.1982  0.0917
31880W        W48141   4.278  16.046  11.584 -0.1716 -0.0805  0.0834
31881W        W48142   7.496  12.769  15.903 -0.0040  0.2099 -0.1221
31882W        W48143   3.057  17.202   5.417 -0.3336  0.0402 -0.1325
31883W        W48144   0.873  14.954  12.587  0.2794  0.0697 -0.2407
31884W        W48145   8.330   7.423  14.251  0.0958 -0.0297  0.0777
31885W        W48146   8.540   1.366   0.347  0.2922 -0.2498  0.0392
31886W        W48147   9.386   7.330   5.199 -0.1234 -0.0797  0.1749
31887W        W48148  11.761  16.054  15.146  0.2304  0.0047 -0.2255
31888W        W48149   3.227   7.810  16.003  0.1395  0.2797  0.3109
31889W        W48150   0.653   3.898   2.840  0.0276  0.1086 -0.1003
31890W        W48151  13.948   2.458   3.037 -0.0701  0.0247 -0.1923
31891W        W48152   1.892  11.024   1.132 -0.0960  0.3175 -0.2244
31892W        W48153  12.293   5.194   1.548 -0.0465  0.1281  0.1696
31893W        W48154  12.269  16.924   0.686  0.0196 -0.1835 -0.1226
31894W        W48155   9.346   8.266  15.408 -0.0796  0.0218  0.3921
31895W        W48156   5.370   1.415  14.605  0.1446 -0.0641 -0.1757
31896W        W48157  12.384   9.791  13.538  0.1589  0.0390  0.1149
31897W        W48158   9.646  18.378   5.340  0.0780 -0.0277  0.1257
31898W        W48159  17.743  13.275  11.766 -0.0346  0.1642  0.0105
31899W        W48160   7.788  11.958   2.251 -0.0704 -0.0426  0.0265
31900W        W48161   8.475  17.368   2.300 -0.2758  0.2178  0.0785
31901W        W48162   1.757  15.668  13.576 -0.2225  0.0369 -0.3304
31902W        W48163   9.340  11.822   3.177 -0.3210  0.3151  0.2267
31903W        W48164  10.237   3.775   1.332  0.0927 -0.1566  0.0783
31904W        W48165   2.035  11.683   3.093  0.0137  0.0681 -0.1895
31905W        W48166   0.152   4.336  15.410  0.0529  0.2685  0.2620
31906W        W48167  15.083  12.205  15.099  0.0473  0.2891  0.1911
31907W        W48168  17.736   1.885  13.070  0.1877  0.0233 -0.0542
31908W        W48169  11.888   9.041  13.227 -0.1752 -0.0852 -0.4688
31909W        W48170  14.825   3.118  14.971 -0.1843  0.1143  0.1051
31910W        W48171  15.521  16.940   2.427 -0.0045 -0.0317  0.0144
31911W        W48172   3.819  16.549   5.497  0.0068 -0.2088  0.0677
31912W        W48173   4.523   7.437  14.746 -0.0133 -0.0005  0.2259
31913W        W48174   6.990   4.158  12.941  0.0636 -0.2699  0.0003
31914W        W48175   2.328   0.504  12.614 -0.3047 -0.0472 -0.0391
31915W        W48176  12.203   9.062   0.231 -0.3397 -0.1470  0.0703
31916W        W48177   5.486  17.651   6.227 -0.1610  0.2222  0.1580
31917W        W48178  13.845   2.929  13.872 -0.0687 -0.2277  0.2494
31918W        W48179   9.244   5.177  12.306  0.3118  0.2174 -0.0049
31919W        W48180   6.132   5.066  13.691  0.0518  0.0871  0.2631
31920W        W48181   1.240  17.935   0.441  0.1124 -0.0573 -0.1762
31921W        W48182   6.312  11.582   1.294 -0.1322 -0.0297 -0.0964
31922W        W48183   5.478  12.515   1.548  0.2087  0.2899  0.0214
31923W        W48184   7.555   8.790   4.068 -0.1964 -0.0338 -0.0446
31924W        W48185   6.811   1.734   3.529 -0.3637 -0.3191  0.0752
31925W        W48186   6.366   3.666  11.772  0.0659  0.1631  0.0213
31926W        W48187   3.752   8.343   2.718  0.4112  0.0361  0.1314
31927W        W48188  16.495  13.208   4.792 -0.1553 -0.0384 -0.2080
31928W        W48189  14.947   8.286  11.208 -0.3336  0.2956 -0.1540
31929W        W48190   5.171   6.885   0.780 -0.4945  0.1135 -0.2110
31930W        W48191   2.993  17.372   1.760  0.1179  0.1068  0.1756
31931W        W48192   0.391   4.651   1.647  0.0852  0.0395  0.1177
31932W        W48193   8.336  11.217  15.797 -0.1218  0.2402 -0.1608
31933W        W48194   9.773   9.259   2.355 -0.1136 -0.1938  0.3674
31934W        W48195   8.134   3.629  14.607 -0.0472 -0.0835  0.2192
31935W        W48196   8.669  18.437   1.504  0.3897  0.0370 -0.0810
31936W        W48197  14.216   4.695  11.575 -0.0253  0.1272 -0.0191
31937W        W48198   9.612   5.589   2.227  0.0346 -0.2781 -0.1390
31938W        W48199  18.255  12.904   2.391  0.4889 -0.1905 -0.0098
31939W        W48200  15.546   1.439  16.023 -0.1732  0.3112 -0.1086
31940W        W48201  13.178   5.293   2.715  0.0323 -0.1268 -0.0855
31941W        W48202  11.356   7.516   5.801 -0.0127 -0.1489 -0.2528
31942W        W48203   5.653  17.889  11.590 -0.0730  0.0801  0.0278
31943W        W48204  10.503  13.856   2.012 -0.1388  0.3874 -0.0147
31944W        W48205   3.983  16.266   3.696 -0.1342  0.2271 -0.0583
31945W        W48206   8.212   5.133   5.378 -0.0568  0.0904 -0.0508
31946W        W48207  16.132   9.004  14.347 -0.0882  0.3109  0.1465
31947W        W48208  10.566   4.683  15.467  0.0391 -0.2747  0.0813
31948W        W48209   2.476  10.149  15.818  0.0915 -0.1952 -0.2086
31949W        W48210   9.964  11.038  10.770  0.4293  0.0588  0.0245
31950W        W48211   9.334   8.251   0.102 -0.1389  0.0216 -0.1613
31951W        W48212  14.704   0.184  10.372 -0.1365 -0.0808  0.4434
31952W        W48213  11.830   1.807  11.004  0.1792  0.3625  0.0274
31953W        W48214   8.217  15.131   2.603  0.1023 -0.0964  0.0979
31954W        W48215  14.893   9.989   2.995 -0.1933  0.0031  0.2150
31955W        W48216  17.196  11.247   3.268  0.0081 -0.0505  0.2492
31956W        W48217   9.302   9.097  10.786 -0.0466 -0.0513  0.2361
31957W        W48218  16.820   3.012  14.576  0.0273  0.2640 -0.0065
31958W        W48219   1.838   7.251   3.582 -0.3615 -0.1061  0.2016
31959W        W48220   5.530  13.158  15.053  0.0847 -0.2771  0.2842
31960W        W48221   4.286   0.683  12.749 -0.3575  0.2998  0.1463
31961W        W48222  15.080  13.928  15.210 -0.0094  0.0413 -0.2674
31962W        W48223  11.215   0.475   3.729  0.1307 -0.0775  0.1292
31963W        W48224   8.091   1.591  13.444  0.1130 -0.1348 -0.0599
31964W        W48225   5.634  18.448  16.133  0.1351 -0.0684  0.0992
31965W        W48226  13.061   9.780  11.714  0.0900 -0.0386  0.1082
31966W        W48227  16.998  17.312  16.089  0.1741  0.2367  0.1112
31967W        W48228   6.564   6.201  12.593 -0.2221 -0.0003  0.0440
31968W        W48229  12.535   7.702   1.695  0.0440  0.1988  0.0015
31969W        W48230  10.411   7.506  15.473 -0.0252 -0.0067 -0.0553
31970W        W48231  15.563  16.607   1.711 -0.3818  0.0116 -0.3825
31971W        W48232  17.661   8.951   4.898  0.2027  0.1915  0.0957
31972W        W48233  18.156   6.061  14.758 -0.2967  0.2829  0.1942
31973W        W48234   8.653   0.864   1.062 -0.0259 -0.0710  0.2132
31974W        W48235  10.344   9.190  12.998  0.3227  0.1133 -0.0366
31975W        W48236   1.258   7.653  12.012 -0.1049  0.2301  0.0518
31976W        W48237   3.097   7.342  14.389 -0.0348 -0.0661  0.0771
31977W        W48238  13.931   1.387   2.813 -0.5107  0.1382 -0.0827
31978W        W48239   1.868   1.352  12.120  0.2556  0.2878  0.2143
31979W        W48240   1.045   7.688  14.771  0.4707 -0.7456 -0.1463
31980W        W48241  16.405  14.223  15.340  0.0771 -0.1903 -0.0830
31981W        W48242  12.461   1.017   0.380  0.3872  0.1596  0.0375
31982W        W48243   8.745  14.731   1.680 -0.2407 -0.0644 -0.3420
31983W        W48244  15.264  11.679  15.910  0.1422  0.4075  0.0269
31984W        W48245  14.711   6.727  12.637  0.0248  0.0875 -0.2073
31985W        W48246   1.702   0.342   4.178 -0.0643 -0.0084 -0.0018
31986W        W48247   6.231   0.116  13.459 -0.0210 -0.3576 -0.1688
31987W        W48248  14.014   0.996   1.774  0.2228 -0.1504 -0.2480
31988W        W48249  16.990   8.269   2.308 -0.0978 -0.2280 -0.0277
31989W        W48250   2.608   7.841   2.890 -0.0859  0.3002  0.0680
31990W        W48251  15.288   7.462  12.945 -0.1050  0.0500 -0.3267
31991W        W48252   3.293  15.728  12.957 -0.1404 -0.0398 -0.0595
31992W        W48253   6.079   8.914   6.605 -0.2476 -0.0846  0.2165
31993W        W48254  17.514   5.150   2.562 -0.4033  0.0038 -0.1643
31994W        W48255  15.549  11.391   4.280 -0.0627 -0.0267  0.1611
31995W        W48256  10.125  13.937   3.408  0.0989 -0.0029 -0.1420
31996W        W48257   0.441   3.838   1.938 -0.1093  0.1154 -0.0166
31997W        W48258  17.323  16.626   1.340 -0.3130 -0.0163  0.1265
31998W        W48259  14.072   6.569  13.079 -0.2575  0.0093 -0.1457
31999W        W48260  12.515  12.021  10.985 -0.0888  0.2662 -0.2915
32000W        W48261  11.158   6.951   5.120 -0.0177 -0.2036 -0.0390
32001W        W48262  18.273   8.376  13.682  0.1724  0.2086 -0.0367
32002W        W48263   9.825   7.213   5.441 -0.2057 -0.0923  0.1238
32003W        W48264  13.169   6.958  14.348  0.1568 -0.1074  0.0421
32004W        W48265  13.279  12.177   2.016 -0.2093  0.2856  0.0634
32005W        W48266   0.785  11.051  11.925 -0.0297  0.0543  0.1970
32006W        W48267   5.029  10.401  15.122 -0.3434  0.0067 -0.0745
32007W        W48268  13.882   3.182  15.907 -0.3150  0.0521 -0.2532
32008W        W48269  12.611  13.798   2.354 -0.1554 -0.0241 -0.2117
32009W        W48270  16.535   1.554  15.990 -0.0626  0.4284  0.0138
32010W        W48271   2.913  15.263   2.891 -0.2269  0.1021 -0.0242
32011W        W48272  14.267  14.669  14.673 -0.1060  0.0824 -0.2740
32012W        W48273  11.730  18.225   4.479  0.3755 -0.0499  0.0955
32013W        W48274  15.158  16.379   3.431 -0.1177 -0.2556  0.0526
32014W        W48275   3.684  14.195  12.140  0.0105 -0.3523 -0.0422
32015W        W48276  17.295   1.948  14.102 -0.5153 -0.0273 -0.2238
32016W        W48277   6.706   1.842  15.110  0.0747 -0.0141 -0.0079
32017W        W48278  14.729  14.606  15.883 -0.0691 -0.0122 -0.3955
32018W        W48279  13.688   0.224  10.485 -0.0514  0.0073 -0.1532
32019W        W48280  16.782   7.523   4.124  0.2065  0.0492  0.0122
32020W        W48281  17.770  13.584  13.018 -0.3190 -0.0583 -0.5088
32021W        W48282  17.415  14.989  15.534  0.0423  0.2210  0.5117
32022W        W48283   6.734  11.874   2.917 -0.4574  0.1923 -0.2126
32023W        W48284  14.940   9.360  15.067  0.0264  0.3354  0.4456
32024W        W48285   9.413   9.936   1.904 -0.1081 -0.1105  0.2598
32025W        W48286  12.586  11.645  14.012  0.0128 -0.0801  0.0199
32026W        W48287   2.993   4.502  15.806  0.1007  0.1580  0.1013
32027W        W48288   7.855   6.992   0.567  0.0131  0.2248  0.3085
32028W        W48289   5.514   6.511   2.726  0.1422 -0.3848  0.2216
32029W        W48290   1.902   5.077  12.148 -0.0009  0.0305 -0.0725
32030W        W48291   2.104   4.605  12.335  0.0337 -0.0145  0.2695
32031W        W48292  10.357   6.214  13.327 -0.0412  0.2267 -0.3688
32032W        W48293  10.999   3.863   5.249  0.3001 -0.0294 -0.3494
32033W        W48294  15.655   0.566  15.509 -0.1050 -0.1890 -0.0995
32034W        W48295  17.384  10.212   4.550  0.1404 -0.2427  0.0698
32035W        W48296   6.808   7.812   0.656  0.3701  0.0100  0.0722
32036W        W48297  16.949  18.388   4.323  0.0034  0.2444  0.1759
32037W        W48298   6.836  18.016   3.763  0.1026 -0.3219  0.1620
32038W        W48299   5.118  14.407   3.834  0.0544 -0.1628  0.2434
32039W        W48300   1.041   6.498   2.351 -0.0797 -0.1400 -0.0612
32040W        W48301  13.963   4.153   0.196  0.2440  0.0260 -0.0416
32041W        W48302   8.608   1.651   1.621 -0.1613 -0.3445  0.1978
32042W        W48303  14.727  14.347  14.595 -0.0549  0.1733 -0.0127
32043W        W48304  15.052  12.349   2.486  0.0874  0.0654  0.0501
32044W        W48305  16.576  16.002  15.755 -0.1108 -0.0748  0.1211
32045W        W48306  10.986  16.034  11.764  0.0425 -0.2272 -0.2088
32046W        W48307  13.405  16.325  14.101 -0.1259  0.0524  0.2558
32047W        W48308  15.509   2.297  13.352 -0.1009  0.2188 -0.3405
32048W        W48309   9.402   0.652  13.038  0.1013 -0.2833  0.1836
32049W        W48310  12.656   5.140  14.362 -0.1364  0.1520  0.1382
32050W        W48311   4.752   0.263   0.854  0.1804 -0.3425  0.1762
32051W        W48312  16.117   0.729   5.180  0.1240 -0.0214 -0.0172
32052W        W48313  14.282  15.478   0.665  0.1328  0.1655  0.0641
32053W        W48314  14.492  17.387   3.812  0.1152 -0.0398  0.1952
32054W        W48315  10.532  17.237  13.019  0.0177  0.0562  0.0821
32055W        W48316   3.900  12.211   1.903 -0.1394  0.0744 -0.0844
32056W        W48317   8.103   6.417   3.535 -0.1756  0.1975 -0.0007
32057W        W48318  11.576   6.196   5.031 -0.1587  0.0502  0.0718
32058W        W48319   1.992  10.802  12.904 -0.2235 -0.1838 -0.0389
32059W        W48320   5.520   8.184   5.415 -0.0029 -0.0395 -0.1510
32060W        W48321   5.956  18.046  16.065 -0.0368 -0.2452  0.1068
32061W        W48322   5.695   9.171  14.579 -0.0467 -0.2428 -0.1280
32062W        W48323  13.507   1.162   3.695 -0.3785  0.3445  0.1782
32063W        W48324  14.488   3.021   0.349 -0.1406  0.4214  0.1818
32064W        W48325  10.846   3.873  15.253 -0.0443  0.0595  0.3158
32065W        W48326   4.250   1.807  15.359  0.3455 -0.0179 -0.1079
32066W        W48327   4.465   9.847   4.396 -0.0929 -0.0073 -0.0799
32067W        W48328  12.880   1.421   1.555 -0.2571  0.1193  0.1855
32068W        W48329  16.017   7.213   0.154 -0.0160 -0.2041 -0.1949
32069W        W48330   3.495   3.434  12.970  0.1186  0.0749 -0.0449
32070W        W48331   5.123   0.202   3.149 -0.0051 -0.0323  0.3514
32071W        W48332   2.640  13.358  11.300  0.3021 -0.0350  0.1991
32072W        W48333   4.816   9.509   4.431 -0.0170 -0.0020 -0.3833
32073W        W48334  13.011   8.643   0.997  0.0530 -0.0841 -0.3430
32074W        W48335  17.509   1.457   0.674  0.2182  0.2915  0.1212
32075W        W48336  14.049  11.370   1.952  0.0874 -0.0402 -0.1265
32076W        W48337   2.724   9.846   5.132  0.1306  0.1569  0.0641
32077W        W48338   3.973   1.928  13.183  0.0319  0.0394 -0.1120
32078W        W48339  17.289   9.568   9.883  0.1363  0.1308 -0.3256
32079W        W48340   1.330  12.645   0.374  0.3946  0.2277 -0.2910
32080W        W48341   3.782  13.462   3.392  0.0075 -0.2266  0.2140
32081W        W48342   7.916   2.774   1.931 -0.0190  0.0453 -0.0214
32082W        W48343   9.686   8.565   0.446 -0.4730  0.1670  0.1529
32083W        W48344  16.791   4.717   0.232  0.0803 -0.1651  0.0176
32084W        W48345  12.659  14.404   5.063 -0.2123  0.2237  0.2513
32085W        W48346   1.909  14.630   3.933 -0.0852  0.3372 -0.0556
32086W        W48347   7.757   6.821  13.135  0.0049 -0.0538 -0.2138
32087W        W48348  17.932   9.160   3.928 -0.1217 -0.1171  0.4250
32088W        W48349   8.363   1.390  15.760 -0.0506 -0.1418  0.1156
32089W        W48350   6.262   9.568  11.346 -0.0018 -0.1935  0.2304
32090W        W48351   4.980  11.402   3.650 -0.0327  0.0607  0.0665
32091W        W48352   4.232   6.283  15.347  0.1631  0.0101 -0.2703
32092W        W48353   6.199   9.250  11.712 -0.0796 -0.2727 -0.0950
32093W        W48354  12.969  14.079  12.625 -0.0984 -0.2542  0.2162
32094W        W48355  10.583   3.245  12.533 -0.2103  0.3275 -0.0264
32095W        W48356  13.424   3.104  15.684  0.0719 -0.0904  0.3133
32096W        W48357   7.670  15.101   6.595 -0.2041 -0.0291 -0.0786
32097W        W48358  15.880   9.648   4.141 -0.0779  0.3509 -0.1956
32098W        W48359  16.118  17.545  14.329 -0.1005  0.2252 -0.0647
32099W        W48360  18.194   1.685  14.252 -0.1775 -0.1310  0.0390
32100W        W48361   3.784   3.262  15.310 -0.1410  0.1068  0.1234
32101W        W48362   6.925  10.605  15.693  0.1836 -0.1903  0.1375
32102W        W48363  16.010   9.984  13.880 -0.2012  0.1024  0.2711
32103W        W48364   8.436  14.099   4.759 -0.2890 -0.1026 -0.0420
32104W        W48365  18.102   5.649   0.751 -0.2805 -0.5370 -0.2690
32105W        W48366   5.502   8.657  11.642 -0.2481  0.2868 -0.2385
32106W        W48367   1.641   5.776   2.048 -0.0079 -0.1884  0.2228
32107W        W48368   0.178   8.049  13.528 -0.0998 -0.1575 -0.0485
32108W        W48369  14.387  15.701   2.093 -0.0394 -0.0851  0.1794
32109W        W48370  11.739  13.718   5.549 -0.1034  0.0403 -0.0411
32110W        W48371   9.963   9.707  10.288 -0.0142  0.1694  0.0632
32111W        W48372   4.958   9.612   5.198 -0.0698 -0.1452 -0.1595
32112W        W48373  10.041  17.641   3.317 -0.4025 -0.0071 -0.1955
32113W        W48374  14.497   5.968   1.346 -0.3289 -0.3211 -0.1105
32114W        W48375  11.732   7.844   0.689  0.3910 -0.1143 -0.1886
32115W        W48376  11.188  16.805   1.167  0.0154  0.2081  0.0880
32116W        W48377   1.830  14.255  14.571 -0.0255 -0.0418 -0.1046
32117W        W48378  16.049  17.449  15.883 -0.0117 -0.1588  0.2419
32118W        W48379   6.666   3.192   5.473  0.2297  0.0740 -0.0272
32119W        W48380   4.051  10.209   0.563  0.0839  0.2001  0.1129
32120W        W48381  10.584   0.148  12.560  0.3846 -0.0262 -0.1487
32121W        W48382  15.428  16.843  12.513 -0.3926 -0.2660 -0.1807
32122W        W48383  17.242   1.586  13.119  0.2855 -0.3926 -0.0509
32123W        W48384   3.141  15.184  14.278 -0.1737  0.2671 -0.0133
32124W        W48385   5.931   9.742  14.478  0.1232  0.2141  0.1958
32125W        W48386  12.285   5.868   0.378  0.2697 -0.3841 -0.0934
32126W        W48387  12.422   6.141   1.723 -0.1123  0.0431  0.1810
32127W        W48388  10.041   8.179   0.368  0.2364  0.0390 -0.3886
32128W        W48389  12.087   1.937   1.793 -0.1890 -0.1871 -0.3115
32129W        W48390  10.973   5.051  16.167 -0.0986 -0.3990 -0.1613
32130W        W48391  14.641   3.747   0.098  0.0078 -0.2394 -0.1498
32131W        W48392  18.106   1.275   2.835 -0.1371  0.2035  0.1114
32132W        W48393   3.510   6.562   6.666  0.2345 -0.2744  0.0563
32133W        W48394   1.559   6.910  12.688  0.0588  0.2888 -0.0599
32134W        W48395   2.347   2.954   6.414  0.0939 -0.0281 -0.0293
32135W        W48396   0.381   9.318  16.183 -0.0534 -0.1813 -0.0221
32136W        W48397   7.024  14.797   0.258  0.0951 -0.0469  0.0709
32137W        W48398  16.821   8.785  14.593  0.2196  0.0596  0.1349
32138W        W48399  13.432   2.146  14.136  0.0161 -0.1629  0.0942
32139W        W48400  12.683   6.207   1.250  0.1179 -0.1004 -0.0704
32140W        W48401   9.650   8.213  13.642 -0.2680 -0.1235 -0.3069
32141W        W48402   8.070   0.966  11.929 -0.4595 -0.3369 -0.0097
32142W        W48403  11.783   7.896   5.627 -0.2222 -0.0558 -0.3615
32143W        W48404  10.209   4.043  13.489  0.0724  0.1406 -0.2290
32144W        W48405   9.090   7.995   2.708  0.0931  0.0597 -0.2275
32145W        W48406   9.628   3.085   1.478 -0.3242  0.2781 -0.1990
32146W        W48407   7.795   1.085  16.144 -0.2970 -0.0186  0.1647
32147W        W48408   3.862   0.873  11.900 -0.3488  0.2396 -0.2345
32148W        W48409  11.180   6.299  16.064  0.1185 -0.0646  0.4500
32149W        W48410  12.755   5.869  11.104  0.0127 -0.0785 -0.4445
32150W        W48411   7.076   3.016   3.061 -0.1240  0.3641  0.2905
32151W        W48412  12.562   1.451   0.601 -0.1466 -0.1217  0.0329
32152W        W48413  13.288   8.801  12.633  0.2156 -0.2261  0.2919
32153W        W48414  13.521   4.257  14.404  0.0038  0.1398 -0.2917
32154W        W48415   9.059  15.068   5.206  0.0895  0.0084  0.1148
32155W        W48416   0.125  16.751  14.630 -0.0780  0.0854 -0.2156
32156W        W48417   1.136  15.256  13.316  0.1973  0.0647 -0.0881
32157W        W48418  16.378   2.036  15.752 -0.3045  0.2802  0.2512
32158W        W48419  14.563  13.341  12.634 -0.0762  0.0714 -0.0928
32159W        W48420  18.235   9.019   3.478  0.4122 -0.2911  0.2933
32160W        W48421   5.576  12.551  14.252 -0.3401 -0.0092  0.3247
32161W        W48422  14.250  11.943   4.937  0.2674 -0.1579 -0.2375
32162W        W48423   9.328  13.435   0.306 -0.1749  0.1475  0.0369
32163W        W48424   2.006   8.719   1.557  0.2519 -0.2602  0.4167
32164W        W48425   8.732   6.351  15.503  0.2307  0.1581 -0.0003
32165W        W48426   0.528  16.827  15.691  0.0683 -0.2524 -0.0404
32166W        W48427  14.183   8.237   3.194 -0.3093 -0.0992  0.2252
32167W        W48428   1.552   8.299   2.302  0.2870  0.1918 -0.0269
32168W        W48429   7.318  12.684   5.818 -0.3639  0.5700  0.3503
32169W        W48430   1.470   1.485   3.305 -0.1392 -0.0384  0.0155
32170W        W48431   4.119   3.922  13.398  0.1343  0.2559  0.0451
32171W        W48432  16.379  17.086  16.067  0.0097  0.1900  0.2235
32172W        W48433   0.645  12.728  12.076  0.0467 -0.2745  0.3365
32173W        W48434  16.834   1.277  12.373  0.0932 -0.0720 -0.2453
32174W        W48435  13.323   8.315  12.946 -0.5037 -0.3404  0.1520
32175W        W48436  17.427   0.203  11.572 -0.3651  0.1381 -0.1019
32176W        W48437   8.499   6.471  14.038 -0.0084 -0.3122  0.1664
32177W        W48438   7.036   2.416  15.528  0.2638  0.3989 -0.0562
32178W        W48439   2.974  16.696   3.103  0.2465 -0.0717 -0.0993
32179W        W48440  12.672   2.225  12.638 -0.2233  0.2124 -0.5185
32180W        W48441  16.429  11.353  15.182 -0.0410  0.0122  0.1332
32181W        W48442   4.609   6.438  14.568 -0.0691 -0.0170 -0.2618
32182W        W48443  12.342  11.824   0.857  0.1904 -0.0277  0.2894
32183W        W48444   7.160   5.206  14.172 -0.1208  0.1877 -0.0447
32184W        W48445   2.922  15.068  15.605  0.0704 -0.2086  0.1692
32185W        W48446   5.949   7.779   1.085  0.2561 -0.2036  0.0763
32186W        W48447   1.059   4.772  12.440  0.1427 -0.1386 -0.1486
32187W        W48448  11.890  15.967   0.268 -0.0870  0.0998  0.1381
32188W        W48449  17.336  13.732  14.404 -0.1155 -0.1209 -0.0579
32189W        W48450   3.020   0.714   0.653 -0.1032  0.0588  0.2518
32190W        W48451  15.204  13.222   3.647  0.1992 -0.0245 -0.2189
32191W        W48452  13.872   2.323  14.310 -0.1365 -0.1409 -0.1026
32192W        W48453  15.176  13.076   3.136  0.1294  0.1835 -0.3041
32193W        W48454  17.887   5.704  13.820 -0.0365  0.0134 -0.2397
32194W        W48455   4.220  16.944  12.305  0.3636 -0.2158  0.2295
32195W        W48456  15.063  14.357  10.505 -0.1074  0.0474 -0.0335
32196W        W48457   2.087   2.522   0.840  0.0664  0.0389  0.0272
32197W        W48458   1.365   9.820   4.753 -0.1001 -0.2929 -0.1452
32198W        W48459   0.370  15.311   4.571 -0.0394 -0.0808  0.2393
32199W        W48460  13.696  14.876  11.964 -0.0504 -0.0506 -0.4027
32200W        W48461  14.400   6.160   3.265  0.0724 -0.1863 -0.0259
32201W        W48462   6.218  15.483  13.696 -0.1883  0.1817 -0.0902
32202W        W48463  17.771   4.195   5.368  0.0321  0.0952  0.1258
32203W        W48464   2.825   7.841   4.791  0.0136 -0.3290 -0.0859
32204W        W48465  17.860   0.267   0.008  0.4944  0.2561 -0.0732
32205W        W48466   4.218  15.868   5.059  0.0064  0.0517 -0.0440
32206W        W48467   7.159  12.748  11.424 -0.1701 -0.0291 -0.2371
32207W        W48468  10.039   3.617   2.375 -0.0624  0.1423  0.0166
32208W        W48469  13.808   8.854  15.504  0.2030 -0.1236  0.3245
32209W        W48470  12.709  18.329  13.962  0.2214 -0.0283 -0.0364
32210W        W48471   1.793   2.236  13.813  0.3005  0.1241 -0.0616
32211W        W48472  16.700   6.401  15.368 -0.3131 -0.3783  0.2213
32212W        W48473  17.508   4.309   1.884 -0.1564 -0.3093  0.0049
32213W        W48474  13.052   1.514   2.405 -0.0252  0.1932 -0.2415
32214W        W48475   8.863   2.799  11.336  0.0860  0.2237  0.2176
32215W        W48476   5.647   0.518  12.523  0.0734  0.0375 -0.2471
32216W        W48477  15.718   0.586   1.034 -0.2113  0.1212 -0.2284
32217W        W48478   7.352  15.992  14.983  0.0055  0.0721  0.1642
32218W        W48479   6.547  18.369   5.322  0.0122  0.0357 -0.1478
32219W        W48480   8.920  12.085  13.153  0.0961  0.1492 -0.1915
32220W        W48481  10.202   5.720  14.003  0.0410 -0.1137  0.1342
32221W        W48482  10.938   7.755   0.368 -0.0382 -0.0033  0.0408
32222W        W48483   5.867   1.844  14.253 -0.1767  0.0823  0.1736
32223W        W48484  10.828   3.766   4.750 -0.1656 -0.0023  0.1272
32224W        W48485   1.367  15.297  11.288 -0.0161  0.0525 -0.1987
32225W        W48486  11.540   8.383   0.023 -0.0141  0.3544  0.0831
32226W        W48487   5.317  15.786   1.338 -0.0812  0.2990 -0.1345
32227W        W48488  16.533  13.128  10.632 -0.0340 -0.2442 -0.0370
32228W        W48489  12.110   4.868   0.050  0.0900 -0.3717  0.2352
32229W        W48490   7.206   4.694   4.628  0.0519 -0.0618  0.0994
32230W        W48491   2.369   6.985   2.467  0.2477 -0.1191 -0.0550
32231W        W48492  15.278   5.679   5.503 -0.1640  0.3762 -0.1811
32232W        W48493  12.340  16.844   0.201 -0.1993  0.3204  0.1175
32233W        W48494   8.228  13.149  12.669 -0.1260  0.3941 -0.1003
32234W        W48495   0.264  16.910  13.580 -0.0575  0.1538  0.0878
32235W        W48496   5.162   5.078   1.613  0.2981  0.0782  0.0913
32236W        W48497  11.583   5.961  12.648 -0.1183  0.3427 -0.0184
32237W        W48498   1.113  12.620   1.172 -0.4070 -0.0093  0.0206
32238W        W48499   7.726   6.319  11.953 -0.3922 -0.1500 -0.0711
32239W        W48500  14.148  15.616   3.584  0.2182  0.0256  0.4314
32240W        W48501  12.000   0.553  13.188 -0.5361  0.1763  0.0589
32241W        W48502   6.927  14.584   4.103 -0.1959 -0.1292 -0.0818
32242W        W48503  11.021   0.484  15.871  0.3781 -0.1863 -0.1003
32243W        W48504   4.493   8.613  15.942  0.0342  0.2671 -0.3455
32244W        W48505   6.522   7.915   1.865 -0.0149 -0.0353 -0.0473
32245W        W48506   4.020   2.240   3.729  0.0192  0.1430 -0.0858
32246W        W48507  16.903   4.090   4.281 -0.0540 -0.0339 -0.0756
32247W        W48508  13.224  12.971  15.220 -0.1182  0.4457  0.0865
32248W        W48509  10.919   0.874   3.715  0.0637  0.0154  0.3601
32249W        W48510  17.333  13.132  10.688  0.2227  0.0368  0.0459
32250W        W48511   7.376  11.734   5.833  0.2129  0.1304  0.4501
32251W        W48512  11.317   5.858  15.972  0.1130  0.3664  0.0408
32252W        W48513   0.141  18.111   1.093 -0.0092 -0.0328 -0.1781
32253W        W48514   0.792  11.784  12.497  0.0524 -0.7321  0.0930
32254W        W48515   6.015  12.706   4.849 -0.0013 -0.0459  0.2813
32255W        W48516   4.549  14.850   4.830  0.5922 -0.1780 -0.1174
32256W        W48517   0.852  14.722   0.183 -0.1460  0.1635  0.0278
32257W        W48518  17.504   9.959  10.881 -0.0785 -0.2274 -0.0492
32258W        W48519  12.360  17.156  15.958  0.1665 -0.0529  0.2175
32259W        W48520   1.371  17.818  12.302  0.0394 -0.0145 -0.0901
32260W        W48521  15.860   5.427  15.113 -0.1548  0.1908  0.0139
32261W        W48522  11.292   5.879  13.517  0.2489  0.1921 -0.2493
32262W        W48523   0.082   3.294   3.337  0.1824 -0.2968  0.2638
32263W        W48524  17.860   3.200   5.321 -0.0274  0.0367 -0.0804
32264W        W48525  14.496   6.068  14.840  0.1194 -0.0565  0.5614
32265W        W48526   6.398  15.071   3.350  0.2259 -0.1934  0.2879
32266W        W48527   2.570  15.480  12.880  0.0531 -0.0215  0.0965
32267W        W48528   2.448   3.627   2.361  0.1143 -0.0776 -0.0669
32268W        W48529   1.274   7.522   5.302 -0.0437  0.0186  0.2076
32269W        W48530  10.511   1.579   2.286  0.1317  0.0081  0.1253
32270W        W48531   8.570   3.732  14.743 -0.2063 -0.1015  0.2873
32271W        W48532  10.358   3.542  12.167  0.1786 -0.1384  0.1149
32272W        W48533  17.146  11.513   0.292 -0.2516  0.1768 -0.1499
32273W        W48534  10.035  10.986  12.310  0.2102  0.1040 -0.0620
32274W        W48535   3.645   2.157   3.416  0.0602  0.1442  0.1927
32275W        W48536   4.394  11.034   5.678  0.1680  0.0668 -0.1244
32276W        W48537   9.042  11.972   4.390 -0.2251 -0.1593  0.2098
32277W        W48538   3.371  11.683  14.456 -0.2362  0.1957  0.3706
32278W        W48539  13.738   0.180  14.608  0.0709 -0.3689  0.1854
32279W        W48540   9.647  13.809  15.180  0.1091 -0.0800  0.0183
32280W        W48541  11.459  13.259   3.708  0.3960  0.0282 -0.0661
32281W        W48542   7.605   4.711   3.459 -0.0256  0.3667  0.2166
32282W        W48543   5.148  10.629   3.014 -0.2571  0.2704 -0.2411
32283W        W48544   7.396   5.787   3.652 -0.1614  0.0436  0.0438
32284W        W48545  14.006  17.744   2.078  0.0428 -0.1179 -0.0492
32285W        W48546   8.557  17.309   5.646 -0.2878 -0.3478 -0.0128
32286W        W48547   8.589  16.149   1.326  0.2210 -0.0771  0.1210
32287W        W48548  14.505  17.778   2.853 -0.0083 -0.4376  0.1038
32288W        W48549   6.837   1.582  13.236  0.1285 -0.0302 -0.0470
32289W        W48550  15.947  11.673   1.216  0.2211  0.1029  0.2582
32290W        W48551  18.196   7.014   4.671  0.3064  0.0801 -0.0659
32291W        W48552   3.512   4.017   1.871  0.3853  0.3236 -0.3469
32292W        W48553  12.256   8.337   2.203  0.1626  0.2146  0.1392
32293W        W48554   5.927   8.718   3.335  0.1142  0.2229  0.4684
32294W        W48555   0.366  14.089   2.108 -0.0354 -0.2096 -0.2926
32295W        W48556  10.218  11.665  15.142 -0.1501 -0.0563  0.2209
32296W        W48557  17.158   5.959   1.880 -0.0261  0.0888 -0.3368
32297W        W48558   7.809   0.106  11.813 -0.0592 -0.2531 -0.0088
32298W        W48559   8.485  16.051   2.332 -0.2223  0.2450 -0.0135
32299W        W48560   4.835   3.539  14.052 -0.0625  0.0834  0.0551
32300W        W48561  17.204   9.009   0.654 -0.1057 -0.0369  0.0314
32301W        W48562  15.991  15.710  10.931 -0.1135  0.2095 -0.1783
32302W        W48563  10.021   7.298  12.551 -0.0695  0.1248 -0.0790
32303W        W48564   3.661  14.584   2.604 -0.0965 -0.0870 -0.0544
32304W        W48565  10.359  11.215  12.037 -0.3104  0.3919  0.2108
32305W        W48566  16.462  12.506  15.176  0.0331 -0.0462  0.0744
32306W        W48567   9.024   6.721   5.721  0.2396 -0.0184  0.4103
32307W        W48568   0.170   9.332   5.993 -0.0937  0.1756  0.1491
32308W        W48569   0.935  11.417   1.467  0.1009  0.2837 -0.0042
32309W        W48570  16.051   4.272  13.508 -0.0599 -0.2908  0.1576
32310W        W48571  11.340  10.127   4.409  0.1883  0.1115 -0.1062
32311W        W48572   2.727  10.922  15.865 -0.0929 -0.0186  0.0390
32312W        W48573  11.361   5.208  11.922 -0.0580  0.1459 -0.1166
32313W        W48574   9.259   5.846  11.631 -0.0874  0.2401 -0.0237
32314W        W48575  16.035   4.536   4.234  0.5408  0.1983  0.0857
32315W        W48576  13.625   1.450  14.689  0.1883  0.2525 -0.0136
32316W        W48577  15.624   1.148  13.253  0.1497 -0.1310 -0.3601
32317W        W48578   8.391  14.243  14.817  0.1741  0.1054 -0.1061
32318W        W48579  12.329  14.753   3.041  0.0900  0.3584 -0.1453
32319W        W48580   0.203   0.732   3.338  0.0614 -0.3373  0.1092
32320W        W48581  11.509   8.758  11.817 -0.1383 -0.2182  0.1756
32321W        W48582   3.970  17.632   0.038  0.1596 -0.2122 -0.0474
32322W        W48583  16.615  17.640  12.164 -0.0939 -0.3333  0.0751
32323W        W48584   1.714   4.556   4.464 -0.1627 -0.1367 -0.2816
32324W        W48585  10.230   2.258  15.578  0.1362 -0.0167 -0.1906
32325W        W48586  12.661   9.674   4.935 -0.2845 -0.0487 -0.1918
32326W        W48587  14.570   9.885   4.051  0.1701 -0.0674  0.2315
32327W        W48588  10.159   1.822   5.583  0.1472  0.4027 -0.1298
32328W        W48589   3.620   1.489   0.849 -0.0578 -0.2403  0.1890
32329W        W48590  15.442  14.107  12.649  0.0070  0.1086 -0.1657
32330W        W48591  18.459   5.081   1.782 -0.1515  0.0549 -0.2728
32331W        W48592   4.733  12.753  12.510  0.4218  0.1839 -0.3489
32332W        W48593   6.188   1.794   2.340  0.0346 -0.0142  0.0711
32333W        W48594  15.825   8.591  14.327 -0.0671 -0.0522  0.3190
32334W        W48595   5.461   1.960  12.152 -0.0130 -0.3271  0.2549
32335W        W48596   2.141   4.783   4.287  0.0215  0.1568  0.1553
32336W        W48597  17.850  11.636   3.039 -0.0227 -0.0550  0.0432
32337W        W48598   7.149   3.593  14.795 -0.1408 -0.0057 -0.1266
32338W        W48599  11.533   0.778  15.560 -0.0839 -0.1914 -0.0324
32339W        W48600  17.487   7.638  12.011  0.0820 -0.1577 -0.3864
32340W        W48601   4.848   9.179   3.568  0.2575  0.0840  0.0986
32341W        W48602   5.483  16.191  13.181 -0.0288 -0.0848 -0.0196
32342W        W48603  17.966  12.862   0.933 -0.5123  0.1486 -0.1366
32343W        W48604  11.458   6.374   2.737 -0.2533  0.1575  0.2668
32344W        W48605  11.207  16.643   0.666  0.0661  0.2813  0.0090
32345W        W48606  16.133  14.514  12.387  0.0866 -0.1536  0.0415
32346W        W48607   7.252   4.261  13.890  0.2897 -0.1472  0.0318
32347W        W48608  14.238   0.739  11.504 -0.0934 -0.0724  0.2302
32348W        W48609   2.139   0.086  10.564 -0.1251  0.0477  0.0404
32349W        W48610  14.708  17.265  12.021 -0.2344 -0.2213  0.2648
32350W        W48611   0.001   3.299  13.897 -0.0507 -0.0609  0.0319
32351W        W48612   2.676   3.348   1.095 -0.1240  0.0123  0.0979
32352W        W48613  17.336  14.608   4.657  0.0388  0.1775 -0.0451
32353W        W48614   1.729   2.602  14.533 -0.1939  0.1915  0.2934
32354W        W48615  14.583   9.322   2.496 -0.4162  0.2649 -0.2551
32355W        W48616   0.596  10.807   0.170 -0.0801 -0.0296  0.2482
32356W        W48617  16.828  11.081  14.991 -0.3203 -0.1226  0.0303
32357W        W48618  18.241   7.144  14.263  0.4034 -0.0616  0.0555
32358W        W48619  12.016   8.726   5.402  0.2521 -0.1108  0.0571
32359W        W48620   1.517  16.238  15.832  0.2483 -0.0391  0.1916
32360W        W48621   2.145   4.537  14.228  0.1876  0.0226 -0.2029
32361W        W48622   8.954   9.880  11.849 -0.0720 -0.0291 -0.1575
32362W        W48623  15.463  11.551   3.784 -0.3047  0.2451 -0.0650
32363W        W48624   1.461   3.594  15.206  0.0403  0.0093  0.0597
32364W        W48625  14.633   3.578   3.957 -0.0518  0.2400  0.0173
32365W        W48626  14.443   9.301  14.740 -0.0806 -0.1184  0.1389
32366W        W48627  11.530   1.894   4.687  0.0614 -0.3398  0.1557
32367ION     NA48628  14.571   9.730  12.783  0.0459  0.1655  0.0727
32368ION     NA48629  11.025  17.588  14.533  0.1537 -0.1723 -0.2144
32369ION     NA48630  10.930   4.654   6.044 -0.2587  0.0801  0.3903
32370ION     NA48631   9.698  10.717   5.863  0.0106 -0.0009 -0.0018
32371ION     NA48632   8.957  15.366   2.465 -0.0416  0.0686 -0.0330
32372ION     NA48633   3.964  10.217   5.987 -0.1651  0.2591 -0.0932
32373ION     NA48634   2.144   8.251   1.861  0.0260  0.1447 -0.0316
32374ION     NA48635   4.269   0.561  10.610 -0.1014  0.1649  0.1354
32375ION     NA48636   8.961  10.067  10.431 -0.2961 -0.0467 -0.1369
32376ION     NA48637   1.395  11.262  10.416 -0.0671 -0.1004  0.1981
32377ION     NA48638  15.272   4.101  10.117  0.2337 -0.1336 -0.0874
32378ION     NA48639   8.686   2.093  10.581  0.2312  0.0123  0.1589
32379ION     NA48640   2.314   3.744  15.667 -0.2572 -0.3854 -0.3921
32380ION     NA48641  10.035  11.846  10.522  0.1051 -0.1117  0.2139
32381ION     NA48642  15.578  16.165  10.082 -0.2638 -0.0616  0.3178
32382ION     NA48643  14.615  18.421   9.380  0.5428  0.0550 -0.0141
32383ION     NA48644   4.439   2.798   5.869 -0.1335 -0.0449  0.0579
32384ION     NA48645  14.926  10.309  10.177  0.0720 -0.1001  0.1429
32385ION     NA48646   2.604  15.754  10.623  0.0433  0.1316 -0.1419
32386ION     NA48647  15.522   3.593  13.630  0.2313  0.0174 -0.4016
32387ION     NA48648  13.996   8.650  10.281 -0.1959  0.0669 -0.2151
32388ION     NA48649  17.925   7.720  11.076 -0.2267  0.1061 -0.0278
32389ION     NA48650   1.004  12.799   5.338  0.2464 -0.0895 -0.1691
32390ION     NA48651   7.134  15.429  10.666  0.0048 -0.1790 -0.2280
32391ION     NA48652   8.639   7.308  10.987 -0.2524  0.0930 -0.0611
32392ION     NA48653  11.548  15.543   9.931 -0.0763  0.2291  0.0139
32393ION     NA48654  13.953   9.674  10.542  0.3709 -0.0186 -0.0897
32394ION     NA48655   5.724  12.240  10.720  0.0484  0.2117  0.1335
32395ION     NA48656  10.663  16.805  10.007  0.2934  0.1445 -0.1250
32396ION     NA48657  11.783   8.590  10.307  0.2171  0.1285 -0.0423
32397ION     NA48658   9.302   2.190  10.486  0.2721 -0.1745 -0.0007
32398ION     NA48659   5.916   0.690  11.287  0.1109  0.1833  0.1567
32399ION     NA48660  16.352  16.068   9.603  0.3806  0.0483  0.1047
32400ION     NA48661  15.140   9.044  13.869 -0.0139 -0.0751  0.1492
32401ION     NA48662   8.031  17.723  11.396  0.1281  0.0653  0.0038
32402ION     NA48663   7.159  10.479   2.652  0.0326 -0.4335 -0.0251
32403ION     NA48664   3.258   0.756  10.759  0.1570  0.3054 -0.3074
32404ION     NA48665  13.829  13.593   0.812 -0.0555  0.2119 -0.2528
32405ION     NA48666   1.418  14.741  10.395  0.2601  0.2022 -0.0389
32406ION     NA48667   5.928  16.095  10.726 -0.2848 -0.0118  0.1095
32407ION     NA48668  13.698   2.795   5.384  0.2226 -0.1617  0.3204
32408ION     NA48669   7.236   4.884  10.918 -0.0083  0.1891  0.0392
32409ION     NA48670  14.388  18.140   2.555  0.4716  0.2505 -0.0185
32410ION     NA48671   9.429  13.642   1.273 -0.2369  0.0180 -0.0591
32411ION     NA48672   6.493  16.020  10.788  0.0748  0.0614  0.0884
32412ION     NA48673   8.990   8.700  10.725  0.0437 -0.1211  0.1667
32413ION     NA48674   8.164  16.755   0.116  0.2340 -0.1207 -0.0183
32414ION     NA48675  13.255  16.944   9.583  0.0536 -0.0931 -0.2104
32415ION     NA48676  10.739  13.023   6.089 -0.2964 -0.1217 -0.0270
32416ION     NA48677  18.028   5.496  10.444 -0.1604 -0.0325  0.0522
32417ION     NA48678  17.858  13.023   9.998  0.1117  0.0689 -0.1801
32418ION     NA48679   2.141  18.251   5.767  0.1009 -0.3086  0.2348
32419ION     NA48680   2.379  13.035  10.377 -0.2871  0.1199 -0.0629
32420ION     NA48681   1.953   3.462  12.679  0.2178  0.0615  0.0154
32421ION     NA48682  16.902   9.903   5.239  0.2034  0.0378  0.2057
32422ION     NA48683  11.050  17.495  10.185 -0.0120  0.0274 -0.0590
32423ION     NA48684   6.778   0.528  10.759  0.1027  0.2042  0.1872
32424ION     NA48685  12.539   3.907  10.497 -0.1668  0.1575 -0.1086
32425ION     NA48686  14.840  16.564   9.717  0.1637  0.3548 -0.0946
32426ION     NA48687   2.204   3.221  10.758 -0.0281 -0.0232  0.1121
32427ION     NA48688   3.931  12.072   6.139  0.1425  0.2183 -0.0081
32428ION     NA48689  13.179   9.010  10.363  0.0072 -0.2342  0.2414
32429ION     NA48690   3.643  15.701  10.595 -0.0052  0.0749  0.1674
32430ION     NA48691   6.185  18.253  10.882 -0.2273  0.1319 -0.3013
32431ION     NA48692  13.090  12.223  11.897  0.3607 -0.0909 -0.2001
32432ION     NA48693   6.088   1.482  10.858 -0.1613 -0.0153 -0.1651
32433ION     NA48694  17.070   6.232  10.602 -0.0634  0.1288 -0.1653
32434ION     NA48695  13.859  16.407   2.172 -0.0776 -0.1208  0.1275
32435ION     NA48696  12.133  13.176   9.854 -0.1953  0.1440 -0.2273
32436ION     NA48697   5.041   8.190  10.539  0.1336  0.2231 -0.3420
32437ION     NA48698  13.547   1.221  11.313 -0.2303 -0.1746  0.0679
32438ION     NA48699  10.164   7.021   1.651  0.0382 -0.2704  0.1747
32439ION     NA48700   8.341   1.196  13.621  0.0958  0.0248 -0.3004
32440ION     NA48701  12.397  12.136  10.065 -0.0963 -0.2679 -0.3618
32441ION     NA48702  14.290   2.883  10.304 -0.0550  0.1694  0.1066
32442ION     NA48703  13.517   5.346  10.603  0.1796 -0.0545 -0.0904
32443ION     NA48704   8.040  15.683   5.979 -0.0290 -0.1085 -0.0171
32444ION     NA48705   7.709   7.637   5.971 -0.0608  0.1165  0.0233
32445ION     NA48706  14.205  17.073   9.755 -0.0791 -0.0214 -0.3488
32446ION     NA48707  11.470  10.494  10.451 -0.3623 -0.4043 -0.1206
32447ION     NA48708  13.095   9.746  10.259  0.3565 -0.0129  0.3849
32448ION     NA48709  10.722   3.482  13.743 -0.3294  0.1780  0.1300
32449ION     NA48710  12.178  16.230  12.350 -0.0950 -0.2252 -0.1056
32450ION     NA48711  12.284  16.193   9.533  0.1826  0.1234 -0.0628
32451ION     NA48712  16.233  12.973   9.402  0.2699  0.1703 -0.1331
32452ION     NA48713  11.618  11.783  10.151 -0.3150 -0.0580  0.1260
32453ION     NA48714  12.455  16.656   9.460 -0.0746  0.0575 -0.0074
32454ION     NA48715  16.921   7.227   5.338 -0.2203 -0.3906  0.1962
32455ION     NA48716   9.276   6.679  10.910  0.2405  0.0513 -0.0001
32456ION     NA48717  15.222  17.322   3.909  0.2362 -0.1245  0.0526
32457ION     NA48718   0.104  13.779  10.020  0.1799 -0.0913  0.1232
32458ION     NA48719  14.645   6.073   0.834 -0.1608 -0.3671 -0.0453
32459ION     NA48720   3.377   3.617  12.528 -0.4866  0.1142  0.1034
32460ION     NA48721  15.686  11.412  10.132  0.2012  0.0645 -0.1902
32461ION     NA48722  15.777   6.471  10.215 -0.1166  0.0677  0.2045
32462ION     NA48723   6.748   8.324   3.644  0.1318 -0.0599 -0.2086
32463ION     NA48724   5.285   4.268  12.953 -0.0758  0.2697 -0.1247
32464ION     NA48725  16.628   7.213  10.307  0.0364  0.3268 -0.0430
32465ION     NA48726   7.754   4.820  11.721  0.4271 -0.0299 -0.0037
32466ION     NA48727   3.927   0.235  11.025  0.1922 -0.1886 -0.5844
32467ION     NA48728   1.997  17.931   3.158  0.3358  0.0107 -0.0233
32468ION     NA48729   3.736   1.490  11.421 -0.1316  0.2732 -0.1155
32469ION     NA48730   1.290  11.745  11.191  0.2041  0.1673 -0.0415
32470ION     NA48731   0.304   2.302  10.312 -0.2689 -0.0149 -0.1976
32471ION     NA48732  14.455  18.405  15.675  0.1327 -0.0193 -0.3066
32472ION     NA48733  12.917  15.814  14.598  0.2730  0.1174 -0.0320
32473ION     NA48734   3.080   7.712  10.732 -0.0566 -0.1342 -0.3685
32474ION     NA48735  16.489   0.771   9.559  0.0678  0.0461 -0.0397
32475ION     NA48736  16.952   8.652  10.069 -0.0051 -0.3956  0.2215
32476ION     NA48737   0.533   7.872   5.530 -0.1116 -0.0517 -0.1020
32477ION     NA48738   2.674   1.674  10.515 -0.3286  0.0463 -0.3557
32478ION     NA48739  13.589  17.394   4.942  0.3155 -0.2467  0.0294
32479ION     NA48740   8.577  12.497  10.414 -0.1123 -0.1496  0.1801
32480ION     NA48741   8.131   2.777  10.842  0.0777 -0.2302  0.5794
32481ION     NA48742  18.425  18.092   4.807 -0.0725  0.4179 -0.2236
32482ION     NA48743  10.651  18.269  10.260 -0.0253 -0.0434 -0.3706
32483ION     NA48744   3.833  17.046  10.747 -0.1729  0.3357 -0.0608
32484ION     NA48745   8.864  13.919  10.555  0.4229  0.2430 -0.1298
32485ION     NA48746   2.644   8.362  11.037 -0.1836  0.1063  0.2209
32486ION     NA48747   2.114   6.194  10.685 -0.0692  0.0289  0.3038
32487ION     NA48748  18.264  16.668  11.249  0.1478 -0.1925  0.1869
32488ION     NA48749  15.863  13.603  12.662 -0.1168 -0.0229  0.0005
32489ION     NA48750   4.748  17.246  10.762 -0.1833  0.1663 -0.2030
32490ION     NA48751  18.042   7.188  10.636  0.4717  0.3586  0.0827
32491ION     NA48752  14.441   5.453  10.384  0.2465 -0.3240 -0.0402
32492ION     NA48753   1.206   5.403  11.554  0.0569 -0.1762  0.0693
32493ION     NA48754   8.096   0.293  14.015  0.0735  0.2932 -0.0266
32494ION     NA48755   4.574   5.983  10.830 -0.0271  0.0247  0.1616
32495ION     NA48756  16.142  14.879  11.373  0.1225  0.1731  0.0572
32496ION     NA48757   3.183   4.762  10.728  0.3038  0.4595 -0.2784
32497ION     NA48758   0.323   9.396   4.224 -0.0710 -0.1840  0.0782
32498ION     NA48759   7.796   2.335   5.285  0.1790  0.1456 -0.0536
32499ION     NA48760   7.824  13.150  13.476 -0.2561 -0.3724  0.1197
32500ION     NA48761  11.848   0.495   9.905 -0.0437  0.1150  0.1687
32501ION     NA48762  15.765  11.253   5.584 -0.0171 -0.1623  0.0677
32502ION     NA48763  13.501  13.055   9.689 -0.3368  0.0962  0.0862
32503ION     NA48764  15.636  12.866   1.029 -0.3231  0.1228 -0.2765
32504ION     NA48765   9.885   8.405  10.604 -0.0251  0.1316 -0.4229
32505ION     NA48766   7.858  10.565   0.023  0.0020 -0.1505  0.1387
32506ION     NA48767   6.698  18.350   6.282 -0.1269 -0.3011 -0.1525
32507ION     NA48768   1.907  14.769  14.251 -0.3806  0.3581  0.0591
32508ION     NA48769  16.885   4.693   5.310 -0.0208  0.0365  0.0812
32509ION     NA48770   6.344  14.388  12.384 -0.0170 -0.0231  0.0381
32510ION     NA48771  15.926  11.415  12.599 -0.4591 -0.2148 -0.0746
32511ION     NA48772   7.776  12.429   5.875  0.4456 -0.0144 -0.0703
32512ION     NA48773   2.829   4.592  11.714  0.1568  0.0630 -0.1662
32513ION     NA48774  16.560   1.578   5.482  0.0554  0.0198  0.1276
32514ION     NA48775  14.210  15.662   9.361 -0.2766  0.0881  0.0253
32515ION     NA48776   0.284  12.829   2.222 -0.1878 -0.2960 -0.1071
32516ION     NA48777  15.728   0.585   9.720 -0.0813  0.1516  0.1463
32517ION     NA48778  13.179   1.915   3.565 -0.1869  0.1744 -0.1531
32518ION     NA48779   4.751   9.115   1.599 -0.0987  0.0526  0.2588
32519ION     NA48780  15.662   2.240  10.098 -0.1336 -0.1968  0.0360
32520ION     NA48781   0.698  15.458  10.170 -0.2216 -0.0385  0.1851
32521ION     NA48782  16.539   1.831   9.903  0.0594  0.1882  0.0681
32522ION     NA48783   8.289   7.968  10.508  0.1343  0.0227 -0.1577
32523ION     NA48784   7.716   3.660   3.300 -0.2176 -0.3569  0.2585
32524ION     NA48785  10.207   6.851  10.878 -0.2205  0.2578  0.3769
32525ION     NA48786   0.769   1.689  15.709 -0.0312  0.0286  0.0011
32526ION     NA48787  10.421   7.613  10.616  0.0978  0.1902 -0.0863
32527ION     NA48788  10.495   1.155  15.040  0.0207 -0.0737 -0.0964
32528ION     NA48789   4.000  12.705   0.634  0.1198 -0.0053 -0.0322
32529ION     NA48790  14.979   0.976   9.651  0.2069 -0.0580 -0.1389
32530ION     NA48791  11.226   5.609  15.512  0.1093 -0.1611  0.0247
32531ION     NA48792   9.387   0.654   5.516 -0.1647 -0.1016  0.3490
32532ION     NA48793   6.855   5.197  12.292 -0.1683 -0.0343  0.1345
32533ION     NA48794   3.402   8.658  10.883 -0.0890 -0.1868  0.2544
32534ION     NA48795   7.841  17.374  10.829  0.0632 -0.0330 -0.1068
32535ION     NA48796   7.996  14.683  10.965 -0.3229 -0.1513 -0.1179
32536ION     NA48797   2.286   5.651  10.974 -0.3370 -0.0418  0.4031
32537ION     NA48798  12.616   6.025  14.630 -0.0640  0.1407 -0.0763
32538ION     NA48799   6.515   7.611   4.969  0.0790  0.2882  0.4373
32539ION     NA48800   3.642  13.822  10.850  0.0981  0.4840  0.1009
32540ION     NA48801  15.093   8.020  10.217 -0.0681  0.1889  0.3183
32541ION     NA48802   0.541  17.328   3.543  0.1247 -0.2291 -0.0651
32542ION     NA48803   1.854  12.024  10.136  0.2522 -0.0407  0.0601
32543ION     NA48804   5.607   6.303  10.872  0.1063  0.2160  0.3513
32544ION     NA48805  17.412  15.963   9.680  0.1486 -0.1644 -0.0366
32545ION     NA48806   2.674   0.677   0.160 -0.0430 -0.1022  0.2608
32546ION     NA48807   8.422  11.592   5.974  0.0539 -0.0060  0.2097
32547ION     NA48808   5.205   3.392   5.041  0.0935  0.3818  0.2088
32548ION     NA48809   6.156   0.711  10.815  0.1111  0.2270 -0.1555
32549ION     NA48810  12.607  15.129   3.839  0.2859 -0.0146 -0.0952
32550ION     NA48811   8.369   1.731   2.599 -0.0084 -0.1016  0.0012
32551ION     NA48812   0.869  18.282   2.182 -0.2122  0.3397 -0.0359
32552ION     NA48813  18.135   9.210   1.922 -0.1694  0.1504  0.2085
32553ION     NA48814  12.735   0.534   9.762  0.0877 -0.0823 -0.0533
32554ION     NA48815   8.104   6.371   6.049  0.3284 -0.1818 -0.2256
32555ION     NA48816  17.785   8.529  10.424 -0.0135  0.0982 -0.3711
32556ION     NA48817   4.638  12.089  10.402  0.0118 -0.0303  0.0298
32557ION     NA48818  17.688   5.993   5.032  0.0093  0.1425 -0.4707
32558ION     NA48819   9.807   2.177  10.421 -0.3441 -0.0156  0.1783
32559ION     NA48820   3.999  16.811   5.011 -0.1226  0.0209 -0.1756
32560ION     NA48821   0.394  15.838   3.746 -0.2640 -0.0731  0.2155
32561ION     NA48822   7.724  12.136   5.061 -0.0984  0.0419  0.0722
32562ION     NA48823   5.624  15.371   1.552 -0.3649  0.0760  0.0238
32563ION     NA48824  16.386  14.301   0.173 -0.0851  0.1829  0.3611
32564ION     NA48825   7.352   5.934   1.125 -0.0860  0.2498  0.1407
32565ION     NA48826   2.029  13.295  13.169  0.0533  0.1772 -0.1125
32566ION     NA48827  17.188  15.458   9.824  0.1536  0.0003 -0.3114
32567ION     NA48828   3.523   2.447   3.894 -0.0674  0.0226  0.1060
32568ION     NA48829   7.366  16.112  14.494 -0.1596  0.1317  0.1957
32569ION     NA48830   0.759   4.101  10.567  0.0931  0.0452 -0.1374
32570ION     NA48831  10.543  13.290  10.245 -0.0683 -0.1602  0.0064
32571ION     NA48832   4.476   4.179  11.017  0.1647  0.0807  0.2338
32572ION     NA48833  14.966   7.167   2.372  0.2352 -0.1765  0.0836
32573ION     NA48834   6.788  11.305  12.138 -0.2574 -0.3017  0.4633
32574ION     NA48835   9.526   2.582   3.411  0.0373  0.0053 -0.1787
32575ION     NA48836  15.837  13.654   9.596 -0.1913 -0.3378 -0.0057
32576ION     NA48837  18.458   3.715  10.236  0.0821  0.0911 -0.0589
32577ION     NA48838   0.709  18.098   1.299 -0.1444 -0.3938  0.1690
32578ION     NA48839  14.107  18.317   5.265 -0.1618 -0.0781  0.3091
32579ION     NA48840  14.975   8.408   5.056  0.0895  0.4004  0.0839
32580ION     NA48841   4.823   1.540   3.343 -0.1431  0.0252 -0.0751
32581ION     NA48842   6.736   2.613  14.118  0.1801 -0.2795  0.0214
32582ION     NA48843  16.521   0.187  15.002  0.2409 -0.1228 -0.1044
32583ION     NA48844   6.331  15.800   6.032 -0.0738 -0.1646 -0.2288
32584ION     NA48845  17.494  11.926   9.966  0.2860 -0.2788  0.1685
32585ION     NA48846   0.677  10.088  10.418  0.0425 -0.0309 -0.1507
32586ION     NA48847   1.602   1.838  10.803 -0.0215 -0.0041  0.0119
32587ION     NA48848   7.558   5.898   4.162 -0.2014  0.1751  0.4268
32588ION     NA48849   6.945   5.824  10.847 -0.2529  0.0299  0.2756
32589ION     NA48850   9.938  17.027  10.318 -0.0519 -0.3531 -0.3006
32590ION     NA48851   1.882   2.329  10.684 -0.2413 -0.2908 -0.3321
32591ION     NA48852  16.330  17.441   5.133  0.0573 -0.0386 -0.2419
32592ION     NA48853  14.915  11.206   9.693 -0.2515  0.1088  0.1237
32593ION     NA48854   6.720  10.102  10.877  0.2542 -0.0247 -0.1493
32594ION     NA48855   1.288  10.822   5.813  0.1834  0.0726 -0.2313
32595ION     NA48856   5.831   2.607  10.969  0.2592 -0.0289  0.1664
32596ION     NA48857  14.072  16.002   9.720  0.0766 -0.2982  0.0428
32597ION     NA48858   2.743   8.121  10.527  0.0855  0.2623 -0.3846
32598ION     NA48859  11.543   7.057  10.415 -0.0026  0.3586 -0.1341
32599ION     NA48860  14.824   9.258  10.267 -0.4150 -0.1334  0.0688
32600ION     NA48861  17.840   4.798  10.512 -0.0885 -0.0011  0.2277
32601ION     NA48862  16.462  14.618   4.924 -0.0173 -0.0768 -0.2038
32602ION     NA48863  10.025   0.782  10.320  0.1585  0.0142  0.1543
32603ION     NA48864   9.619  10.280  10.323 -0.2339 -0.1142  0.2271
32604ION     NA48865   5.639  11.074   6.037  0.1555  0.0504 -0.3614
32605ION     NA48866   8.622  17.373  12.765 -0.2796  0.0510  0.2055
32606ION     NA48867  18.479   6.123   0.402  0.0179  0.0869  0.1629
32607ION     NA48868   2.269  14.167   2.283 -0.2308  0.4375  0.2285
32608ION     NA48869  15.700   3.571   4.470  0.2860  0.1347  0.2664
32609ION     NA48870  13.945  10.364  15.844  0.1152  0.1993 -0.0447
32610ION     NA48871  16.434  11.377  10.419 -0.0946  0.1647  0.0333
32611ION     NA48872  17.493   9.393  10.389 -0.0510 -0.1587  0.2374
32612ION     NA48873  12.314   6.712  10.329 -0.0909 -0.0020 -0.0025
32613ION     NA48874  16.226   5.766  10.506 -0.0647  0.0474 -0.0144
32614ION     NA48875   2.330  12.331   0.487 -0.3709 -0.3020  0.3579
32615ION     NA48876   2.161   5.846  15.483 -0.0907  0.0029  0.1778
32616ION     NA48877  16.879   7.416  11.490  0.2273 -0.1857  0.1283
32617ION     NA48878   1.233   8.933   6.066  0.2201 -0.0550 -0.0578
32618ION     NA48879  16.955  15.054  12.183 -0.0350 -0.1271  0.2012
32619ION     NA48880  11.952  18.388  12.907  0.0339  0.3824 -0.4094
32620ION     NA48881  10.815   6.073  10.739 -0.2039 -0.2442  0.0610
32621ION     NA48882  11.797   0.599   1.527 -0.3623 -0.2857  0.1351
32622ION     NA48883   2.314   0.734   5.830 -0.0096 -0.0082  0.0814
32623ION     NA48884  12.370   2.802  14.685  0.2415  0.2073 -0.1140
32624ION     NA48885   4.131  15.013  10.568  0.3523  0.1074 -0.3619
32625ION     NA48886  11.581   2.207  10.147  0.0428  0.1183 -0.1846
32626ION     NA48887   4.052  14.355   6.093  0.1861  0.0028  0.1272
32627ION     NA48888   6.945  13.500   6.147 -0.1162 -0.0509  0.3513
32628ION     NA48889  18.054  14.203   5.398  0.1816 -0.1076 -0.2797
32629ION     NA48890  16.096   7.838  10.024 -0.2178  0.0044 -0.0380
32630ION     NA48891   2.282  14.959   4.009 -0.0538 -0.1174 -0.1194
32631ION     NA48892   5.661   0.582  10.839 -0.2213  0.2694  0.3636
32632ION     NA48893   0.927   6.164  10.605 -0.2693 -0.1139 -0.2763
32633ION     NA48894   9.968   5.826   3.577  0.0966  0.0648 -0.0626
32634ION     NA48895   9.662  15.583  15.243  0.0717  0.1319 -0.2447
32635ION     NA48896  17.684   2.527  13.339  0.2336 -0.0201 -0.1784
32636ION     NA48897   0.107   1.702  12.892 -0.2044  0.2210 -0.2224
32637ION     NA48898   3.931   9.316  10.576 -0.3118 -0.2632 -0.3179
32638ION     NA48899  13.001  15.852  10.113  0.1752 -0.2796  0.1307
32639ION     NA48900  11.498   7.997   6.099 -0.1814  0.2223  0.2162
32640ION     NA48901  12.319  11.165  10.180  0.0233 -0.2332 -0.0338
32641ION     NA48902   3.235  14.470  14.321 -0.1410 -0.3046 -0.0892
32642ION     NA48903  12.068  12.348  13.125  0.0668  0.1321 -0.1095
32643ION     NA48904   6.435   3.753  11.246  0.0992 -0.1844 -0.2690
32644ION     NA48905   1.814   6.520  13.858  0.0067 -0.0351 -0.0971
32645ION     NA48906  17.204  12.551  13.420 -0.0797  0.0570  0.0998
32646ION     NA48907  14.466   8.474   0.130 -0.0641  0.0795 -0.1691
32647ION     NA48908  17.164   1.269   9.816 -0.0460 -0.2205 -0.4674
32648ION     NA48909   9.829   2.983  10.543  0.2620  0.0563  0.1091
32649ION     NA48910  13.178  13.650  13.898 -0.0633 -0.0832  0.0551
32650ION     NA48911   0.445  14.587   9.733 -0.3278  0.2965  0.0252
32651ION     NA48912   4.964   9.098   2.425 -0.0431  0.1639 -0.1083
32652ION     NA48913   8.138  16.849  10.877 -0.0168  0.0379 -0.3155
32653ION     NA48914   4.682   8.842  10.686 -0.0095 -0.3602  0.2360
32654ION     NA48915   5.320   9.353   6.157 -0.3784  0.0884 -0.0136
32655ION     NA48916   7.410  14.992   6.163 -0.1288 -0.1379 -0.0054
32656ION     NA48917   8.635   5.126  10.749  0.3157  0.0050 -0.0883
32657ION     NA48918  15.395   1.054   0.698  0.2178  0.0508  0.1167
32658ION     NA48919   5.559  17.603  10.814  0.0507 -0.2655  0.0142
32659ION     NA48920   7.456   1.306  10.499  0.1357  0.0556 -0.1467
32660ION     NA48921   8.135   7.760  12.499 -0.1009 -0.2464 -0.0636
32661ION     NA48922   9.216   9.249  10.288  0.1724  0.0602  0.1462
32662ION     NA48923   1.497   0.415  10.738  0.0339 -0.1697 -0.0471
32663ION     NA48924   6.140   7.473   6.126 -0.3816  0.1637  0.2040
32664ION     NA48925  18.035   0.785   1.085  0.1373 -0.0638  0.0865
32665ION     NA48926  13.209  17.853  10.060 -0.3230  0.0794 -0.0583
32666ION     NA48927   7.692   2.002  12.028  0.0405 -0.1329  0.1171
32667ION     NA48928   8.824   5.926  10.769 -0.0223  0.0956 -0.1276
32668ION     NA48929  11.863   3.965   5.940 -0.1618  0.1657  0.2148
32669ION     NA48930   3.889   2.595  13.985  0.0081  0.1752  0.2187
32670ION     NA48931  10.463  10.360  10.395  0.1024 -0.0819  0.1636
32671ION     NA48932   1.279   0.094  10.413 -0.1013 -0.1932  0.2284
32672ION     NA48933   8.179  18.467   1.035  0.2858 -0.1530 -0.0294
32673ION     NA48934  10.398   7.550   3.475  0.2292 -0.0568  0.0209
32674ION     NA48935  15.303  12.927   9.590 -0.1326  0.1215  0.0418
32675ION     NA48936   2.902   5.905  14.769 -0.0144 -0.1375  0.1456
32676ION     NA48937  11.081  16.632  16.170 -0.1133 -0.1580  0.4185
32677ION     NA48938   5.696   4.445  11.276  0.1235 -0.2818  0.0498
32678ION     NA48939  13.910  12.310   9.819 -0.1523 -0.3517  0.0419
32679ION     NA48940   1.798  16.142  10.451 -0.3190 -0.0597  0.1639
32680ION     NA48941  14.066  13.831   9.771 -0.0756 -0.0973  0.0419
32681ION     NA48942   3.189   1.829   4.647 -0.2377  0.0731  0.1433
32682ION     NA48943  10.700   3.267   5.920 -0.2074  0.3301 -0.1375
32683ION     NA48944  13.012   6.098  10.513  0.0898 -0.1717 -0.1461
32684ION     NA48945  11.045  14.031  10.039  0.0768  0.0612  0.0091
32685ION     NA48946  16.080   1.488   9.915 -0.1928 -0.2286 -0.0078
32686ION     NA48947  16.938   0.355   4.720  0.3043 -0.2041 -0.1447
32687ION     NA48948  17.047  17.966   5.231 -0.0256 -0.0604  0.0000
32688ION     NA48949  16.298   2.930  14.793 -0.0432 -0.0159 -0.2737
32689ION     NA48950  11.846  10.547   4.960 -0.1147  0.4359 -0.2551
32690ION     NA48951   6.965  18.169   5.813 -0.1130 -0.2233  0.0141
32691ION     NA48952   6.467  17.392   6.317  0.4339  0.1785 -0.0514
32692ION     NA48953  13.960   6.267  10.480  0.1109  0.1957 -0.2579
32693ION     NA48954   3.680   4.530   1.995 -0.0175  0.0276 -0.2067
32694ION     NA48955   0.111   2.154   5.843 -0.0372  0.1950 -0.0844
32695ION     NA48956   9.930  15.388  10.456 -0.3707 -0.3092 -0.2927
32696ION     NA48957  15.679   7.746   5.966 -0.0572  0.1217 -0.0436
32697ION     NA48958   8.823   2.779   5.328 -0.1416 -0.1461 -0.1069
32698ION     NA48959   1.946  13.440  10.270  0.0245 -0.3448 -0.1484
32699ION     NA48960   4.970  13.841  10.338 -0.1394 -0.1301  0.0011
32700ION     NA48961  17.495  18.013   9.565 -0.0535  0.2910 -0.1749
32701ION     NA48962  14.693  12.992  10.044 -0.0813  0.1647 -0.0742
32702ION     NA48963   6.790   6.028  14.754 -0.0171 -0.0828  0.0083
32703ION     NA48964  12.731   7.269  11.139  0.4470  0.0729  0.0472
32704ION     NA48965  17.020  16.791   9.761 -0.1711 -0.0145 -0.2274
32705ION     NA48966   8.395   1.018  10.469 -0.0975 -0.0423 -0.0847
32706ION     NA48967  17.408   6.911  10.420  0.0903 -0.2222 -0.2218
32707ION     NA48968   9.659   8.434   1.399 -0.2346 -0.2692 -0.4349
32708ION     NA48969   0.504   6.848  10.646 -0.1487 -0.0540  0.2672
32709ION     NA48970   4.939   2.147  11.033 -0.1767  0.4010  0.1303
32710ION     NA48971   1.305  10.617  15.266  0.0397  0.1248  0.1401
32711ION     NA48972   2.319  16.838  15.456  0.1060  0.2367 -0.0002
32712ION     NA48973   3.262  10.042  10.436 -0.4133  0.1986  0.2032
32713ION     NA48974  10.785  17.733   0.569 -0.2441  0.0683  0.1902
32714ION     NA48975   7.935  10.415   6.255 -0.1771 -0.0856 -0.0296
32715ION     NA48976   7.045  14.509   2.261  0.0213 -0.0600 -0.0633
32716ION     NA48977  12.708   1.729   5.656 -0.0578 -0.1612  0.4241
32717ION     NA48978   0.128   8.775   5.900  0.4266 -0.3090 -0.2601
32718ION     NA48979   9.256   0.924  10.586 -0.0233  0.1730  0.1102
32719ION     NA48980   2.527  10.331  10.493  0.2871 -0.6110 -0.2329
32720ION     NA48981   3.611   2.561  10.989  0.2205  0.1584  0.1189
32721ION     NA48982   0.464   3.145  10.374 -0.0266  0.2933 -0.0707
32722ION     NA48983   8.327  11.417   4.110 -0.2124 -0.1643 -0.0441
32723ION     NA48984   7.266  11.765  10.599 -0.0708  0.2940 -0.1529
32724ION     NA48985   5.859  10.944   4.307 -0.0574 -0.3456 -0.0814
32725ION     NA48986  16.622  17.744   9.895 -0.1846 -0.2958  0.1162
32726ION     NA48987  13.777   5.851  11.712  0.4845 -0.1045  0.0981
32727ION     NA48988   3.223  17.878  10.916 -0.1313 -0.1536  0.0094
32728ION     NA48989  18.315  15.447   9.904 -0.0991 -0.0390  0.0524
32729ION     NA48990  15.039  15.693   9.656  0.4493  0.1976 -0.0856
32730ION     NA48991  11.065   8.424   4.643  0.3881  0.2553  0.2518
32731ION     NA48992  16.680  11.439   9.975 -0.0032 -0.1263 -0.0181
32732ION     NA48993  15.404   8.710   4.073  0.0272 -0.1119  0.1748
32733ION     NA48994   2.551  14.888  10.340  0.3697 -0.2401  0.2856
32734ION     NA48995   4.393   1.973   1.774 -0.0572  0.4979  0.1030
32735ION     NA48996  11.643   9.546  10.323  0.3247 -0.0629 -0.2016
32736ION     NA48997   2.647   8.363   0.878  0.0801  0.2074 -0.0779
32737ION     NA48998  13.873  12.374  11.237 -0.0878 -0.1088 -0.0723
32738ION     NA48999  15.808   6.963  10.180 -0.0458 -0.0697 -0.0702
32739ION     NA49000   5.632   8.688  10.635 -0.1383  0.0045 -0.1400
32740ION     NA49001   2.461   1.103  10.664  0.1315  0.0539  0.2378
32741ION     NA49002  17.693  16.124   5.348  0.0703  0.3644 -0.0731
32742ION     NA49003  12.396   2.659  10.048  0.1452  0.0017  0.0648
32743ION     NA49004   9.079  16.590  10.446 -0.3872  0.1569  0.2887
32744ION     NA49005   4.370  11.312  10.482  0.3417  0.0911 -0.1176
32745ION     NA49006  13.386  17.670   9.541 -0.0066 -0.3319  0.1046
32746ION     NA49007   8.197  16.033   5.026 -0.0479  0.0782  0.2058
32747ION     NA49008  14.207   0.508   9.553  0.2475  0.1611  0.0458
32748ION     NA49009  17.197   4.196  10.603 -0.1021  0.0113  0.3409
32749ION     NA49010   7.321   1.924   5.950 -0.0453  0.0051  0.2992
32750ION     NA49011  11.499  13.878  14.109 -0.0132 -0.0559  0.0600
32751ION     NA49012   4.493   8.906   5.988 -0.0230 -0.0702  0.1289
32752ION     NA49013   2.108  11.969  10.563 -0.3607  0.2082  0.3291
32753ION     NA49014   3.839  15.561   4.693  0.1217  0.0440  0.0727
32754ION     NA49015  16.409  15.892  12.862  0.1344 -0.1862 -0.2052
32755ION     NA49016   0.950   7.659  10.647  0.1176  0.3340 -0.1867
32756ION     NA49017   5.157  15.500  10.695  0.2728 -0.2638  0.2048
32757ION     NA49018   8.670   2.696   1.318  0.0242  0.0609 -0.0407
32758ION     NA49019   7.784  13.790   5.844 -0.2366 -0.1544  0.0048
32759ION     NA49020   7.959   9.363  10.762  0.2101  0.0881  0.1962
32760ION     NA49021   1.380  15.399  14.861  0.0105  0.2955  0.0897
32761ION     NA49022  17.811  11.830  12.401  0.0831 -0.3328  0.0863
32762ION     NA49023  10.089   1.002   2.029 -0.1660  0.0211 -0.0443
32763ION     NA49024   7.353   5.952   5.487 -0.0943  0.2559  0.2444
32764ION     NA49025  16.769   0.436  14.116  0.1780  0.1881  0.1621
32765ION     NA49026   8.631  14.400  13.758  0.3265  0.1492  0.5111
32766ION     NA49027  12.716   5.326  10.662  0.0056 -0.1552  0.1025
32767ION     NA49028   6.324  11.481  10.830  0.1388  0.1288  0.1027
32768ION     NA49029   0.782   8.543  10.642  0.3141 -0.0312 -0.3239
32769ION     NA49030   7.506  14.368  10.723  0.2565  0.0832 -0.1583
32770ION     NA49031  11.110   9.017  10.405  0.1607  0.0464  0.0616
32771ION     NA49032  15.061  17.437   9.660 -0.0523 -0.1585 -0.0560
32772ION     NA49033  10.219   6.723   5.483 -0.1131  0.2424  0.0549
32773ION     NA49034   8.076  12.310  10.623 -0.1669 -0.0041  0.0548
32774ION     NA49035   5.949  12.288   0.079 -0.0388  0.3950 -0.2602
32775ION     NA49036  10.993  14.049   0.768 -0.2793 -0.0694  0.1425
32776ION     NA49037   9.135  17.264   4.554  0.1867 -0.3521  0.0816
32777ION     NA49038   9.951  11.269   0.825 -0.2093  0.1414  0.1116
32778ION     NA49039  15.876   8.790  10.208 -0.0259 -0.2490 -0.0472
32779ION     NA49040  18.442   6.529   5.802 -0.1298  0.0605 -0.1081
32780ION     NA49041   9.124  14.838  10.440 -0.0913 -0.3294  0.1195
32781ION     NA49042  13.212   6.755  10.580  0.5229 -0.1354  0.4160
32782ION     NA49043   8.638   0.060  14.274  0.2849  0.3541  0.0244
32783ION     NA49044   7.760   0.399   2.147 -0.1448 -0.1102  0.1881
32784ION     NA49045   0.845   8.733  14.233  0.2494 -0.2901 -0.2921
32785ION     NA49046   9.028   6.782  14.702 -0.3869 -0.2222 -0.1718
32786ION     NA49047  16.465  15.007   9.673 -0.3713  0.0518  0.0595
32787ION     NA49048  10.681  15.579  10.034 -0.0702  0.1769  0.1131
32788ION     NA49049   6.063  13.335  11.392  0.0545 -0.0386  0.0642
32789ION     NA49050  10.012   0.595  12.295  0.0440  0.1505 -0.2725
32790ION     NA49051   0.743   9.316   5.936  0.0529  0.0079  0.2790
32791ION     NA49052   5.610   8.462   0.210 -0.2014 -0.0708  0.3202
32792ION     NA49053  16.175   6.984   4.850  0.4598  0.5053 -0.1632
32793ION     NA49054  12.011   1.194   5.765 -0.0905 -0.1764  0.2671
32794ION     NA49055   0.713   7.752  15.325  0.1368  0.1344  0.1318
32795ION     NA49056  13.176   6.167   5.832  0.0535  0.0038  0.1461
32796ION     NA49057  10.148  15.503   2.803 -0.0157 -0.0959  0.0797
32797ION     NA49058  17.347   7.779  10.453  0.3033  0.0586 -0.0546
32798ION     NA49059   8.896   3.384  10.670 -0.0333  0.1567  0.0928
32799ION     NA49060   7.954  12.866  11.000 -0.0737  0.0039  0.1909
32800ION     NA49061   0.572  10.709   1.156 -0.1151 -0.4240 -0.0299
32801ION     NA49062  12.976   9.243  12.532 -0.0142 -0.0387 -0.1000
32802ION     NA49063   5.758  14.592  10.493 -0.3753  0.3310 -0.1128
32803ION     NA49064   7.577  12.328  15.649  0.2750  0.0628  0.0922
32804ION     NA49065   9.219  16.662  13.972  0.2039  0.0693  0.2515
32805ION     NA49066   1.258   5.236  10.512  0.0889  0.0180 -0.4506
32806ION     NA49067  18.304   0.657  10.044  0.1671 -0.0591  0.0840
32807ION     NA49068   3.437   1.702  10.655 -0.2071 -0.0816  0.2544
32808ION     NA49069   9.007  10.931  10.554  0.4631  0.1255  0.0509
32809ION     NA49070   0.210  10.574  10.258 -0.2335 -0.0453  0.0360
32810ION     NA49071  17.596   3.267  10.353  0.0894  0.2268  0.0080
32811ION     NA49072  14.110  12.523   3.836 -0.0256  0.2230 -0.0681
32812ION     NA49073   4.641   5.879   1.318  0.1582 -0.1584 -0.0005
32813ION     NA49074   1.049   2.781  10.654  0.2671  0.0237 -0.2233
32814ION     NA49075  10.501  13.476   3.188  0.0047 -0.3375  0.2687
32815ION     NA49076   6.690   0.772   6.025 -0.2629 -0.0222  0.0233
32816ION     NA49077   5.249  12.932  10.492  0.1793 -0.0287  0.0976
32817ION     NA49078   8.168  13.241  10.627  0.4042 -0.4877  0.3040
32818ION     NA49079   3.040   3.757  10.815 -0.1019  0.0025 -0.2042
32819ION     NA49080   5.241   3.072  10.902  0.2371 -0.2083 -0.2570
32820ION     NA49081   5.275  10.153  13.937 -0.2627 -0.4463  0.3984
32821ION     NA49082  11.736  15.084  11.116 -0.1466  0.1579  0.2000
32822ION     NA49083   7.992  17.428   6.303  0.0977 -0.1255 -0.2726
32823ION     NA49084  12.404  10.330  10.225 -0.2662  0.0057 -0.1120
32824ION     NA49085   4.564   5.952   6.199 -0.0844 -0.1695 -0.1921
32825ION     NA49086  13.342   6.823   0.094 -0.1896  0.1409  0.0727
32826ION     NA49087  13.550   7.736  10.336 -0.0361 -0.2137 -0.1459
32827ION     NA49088  14.334  10.583   9.773 -0.3276  0.0612  0.0051
32828ION     NA49089  18.005  11.171  10.218 -0.1105 -0.2425 -0.2870
32829ION     NA49090   2.759   8.438  13.251 -0.0112  0.3964  0.3733
32830ION     NA49091   5.495  18.186  14.100  0.6787 -0.3881 -0.0891
32831ION     NA49092   0.206   4.918  10.462 -0.1200 -0.0444 -0.2239
32832ION     NA49093   8.036  16.480  11.869  0.2488 -0.0847  0.3265
32833ION     NA49094   6.232  13.037  10.516  0.1344  0.2682  0.1587
32834ION     NA49095  11.011  16.723  12.362  0.4787  0.0083  0.1939
32835ION     NA49096   2.156  10.965   5.967 -0.0576 -0.0487  0.3410
32836ION     NA49097  15.275   1.615   9.781 -0.0864  0.0568 -0.0551
32837ION     NA49098   2.235   4.034  10.643 -0.0160 -0.3119  0.2322
32838ION     NA49099  12.615   1.612  10.026  0.0587 -0.0541  0.2180
32839ION     NA49100   5.254   5.199   6.394  0.0266 -0.0836 -0.0945
32840ION     NA49101  10.029   7.652   5.989 -0.3050 -0.0044 -0.1753
32841ION     NA49102  13.182   0.595   2.704 -0.1586  0.1781  0.2630
32842ION     NA49103   9.344  12.604  10.674 -0.4424  0.3429 -0.2230
32843ION     NA49104   6.259   9.308  10.824  0.4279 -0.0360 -0.0747
32844ION     NA49105   6.656   2.428  10.836  0.0556 -0.0297  0.2299
32845ION     NA49106  17.187   0.423   9.624  0.3676  0.1796  0.0029
32846ION     NA49107   8.657  16.350  13.252 -0.0778  0.0121  0.0612
32847ION     NA49108  18.209  11.636  11.030  0.0252  0.0159  0.1125
32848ION     NA49109   0.165   0.651  15.934  0.2194  0.1590 -0.0282
32849ION     NA49110  13.432   1.837   9.847 -0.1927 -0.3538  0.1618
32850ION     NA49111   0.560  18.012  10.019  0.2638  0.1345 -0.2438
32851ION     NA49112   6.929   0.689   2.635  0.2218  0.1250  0.1020
32852ION     NA49113   6.722   2.012  10.567  0.0370 -0.3384 -0.2718
32853ION     NA49114   3.500  13.038   6.227 -0.2896 -0.1816  0.0344
32854ION     NA49115  10.099   9.891   4.955 -0.0171 -0.0724 -0.4288
32855ION     NA49116   0.852  12.300  10.518 -0.0364 -0.6349 -0.0284
32856ION     NA49117  10.557   0.399  15.626 -0.1207 -0.0158  0.1968
32857ION     NA49118   6.315  11.366  15.026  0.2396 -0.3245  0.2161
32858ION     NA49119   7.282   6.541  10.807  0.3783 -0.2518 -0.2036
32859ION     NA49120   5.310   3.538  10.983 -0.0894  0.4580  0.1340
32860ION     NA49121  16.972   9.588  10.305  0.0679 -0.1875  0.3706
32861ION     NA49122  12.730   4.550   5.620  0.0578  0.1108  0.0966
32862ION     NA49123   4.324   3.193  11.186  0.0307 -0.1182  0.0062
32863ION     NA49124  11.420  13.284   5.440  0.2162 -0.0208  0.0290
32864ION     NA49125  17.120  16.335  12.671  0.0705  0.1285  0.1776
32865ION     NA49126  15.625   3.381  11.899  0.3079  0.3583 -0.0418
32866ION     NA49127  17.034  13.887   5.272  0.4804  0.0171 -0.3107
32867ION     NA49128   8.149   3.279  10.677 -0.1919 -0.2292  0.1869
32868ION     NA49129   9.882  14.174   5.623  0.2049 -0.1416 -0.0482
32869ION     NA49130  12.521  11.211  15.711  0.0070  0.0223  0.1245
32870ION     NA49131   9.622   4.705  10.724 -0.1031  0.0240 -0.1127
32871ION     NA49132   4.203  10.010  11.669  0.2906 -0.0630 -0.0363
32872ION     NA49133   1.329  12.846  10.182 -0.3909 -0.0928 -0.2109
32873ION     NA49134   9.149   4.337  10.792 -0.0836 -0.3397  0.3116
32874ION     NA49135   6.328   1.678   3.764  0.0740  0.4887  0.1634
32875ION     NA49136  14.293   8.192  10.203 -0.0743 -0.1763  0.0705
32876ION     NA49137  16.644  12.283   9.754 -0.0473 -0.1511 -0.3122
32877ION     NA49138  14.415  14.700   9.374 -0.3051  0.1229  0.2055
32878ION     NA49139  18.156   1.513  10.198 -0.0965  0.1003  0.1611
32879ION     NA49140  10.597   5.946  11.975 -0.2397  0.0053  0.0303
32880ION     NA49141   2.960   3.571   4.758 -0.0910  0.0317 -0.3357
32881ION     NA49142   5.769  14.169   3.148 -0.1571  0.3028 -0.0129
32882ION     NA49143  12.403   3.867   1.821 -0.0023 -0.2286 -0.1246
32883ION     NA49144   1.059  10.908  10.270  0.0022 -0.0464 -0.0958
32884ION     NA49145   8.229   5.583  15.919  0.0651  0.0628 -0.5244
32885ION     NA49146  14.900   8.997  13.003  0.1598 -0.0516 -0.0956
32886ION     NA49147  11.021   4.257  10.680  0.2905 -0.0540 -0.1016
32887ION     NA49148   4.660  13.767  10.759  0.0498 -0.0906  0.2163
32888ION     NA49149   9.569   0.119  10.596  0.0141  0.2503 -0.0589
32889ION     NA49150  15.819  10.301  10.013 -0.0917  0.1422  0.1706
32890ION     NA49151  16.994  10.517  10.272  0.1840 -0.1493  0.1364
32891ION     NA49152   0.717   1.526  10.412 -0.1477 -0.2099  0.0287
32892ION     NA49153  18.173   4.079  10.473 -0.0451  0.0938 -0.1050
32893ION     NA49154   7.176  14.848  13.091 -0.1503 -0.3047 -0.2175
32894ION     NA49155  15.703  14.636   9.438  0.1967  0.0452  0.2370
32895ION     NA49156   7.540   0.369  10.607 -0.0357 -0.0087 -0.2198
32896ION     NA49157  16.451   1.761   0.740  0.1453 -0.4507 -0.2110
32897ION     NA49158   7.742  15.024   1.745 -0.1147 -0.0792 -0.0260
32898ION     NA49159   1.129  10.276   1.543  0.0580 -0.2142  0.0599
32899ION     NA49160   0.485  12.420  13.682 -0.0083 -0.1610  0.0906
32900ION     NA49161   4.230  15.600   5.822  0.1295 -0.0648  0.0233
32901ION     NA49162  12.618  15.187   9.702  0.0058 -0.0385  0.0620
32902ION     NA49163   0.830  18.416   4.766 -0.0509 -0.0503  0.4534
32903ION     NA49164  10.554   3.388  10.375  0.1449 -0.2689  0.2753
32904ION     NA49165   1.024   5.521   4.536  0.0954 -0.0918 -0.2082
32905ION     NA49166   2.601  18.338  10.588 -0.0962 -0.1939 -0.1275
32906ION     NA49167   6.399  17.337  10.814 -0.0129 -0.1777 -0.2332
32907ION     NA49168   3.843   6.896  10.739  0.1736 -0.1263 -0.0976
32908ION     NA49169  16.757   3.336   1.727 -0.0020 -0.2936  0.5148
32909ION     NA49170  14.702   4.509  10.641  0.2658 -0.1693 -0.0886
32910ION     NA49171  14.002   5.771   6.080  0.0689 -0.1978 -0.0734
32911ION     NA49172  11.714   8.019  10.588  0.1463 -0.1610 -0.1391
32912ION     NA49173  15.688  14.027  15.037 -0.1176 -0.0235  0.0089
32913ION     NA49174   6.109   7.023  11.066 -0.1142 -0.1612  0.0292
32914ION     NA49175   6.557   4.796  11.006 -0.0060  0.1159 -0.2737
32915ION     NA49176  11.283   4.282   5.354 -0.1055  0.1157  0.1427
32916ION     NA49177   3.775  14.494   4.429  0.0922 -0.2854 -0.1785
32917ION     NA49178  15.342  16.004  16.177 -0.2288  0.1931 -0.0195
32918ION     NA49179  15.802  18.021   9.639 -0.0720  0.2128  0.0149
32919ION     NA49180   8.889   2.548  12.217  0.2155 -0.0644 -0.2731
32920ION     NA49181   0.818   3.981   6.053  0.0784 -0.1074  0.0177
32921ION     NA49182  13.757   4.437  10.376 -0.0132  0.2595 -0.1382
32922ION     NA49183   8.472   4.953  13.481  0.1642 -0.0114 -0.2874
32923ION     NA49184   2.076   4.920   6.339  0.2562  0.0111 -0.0979
32924ION     NA49185   9.671   5.690   5.038  0.1038 -0.0359 -0.0077
32925ION     NA49186  15.655  15.363  12.862 -0.0866  0.2221  0.2320
32926ION     NA49187  12.149   3.391  10.351  0.1188  0.2790 -0.2177
32927ION     NA49188  16.966  14.340   9.804 -0.0869  0.0342  0.1446
32928ION     NA49189  16.281  12.876   2.541  0.0842  0.0112  0.1810
32929ION     NA49190   5.326  11.511  10.665 -0.1159 -0.3699 -0.3750
32930ION     NA49191   4.321  13.310   1.851  0.0292  0.2109  0.1098
32931ION     NA49192  16.715  16.194   3.611  0.6014 -0.0324  0.1234
32932ION     NA49193   1.724   6.762  10.631 -0.1965  0.2830  0.0253
32933ION     NA49194  18.198  16.282  10.104 -0.0393  0.0259 -0.0451
32934ION     NA49195  10.548   4.721   5.559  0.0214  0.3222 -0.4830
32935ION     NA49196   8.077  15.506  10.633  0.1716 -0.0278 -0.2838
32936ION     NA49197   6.481   8.365  10.798  0.0498  0.0187 -0.0626
32937ION     NA49198   6.104   8.856   6.057 -0.2493 -0.3437  0.0350
32938ION     NA49199   4.874   0.242   6.249 -0.0728 -0.0296 -0.0731
32939ION     NA49200   1.236  12.304   5.998 -0.0682 -0.3119  0.2098
32940ION     NA49201  17.321   9.650   4.319 -0.1094 -0.1819  0.0152
32941ION     NA49202   1.967   7.726  10.539 -0.0261 -0.2846  0.1853
32942ION     NA49203  18.036   0.020   9.884  0.3152  0.3160 -0.0627
32943ION     NA49204  11.558   0.879  16.148 -0.1630 -0.1820  0.0672
32944ION     NA49205  11.332   1.321  10.266 -0.2010 -0.0158 -0.2778
32945ION     NA49206   3.946  14.167  10.402  0.1377 -0.0979 -0.1276
32946ION     NA49207  15.351   3.133  10.244  0.3350  0.3152  0.0386
32947ION     NA49208   0.622   0.006  12.619  0.2316  0.1087 -0.1189
32948ION     NA49209  17.525   3.069   5.688 -0.1757  0.2150 -0.3248
32949ION     NA49210   0.031  11.240  12.701  0.0512 -0.2284 -0.3607
32950ION     NA49211  17.369   8.465   1.035 -0.0309  0.1878  0.1571
32951ION     NA49212   9.073  15.733  10.772 -0.0193 -0.0015  0.0323
32952ION     NA49213  18.269   6.296  10.620  0.0609 -0.3222  0.2643
32953ION     NA49214  11.066   3.469  10.310  0.1175 -0.3178  0.2114
32954ION     NA49215  16.696  18.292   9.984 -0.0584  0.1291 -0.0843
32955ION     NA49216  18.162   1.133  10.880 -0.2833 -0.1112 -0.1356
32956ION     NA49217  15.703   3.462   5.591  0.0901 -0.0645 -0.1034
32957ION     NA49218  17.599   2.456  10.164 -0.1722 -0.3464  0.0876
32958ION     NA49219  15.653  12.786  13.338 -0.0651  0.1059  0.3346
32959ION     NA49220  13.158  10.796  10.079 -0.0179  0.0480  0.1651
32960ION     NA49221  12.208  14.673   0.808 -0.1642 -0.0870  0.0598
32961ION     NA49222  11.832  14.540   9.920  0.0914  0.2250  0.1524
32962ION     NA49223  10.596   2.475  10.427  0.1366 -0.1115  0.3642
32963ION     NA49224  17.452  13.374  14.048  0.0686 -0.0542 -0.1902
32964ION     NA49225   1.880   4.933  10.591  0.1410  0.0488 -0.4942
32965ION     NA49226  11.546   6.106  10.415 -0.0262  0.1162  0.1383
32966ION     NA49227  16.125   3.929  10.399  0.0541 -0.1145  0.2752
32967ION     NA49228  17.089  10.990   1.439 -0.1681 -0.0438  0.0796
32968ION     NA49229  10.575   5.047  10.537  0.2663  0.2013 -0.1476
32969ION     NA49230  10.283   2.711   2.149  0.0849 -0.4725 -0.2013
32970ION     NA49231  11.556   4.910  10.654  0.0597 -0.1024 -0.2048
32971ION     NA49232   4.022   7.126  11.466 -0.0852  0.0777  0.2133
32972ION     NA49233   7.151   0.675  12.954  0.1104  0.1865 -0.3102
32973ION     NA49234   2.767   6.123   6.275 -0.1627 -0.0157  0.1599
32974ION     NA49235  15.441   9.541  10.347 -0.0212  0.0313  0.1771
32975ION     NA49236  12.076   1.522  10.040 -0.4411  0.2656  0.2321
32976ION     NA49237  15.451  14.295  15.900 -0.0063 -0.0161  0.1138
32977ION     NA49238   2.128  17.184  10.398 -0.4572 -0.2370 -0.1636
32978ION     NA49239  10.046   7.488   0.422 -0.3234 -0.2875  0.4023
32979ION     NA49240   9.116  11.453   1.776 -0.1400 -0.0777  0.2195
32980ION     NA49241  14.464   0.217   9.928 -0.1672 -0.0228 -0.0060
32981ION     NA49242   1.023  14.017  10.130  0.2173 -0.0167  0.0727
32982ION     NA49243  17.083  18.420   3.472  0.0125 -0.1154  0.3680
32983ION     NA49244   8.135   6.003  10.623 -0.1515 -0.1001 -0.0145
32984ION     NA49245  14.791  16.069   3.311  0.1246 -0.0850  0.1527
32985ION     NA49246  16.409   1.695   4.054  0.3218 -0.1712  0.0152
32986ION     NA49247   2.160   9.157  10.529 -0.1072 -0.0320 -0.0317
32987ION     NA49248  13.311  17.463   1.276 -0.2109  0.1499 -0.0971
32988ION     NA49249   1.673   1.505  10.403 -0.0406 -0.1509 -0.2604
32989ION     NA49250  12.184   2.140  11.719 -0.1154 -0.3235  0.0250
32990ION     NA49251   0.233   8.482  10.706 -0.2897  0.0851  0.3111
32991ION     NA49252  15.260  12.224  15.976 -0.1223 -0.2544 -0.1453
32992ION     NA49253  12.870  14.589   9.598 -0.1817  0.1547 -0.2027
32993ION     NA49254   3.302  15.208  10.227 -0.0155  0.1272  0.0025
32994ION     NA49255   1.300   4.276   6.087  0.0044 -0.0662  0.1502
32995ION     NA49256   4.248  13.442  10.736  0.1092 -0.0989 -0.3852
32996ION     NA49257  13.295   2.799  10.133 -0.2203  0.0429  0.3596
32997ION     NA49258  10.976  16.313   9.870  0.3510  0.1755  0.0484
32998ION     NA49259  15.998   7.828  10.498 -0.0100 -0.3142 -0.0483
32999ION     NA49260  18.286   6.880   1.075  0.2919  0.0094  0.0080
33000ION     NA49261   7.140   3.062  10.879 -0.1071 -0.2627  0.4386
33001ION     NA49262   9.321  11.827  10.446  0.3329 -0.4193  0.2650
33002ION     NA49263   9.870   6.036  10.726 -0.1832 -0.1952 -0.2462
33003ION     NA49264   7.445  18.311   6.592 -0.1246  0.0485 -0.0167
33004ION     NA49265  14.849  12.144   9.668 -0.2314 -0.1548 -0.1552
33005ION     NA49266  13.713   1.249   9.601 -0.2274  0.3691  0.0464
33006ION     NA49267   8.649  13.005   3.333 -0.2051 -0.2366 -0.2638
33007ION     NA49268   9.934  16.137  10.447  0.1039 -0.0122 -0.0815
33008ION     NA49269  13.957   5.118  13.329 -0.0866 -0.0738  0.0742
33009ION     NA49270   1.919   1.493   1.793 -0.1913 -0.2261 -0.1833
33010ION     NA49271   4.457   3.120   6.385  0.0247  0.1419  0.2119
33011ION     NA49272   8.470   1.104  15.400  0.0738 -0.1195  0.0474
33012ION     NA49273   1.426   9.810  10.416  0.1057 -0.3467  0.1487
33013ION     NA49274  17.094   0.996   5.481 -0.2821 -0.3957 -0.3006
33014ION     NA49275  16.732  12.632  10.634 -0.0823 -0.0575 -0.0348
33015ION     NA49276   3.098  11.569  11.003 -0.0834 -0.4105  0.0411
33016ION     NA49277  17.962  14.238   9.742 -0.0060  0.1317 -0.0927
33017ION     NA49278   4.822   0.030  10.686  0.2608  0.0729 -0.0351
33018ION     NA49279   4.186   6.273  12.580  0.1413 -0.1332  0.1148
33019ION     NA49280   2.709  10.046   6.007 -0.0109  0.0304  0.1502
33020ION     NA49281   6.640  12.996   4.690  0.0763 -0.0485 -0.0807
33021ION     NA49282   3.945   3.516  11.074  0.0909  0.2469 -0.0767
33022ION     NA49283   7.575  18.173   3.336 -0.3665  0.3889  0.2430
33023ION     NA49284   1.915  14.238  10.534 -0.1459  0.3000  0.0881
33024ION     NA49285   4.039  18.103  10.657 -0.1174 -0.2205 -0.3699
33025ION     NA49286   7.407  16.271  10.749 -0.1625 -0.0340 -0.1839
33026ION     NA49287   1.517   3.713  10.460 -0.1930  0.0851  0.0893
33027ION     NA49288   6.830   3.295  13.517  0.0485  0.2560 -0.2000
33028ION     NA49289   0.514   5.907   6.159  0.1436 -0.0396  0.1949
33029ION     NA49290   9.094   2.888  10.842  0.2281  0.0873  0.0854
33030ION     NA49291  11.470  10.042   5.721  0.2118 -0.0153  0.5083
33031ION     NA49292   2.598  17.758   4.416  0.2603  0.0850  0.3235
33032ION     NA49293  18.296  14.804  11.900  0.0786  0.3376  0.0595
33033ION     NA49294  16.162   4.870  10.541 -0.0006 -0.4965 -0.1265
33034ION     NA49295  15.879   6.596   3.824 -0.0296 -0.0377  0.0109
33035ION     NA49296   5.823   4.183   6.528  0.0126  0.1413 -0.1522
33036ION     NA49297   7.483   9.317   4.054  0.1309  0.2206 -0.1027
33037ION     NA49298   8.236   9.082  11.787 -0.2997 -0.2648  0.1080
33038ION     NA49299  10.556   1.613  10.330 -0.0582 -0.2166 -0.4552
33039ION     NA49300   3.272   5.606  10.863 -0.0752  0.2169  0.0315
33040ION     NA49301  15.687  16.859   9.680  0.1308 -0.0103  0.0838
33041ION     NA49302  18.330  12.377  10.463  0.1699 -0.0585 -0.2559
33042ION     NA49303   1.236   7.350   0.071  0.1356 -0.1988  0.0193
33043ION     NA49304  10.190  14.295  10.214  0.2462 -0.4240  0.0312
33044ION     NA49305  16.133  14.070   9.474 -0.1177 -0.0831  0.0893
33045ION     NA49306  12.933   8.551   5.844 -0.3210 -0.0511  0.0548
33046ION     NA49307   4.598  17.377   2.579  0.0294 -0.3755  0.2964
33047ION     NA49308   8.150  17.687   1.480 -0.1734 -0.0333 -0.2349
33048ION     NA49309   7.675   2.174  10.731  0.2210 -0.3137 -0.0444
33049ION     NA49310  13.681  14.917   9.605  0.0416  0.0667  0.0212
33050ION     NA49311   2.445   2.739   2.529  0.0037 -0.1660 -0.1301
33051ION     NA49312  10.844   1.352  15.979  0.1264  0.0066 -0.0730
33052ION     NA49313   1.264  16.976  10.991 -0.2406  0.1170 -0.0913
33053ION     NA49314  12.940   2.239   4.512 -0.0543 -0.4963 -0.1410
33054ION     NA49315   0.695   0.469  10.230  0.1259  0.1164 -0.1949
33055ION     NA49316   4.108  12.212  11.508 -0.1143 -0.1477 -0.1543
33056ION     NA49317  14.002  10.311   3.309 -0.2888  0.0804  0.2490
33057ION     NA49318  16.476   9.605  10.196  0.0784  0.3474  0.5236
33058ION     NA49319   5.387  16.347  13.748 -0.0344 -0.0270  0.4935
33059ION     NA49320   3.003  11.013  10.324  0.0349  0.0367 -0.0431
33060ION     NA49321  14.361   1.616   9.489 -0.0751  0.1513 -0.3050
33061ION     NA49322   3.152  11.826  10.575 -0.0685 -0.0253  0.0789
33062ION     NA49323   4.883  10.413  10.584 -0.4043 -0.2137  0.2630
33063ION     NA49324  11.119   5.293  11.396  0.2986 -0.1034 -0.1956
33064ION     NA49325  12.135  13.374  11.682  0.0862 -0.0198  0.2175
33065ION     NA49326  10.958   6.941  10.474  0.2065  0.0502  0.0736
33066ION     NA49327  11.717  16.207   9.479  0.2002  0.1170  0.0245
33067ION     NA49328   3.751  12.641  10.377  0.1357  0.0379  0.0542
33068ION     NA49329   1.624   6.496  12.394 -0.3752  0.1387  0.0669
33069ION     NA49330   2.530  12.299   5.972 -0.1002 -0.6928 -0.2475
33070ION     NA49331  14.448  12.997   9.550 -0.1482 -0.0571  0.0149
33071ION     NA49332  11.973   5.631  11.532 -0.0528 -0.1477  0.0719
33072ION     NA49333   7.598   7.359  10.753 -0.0257  0.0168 -0.3366
33073ION     NA49334   3.608   9.250   6.006 -0.1542  0.3327 -0.2948
33074ION     NA49335   3.098  16.481  11.037 -0.1198 -0.0849  0.3255
33075ION     NA49336   8.446   0.223  10.584  0.1745  0.1277 -0.0396
33076ION     NA49337   4.995  16.355  10.802 -0.1907  0.0141 -0.1741
33077ION     NA49338  13.577   0.042   9.446 -0.1820 -0.0697  0.3504
33078ION     NA49339  13.486  11.484   5.525 -0.0451 -0.0365  0.3348
33079ION     NA49340   2.811   2.584  10.718 -0.2477 -0.2362  0.1775
33080ION     NA49341  11.755  15.992   2.149 -0.2010 -0.1689  0.2584
33081ION     NA49342  17.862  15.811  14.938 -0.4651  0.3996  0.2479
33082ION     NA49343   0.319  11.783   4.282 -0.0387  0.2172 -0.1378
33083ION     NA49344   9.647  13.357  10.358 -0.1347  0.3328 -0.2705
33084ION     NA49345   4.065  14.468   1.279  0.0124  0.1420  0.3647
33085ION     NA49346   2.327   7.243  10.512  0.0247 -0.2292 -0.0840
33086ION     NA49347  11.160  14.899  10.350  0.3297  0.0932 -0.1063
33087ION     NA49348  11.354  15.537  13.766  0.2832 -0.1844 -0.1532
33088ION     NA49349  11.736  17.990   9.978 -0.3916 -0.0847  0.0780
33089ION     NA49350  11.520   4.263   1.753 -0.1039  0.1940 -0.0169
33090ION     NA49351   0.170  16.809  10.210 -0.1491  0.0185 -0.4698
33091ION     NA49352   8.365  15.909  14.692  0.0381  0.3878  0.3232
33092ION     NA49353  10.027  12.585  10.450  0.1252  0.0204 -0.0562
33093ION     NA49354   5.192   5.401  11.494  0.0257 -0.4178  0.4047
33094ION     NA49355   4.869  12.322   0.380  0.0443 -0.3138  0.1230
33095ION     NA49356  15.136  11.637  14.780 -0.0120 -0.1226  0.0379
33096ION     NA49357  11.598  12.655  10.186 -0.2186 -0.2508 -0.2500
33097ION     NA49358  15.668   0.665  12.042 -0.0968  0.0699 -0.0891
33098ION     NA49359  17.412  12.119   1.291 -0.0302  0.1181 -0.0087
33099ION     NA49360  13.856  11.350   9.815 -0.3890  0.2522  0.2538
33100ION     NA49361  14.130   0.739   5.272  0.0748  0.3328 -0.1898
33101ION     NA49362  15.590  11.785   4.828 -0.2153  0.2021 -0.0259
33102ION     NA49363  17.064   5.139  10.698 -0.0710 -0.2090  0.1261
33103ION     NA49364  16.167   5.505   5.213 -0.2079  0.2360 -0.4000
33104ION     NA49365   5.073   9.859  11.237 -0.1367 -0.0034  0.0695
33105ION     NA49366   7.570  18.248  10.769  0.0166  0.1687 -0.0837
33106ION     NA49367   5.742  10.691  10.597  0.0742  0.0978 -0.1780
33107ION     NA49368   8.800  17.992  10.584 -0.1015 -0.1629  0.1900
33108ION     NA49369   1.237  10.248   0.654  0.0787 -0.0420 -0.1171
33109ION     NA49370  14.245  15.536   1.528 -0.0518  0.1634 -0.0521
33110ION     NA49371   9.540   7.507  10.669  0.5235  0.0100  0.3894
33111ION     NA49372   8.303  18.138   6.059  0.1065 -0.3944 -0.3981
33112ION     NA49373  14.914  14.144   2.946  0.0140 -0.0076  0.0108
33113ION     NA49374   8.137  11.304  10.377 -0.0463  0.0756  0.0537
33114ION     NA49375  14.878   6.144  10.168  0.0137  0.0821  0.0336
33115ION     NA49376  17.086   3.351  10.301  0.1868  0.1098  0.1403
33116ION     NA49377   6.314  15.172  10.616 -0.1082 -0.2011  0.1372
33117ION     NA49378   5.267   7.311   6.242  0.0229 -0.1425  0.1213
33118ION     NA49379   3.111   9.255  10.436  0.0722 -0.2456 -0.2879
33119ION     NA49380   4.438  15.126  11.409 -0.3385 -0.1951 -0.0418
33120ION     NA49381   6.527  13.857  10.529  0.3786 -0.1115 -0.4372
33121ION     NA49382  14.976  14.888  12.229  0.0650 -0.0863 -0.2569
33122ION     NA49383  15.632   1.459   3.682 -0.2336  0.0452 -0.1900
33123ION     NA49384  10.862  12.177  10.177  0.1717 -0.1029  0.0545
33124ION     NA49385   5.040   7.927   2.823 -0.1273  0.1057  0.0765
33125ION     NA49386  12.570   7.584  10.643  0.1232 -0.0781  0.1031
33126ION     NA49387   3.620   4.388  11.201 -0.0728 -0.1040 -0.1390
33127ION     NA49388  12.055   4.234  10.569  0.1049  0.1451 -0.1014
33128ION     NA49389   9.934   1.482   3.497  0.2586 -0.0289  0.0442
33129ION     NA49390   2.885  16.792  15.201 -0.1974 -0.0698  0.0076
33130ION     NA49391   7.555   8.227  10.796 -0.0612 -0.0645 -0.0776
33131ION     NA49392  10.640   1.954   5.741  0.3043  0.0036 -0.1445
33132ION     NA49393  11.644  17.059   9.840 -0.1453 -0.0210  0.3523
33133ION     NA49394  13.964   7.132  10.478  0.0531 -0.0998  0.0030
33134ION     NA49395   5.913   5.511  10.974  0.1357  0.3781 -0.1695
33135ION     NA49396   3.572  17.686  11.978 -0.1370 -0.1069 -0.4084
33136ION     NA49397  13.438  11.752  10.178 -0.1873 -0.0501 -0.0852
33137ION     NA49398  11.500  10.940   5.630  0.1811  0.5426 -0.1049
33138ION     NA49399   8.016  10.359  10.551  0.2602 -0.1186 -0.3683
33139ION     NA49400   5.927   2.631   5.668 -0.0315  0.0483  0.1870
33140ION     NA49401   7.731   2.455   3.556 -0.0585  0.1848  0.0131
33141ION     NA49402   4.299  15.441  12.568  0.3185  0.0200 -0.2638
33142ION     NA49403  17.455   3.531   5.832 -0.0679 -0.1112  0.1139
33143ION     NA49404  16.630  11.875   4.652 -0.4630  0.0971 -0.2550
33144ION     NA49405  12.609  17.552   9.551 -0.1312 -0.3233 -0.4348
33145ION     NA49406   4.279   1.961  11.054 -0.0942 -0.2719 -0.2075
33146ION     NA49407  10.780  11.383  12.729 -0.1133  0.2102  0.4516
33147ION     NA49408   0.469   5.754  10.641  0.1565  0.0279  0.1709
33148ION     NA49409  15.377  18.276   9.796  0.0997 -0.1584  0.1229
33149ION     NA49410  11.431   5.689   0.682 -0.2447  0.3784 -0.0213
33150ION     NA49411   7.911   6.962   1.123  0.2796 -0.2947 -0.0660
33151ION     NA49412   5.374   9.655   3.573 -0.1741  0.1302  0.0178
33152ION     NA49413   2.700   6.416  10.569 -0.0550 -0.2112  0.0475
33153ION     NA49414   4.748   7.372  10.792 -0.2171  0.0431  0.1692
33154ION     NA49415   0.869  11.549   5.816 -0.0184 -0.0292  0.0100
33155ION     NA49416  17.462  17.156   9.538 -0.1062  0.0744 -0.0420
33156ION     NA49417  16.003  13.909   1.524 -0.1021  0.2896  0.0754
33157ION     NA49418  17.582  17.279  12.394 -0.1886 -0.0556  0.1519
33158ION     NA49419  16.190   2.987  10.346  0.2770 -0.1017  0.3041
33159ION     NA49420   8.928   5.251   6.374 -0.1965 -0.3640  0.0747
33160ION     NA49421  17.070   3.850   5.482  0.1388  0.1320 -0.1273
33161ION     NA49422  13.537   4.623   5.536  0.0078 -0.3289 -0.0518
33162ION     NA49423  11.400  16.105  13.051  0.2351  0.3623 -0.3114
33163ION     NA49424  13.018  13.543   9.799 -0.0516 -0.2761  0.0768
33164ION     NA49425  17.256   2.353   0.469 -0.0011 -0.0208  0.0635
33165ION     NA49426   8.068  10.009   0.217  0.3022  0.1752  0.2597
33166ION     NA49427  14.732   2.330   9.767 -0.1311 -0.2280  0.0237
33167ION     NA49428  15.702   1.425   2.709 -0.1886  0.0872  0.2105
  18.48482  18.48482  16.18480
